
                                 *****************
                                 * O   R   C   A *
                                 *****************

           --- An Ab Initio, DFT and Semiempirical electronic structure package ---

                  #######################################################
                  #                        -***-                        #
                  #          Department of theory and spectroscopy      #
                  #               Directorship: Frank Neese             #
                  #        Max Planck Institute fuer Kohlenforschung    #
                  #                Kaiser Wilhelm Platz 1               #
                  #                 D-45470 Muelheim/Ruhr               #
                  #                      Germany                        #
                  #                                                     #
                  #                  All rights reserved                #
                  #                        -***-                        #
                  #######################################################


                         Program Version 4.2.0 -  RELEASE  -


 With contributions from (in alphabetic order):
   Daniel Aravena         : Magnetic Suceptibility
   Michael Atanasov       : Ab Initio Ligand Field Theory (pilot matlab implementation)
   Alexander A. Auer      : GIAO ZORA, VPT2
   Ute Becker             : Parallelization
   Giovanni Bistoni       : ED, misc. LED, open-shell LED, HFLED
   Martin Brehm           : Molecular dynamics
   Dmytro Bykov           : SCF Hessian
   Vijay G. Chilkuri      : MRCI spin determinant printing, contributions to CSF-ICE
   Dipayan Datta          : RHF DLPNO-CCSD density
   Achintya Kumar Dutta   : EOM-CC, STEOM-CC
   Dmitry Ganyushin       : Spin-Orbit,Spin-Spin,Magnetic field MRCI
   Miquel Garcia          : C-PCM Hessian, Gaussian charge scheme
   Yang Guo               : DLPNO-NEVPT2, CIM, IAO-localization
   Andreas Hansen         : Spin unrestricted coupled pair/coupled cluster methods
   Benjamin Helmich-Paris : CASSCF linear response (MC-RPA)
   Lee Huntington         : MR-EOM, pCC
   Robert Izsak           : Overlap fitted RIJCOSX, COSX-SCS-MP3, EOM
   Christian Kollmar      : KDIIS, OOCD, Brueckner-CCSD(T), CCSD density
   Simone Kossmann        : Meta GGA functionals, TD-DFT gradient, OOMP2, MP2 Hessian
   Martin Krupicka        : AUTO-CI
   Lucas Lang             : DCDCAS
   Dagmar Lenk            : GEPOL surface, SMD
   Dimitrios Liakos       : Extrapolation schemes; Compound Job, initial MDCI parallelization
   Dimitrios Manganas     : Further ROCIS development; embedding schemes
   Dimitrios Pantazis     : SARC Basis sets
   Taras Petrenko         : DFT Hessian,TD-DFT gradient, ASA, ECA, R-Raman, ABS, FL, XAS/XES, NRVS
   Peter Pinski           : DLPNO-MP2, DLPNO-MP2 Gradient
   Christoph Reimann      : Effective Core Potentials
   Marius Retegan         : Local ZFS, SOC
   Christoph Riplinger    : Optimizer, TS searches, QM/MM, DLPNO-CCSD(T), (RO)-DLPNO pert. Triples
   Tobias Risthaus        : Range-separated hybrids, TD-DFT gradient, RPA, STAB
   Michael Roemelt        : Original ROCIS implementation
   Masaaki Saitow         : Open-shell DLPNO-CCSD energy and density
   Barbara Sandhoefer     : DKH picture change effects
   Avijit Sen             : IP-ROCIS
   Kantharuban Sivalingam : CASSCF convergence, NEVPT2, FIC-MRCI
   Bernardo de Souza      : ESD, SOC TD-DFT
   Georgi Stoychev        : AutoAux, RI-MP2 NMR
   Willem Van den Heuvel  : Paramagnetic NMR
   Boris Wezisla          : Elementary symmetry handling
   Frank Wennmohs         : Technical directorship


 We gratefully acknowledge several colleagues who have allowed us to
 interface, adapt or use parts of their codes:
   Stefan Grimme, W. Hujo, H. Kruse,             : VdW corrections, initial TS optimization,
                  C. Bannwarth                     DFT functionals, gCP, sTDA/sTD-DF
   Ed Valeev, F. Pavosevic, A. Kumar             : LibInt (2-el integral package), F12 methods
   Garnet Chan, S. Sharma, J. Yang, R. Olivares  : DMRG
   Ulf Ekstrom                                   : XCFun DFT Library
   Mihaly Kallay                                 : mrcc  (arbitrary order and MRCC methods)
   Andreas Klamt, Michael Diedenhofen            : otool_cosmo (COSMO solvation model)
   Jiri Pittner, Ondrej Demel                    : Mk-CCSD
   Frank Weinhold                                : gennbo (NPA and NBO analysis)
   Christopher J. Cramer and Donald G. Truhlar   : smd solvation model
   Lars Goerigk                                  : TD-DFT with DH, B97 family of functionals
   V. Asgeirsson, H. Jonsson                     : NEB implementation
   FAccTs GmbH                                   : IRC, NEB, NEB-TS, Multilevel, MM, QM/MM, CI optimization
   S Lehtola, MJT Oliveira, MAL Marques          : LibXC Library


 Your calculation uses the libint2 library for the computation of 2-el integrals
 For citations please refer to: http://libint.valeyev.net

 Your ORCA version has been built with support for libXC version: 4.2.3
 For citations please refer to: https://tddft.org/programs/libxc/

 This ORCA versions uses:
   CBLAS   interface :  Fast vector & matrix operations
   LAPACKE interface :  Fast linear algebra routines
   SCALAPACK package :  Parallel linear algebra routines




***************************************
The coordinates will be read from file: 10.xyz
***************************************


Your calculation utilizes the atom-pairwise dispersion correction
with the Becke-Johnson damping scheme (D3BJ)
Cite in your paper:
S.Grimme, S.Ehrlich, L.Goerigk, J Comput Chem, (2011), 32, 1456–1465 
S.Grimme, J.Antony, S.Ehrlich and H.Krieg, J.Chem.Phys., 132, (2010), 154104 
   

----- Orbital basis set information -----
Your calculation utilizes the basis: def2-TZVP
   F. Weigend and R. Ahlrichs, Phys. Chem. Chem. Phys. 7, 3297 (2005).

----- AuxJ basis set information -----
Your calculation utilizes the auxiliary basis: def2/J
   F. Weigend, Phys. Chem. Chem. Phys. 8, 1057 (2006).

================================================================================
                                        WARNINGS
                       Please study these warnings very carefully!
================================================================================


WARNING: Geometry Optimization
  ===> : Switching off AutoStart
         For restart on a previous wavefunction, please use MOREAD

INFO   : the flag for use of LIBINT has been found!

================================================================================
                                       INPUT FILE
================================================================================
NAME = 10.inp
|  1> !RI BP86 def2-tzvp def2/J D3BJ TIGHTSCF TightOpt Grid5 FinalGrid6 freq
|  2> %maxcore 4000
|  3> %pal nprocs 24
|  4> end
|  5> * xyzfile 0 1 10.xyz 
|  6> 
|  7>                          ****END OF INPUT****
================================================================================

                       *****************************
                       * Geometry Optimization Run *
                       *****************************

Geometry optimization settings:
Update method            Update   .... BFGS
Choice of coordinates    CoordSys .... Z-matrix Internals
Initial Hessian          InHess   .... Almoef's Model

Convergence Tolerances:
Energy Change            TolE     ....  1.0000e-06 Eh
Max. Gradient            TolMAXG  ....  1.0000e-04 Eh/bohr
RMS Gradient             TolRMSG  ....  3.0000e-05 Eh/bohr
Max. Displacement        TolMAXD  ....  1.0000e-03 bohr
RMS Displacement         TolRMSD  ....  6.0000e-04 bohr
Strict Convergence                ....  False
------------------------------------------------------------------------------
                        ORCA OPTIMIZATION COORDINATE SETUP
------------------------------------------------------------------------------

The optimization will be done in new redundant internal coordinates
Making redundant internal coordinates   ...  (new redundants) done
Evaluating the initial hessian          ...  (Almloef) done
Evaluating the coordinates              ...  done
Calculating the B-matrix                .... done
Calculating the G-matrix                .... done
Diagonalizing the G-matrix              .... done
Small eigenvalue found = 1.110e-03
Small eigenvalue found = 1.843e-03
Small eigenvalue found = 3.076e-03
Small eigenvalue found = 3.979e-03
Small eigenvalue found = 4.368e-03
Small eigenvalue found = 6.208e-03
Small eigenvalue found = 7.066e-03
Small eigenvalue found = 8.980e-03
Small eigenvalue found = 1.030e-02
Small eigenvalue found = 1.095e-02
Small eigenvalue found = 1.428e-02
Small eigenvalue found = 1.436e-02
Small eigenvalue found = 1.645e-02
Small eigenvalue found = 1.823e-02
Small eigenvalue found = 2.152e-02
Small eigenvalue found = 2.368e-02
Small eigenvalue found = 2.474e-02
Small eigenvalue found = 2.899e-02
The first mode is                       ....  328
The number of degrees of freedom        ....  339

    -----------------------------------------------------------------
                    Redundant Internal Coordinates


    -----------------------------------------------------------------
         Definition                    Initial Value    Approx d2E/dq
    -----------------------------------------------------------------
      1. B(C   1,O   0)                  1.2300         1.007108   
      2. B(C   2,C   1)                  1.5359         0.365548   
      3. B(C   3,C   2)                  1.5388         0.361674   
      4. B(C   4,C   3)                  1.5346         0.367251   
      5. B(C   5,C   4)                  1.5318         0.371047   
      6. B(N   6,C   5)                  1.4818         0.399395   
      7. B(N   6,C   2)                  1.4713         0.415060   
      8. B(C   7,N   6)                  1.3555         0.635117   
      9. B(O   8,C   7)                  1.2453         0.952131   
     10. B(N   9,C   1)                  1.3608         0.622999   
     11. B(C  10,N   9)                  1.4524         0.444987   
     12. B(C  11,C  10)                  1.5487         0.348814   
     13. B(N  12,C  11)                  1.3650         0.613394   
     14. B(C  13,N  12)                  1.4478         0.452610   
     15. B(C  14,C  13)                  1.5398         0.360409   
     16. B(N  15,C  14)                  1.3771         0.586666   
     17. B(C  16,N  15)                  1.4528         0.444349   
     18. B(C  17,C  16)                  1.5608         0.333611   
     19. B(C  18,C  17)                  1.5401         0.359918   
     20. B(C  19,C  18)                  1.5523         0.344238   
     21. B(N  20,C  19)                  1.3583         0.628785   
     22. B(C  21,N  20)                  1.4589         0.434529   
     23. B(C  22,C  21)                  1.5423         0.357057   
     24. B(N  23,C  22)                  1.3569         0.631945   
     25. B(C  24,N  23)                  1.4510         0.447263   
     26. B(C  24,C   7)                  1.5358         0.365664   
     27. B(C  25,C  24)                  1.5288         0.375181   
     28. B(O  26,C  22)                  1.2394         0.973002   
     29. B(C  27,C  21)                  1.5359         0.365563   
     30. B(C  28,C  27)                  1.5374         0.363490   
     31. B(C  29,C  28)                  1.5332         0.369254   
     32. B(C  30,C  28)                  1.5305         0.372824   
     33. B(O  31,C  19)                  1.2320         0.999902   
     34. B(C  32,C  18)                  1.5448         0.353759   
     35. B(C  33,C  32)                  1.5246         0.381082   
     36. B(C  34,C  33)                  1.5439         0.354948   
     37. B(C  35,C  34)                  1.5285         0.375678   
     38. B(C  36,C  35)                  1.5278         0.376576   
     39. B(C  37,C  36)                  1.5355         0.366087   
     40. B(C  38,C  37)                  1.5360         0.365392   
     41. B(C  39,C  38)                  1.5293         0.374487   
     42. B(C  40,C  39)                  1.5289         0.375059   
     43. B(C  41,C  40)                  1.5285         0.375574   
     44. B(O  42,C  32)                  1.2170         1.056374   
     45. B(O  43,C  17)                  1.4331         0.477581   
     46. B(O  44,C  14)                  1.2292         1.010085   
     47. B(C  45,C  13)                  1.5470         0.350907   
     48. B(C  46,C  45)                  1.5296         0.374056   
     49. B(O  47,C  11)                  1.2296         1.008874   
     50. B(C  48,C  10)                  1.5387         0.361840   
     51. B(C  49,C  48)                  1.5304         0.373016   
     52. B(C  50,C  48)                  1.5296         0.374076   
     53. B(H  51,C   2)                  1.0988         0.348701   
     54. B(H  52,C   3)                  1.1001         0.347035   
     55. B(H  53,C   3)                  1.0958         0.352473   
     56. B(H  54,C   4)                  1.1002         0.346905   
     57. B(H  55,C   4)                  1.0969         0.351071   
     58. B(H  56,C   5)                  1.0974         0.350410   
     59. B(H  57,C   5)                  1.1025         0.343923   
     60. B(H  58,N   9)                  1.0186         0.419297   
     61. B(H  59,C  10)                  1.1027         0.343718   
     62. B(H  60,N  12)                  1.0244         0.410338   
     63. B(H  61,C  13)                  1.1043         0.341727   
     64. B(H  62,N  15)                  1.0155         0.424030   
     65. B(H  63,C  16)                  1.0974         0.350427   
     66. B(H  64,C  16)                  1.0982         0.349391   
     67. B(H  65,C  17)                  1.1056         0.340094   
     68. B(H  66,C  18)                  1.1030         0.343308   
     69. B(H  67,N  20)                  1.0259         0.408206   
     70. B(H  68,C  21)                  1.1022         0.344365   
     71. B(H  69,O  44)                  3.4148         0.000063   
     72. B(H  69,N  23)                  1.0226         0.413171   
     73. B(H  70,C  24)                  1.0970         0.350945   
     74. B(H  71,C  25)                  1.0965         0.351647   
     75. B(H  72,C  25)                  1.0983         0.349254   
     76. B(H  73,C  25)                  1.0975         0.350353   
     77. B(H  74,C  27)                  1.1005         0.346508   
     78. B(H  75,C  27)                  1.1036         0.342506   
     79. B(H  76,C  28)                  1.0988         0.348708   
     80. B(H  77,C  29)                  1.0995         0.347732   
     81. B(H  78,C  29)                  1.0998         0.347359   
     82. B(H  79,C  29)                  1.1022         0.344330   
     83. B(H  80,C  30)                  1.0977         0.350023   
     84. B(H  81,C  30)                  1.1021         0.344411   
     85. B(H  82,C  30)                  1.0999         0.347241   
     86. B(H  83,C  33)                  1.1022         0.344262   
     87. B(H  84,C  33)                  1.0986         0.348870   
     88. B(H  85,C  34)                  1.1009         0.345980   
     89. B(H  86,C  34)                  1.1018         0.344832   
     90. B(H  87,C  35)                  1.1049         0.340922   
     91. B(H  88,C  35)                  1.0995         0.347766   
     92. B(H  89,C  36)                  1.1024         0.344045   
     93. B(H  90,C  36)                  1.1035         0.342661   
     94. B(H  91,C  37)                  1.1032         0.343071   
     95. B(H  92,C  37)                  1.1044         0.341571   
     96. B(H  93,C  38)                  1.1038         0.342273   
     97. B(H  94,H  71)                  2.2524         0.000964   
     98. B(H  94,C  38)                  1.1031         0.343188   
     99. B(H  95,O  31)                  2.8002         0.000603   
    100. B(H  95,C  39)                  1.1016         0.345131   
    101. B(H  96,C  39)                  1.1051         0.340708   
    102. B(H  97,C  40)                  1.1037         0.342459   
    103. B(H  98,H  56)                  4.7192         0.000000   
    104. B(H  98,H  80)                  2.2238         0.001070   
    105. B(H  98,C  40)                  1.1033         0.342959   
    106. B(H  99,C  41)                  1.0989         0.348474   
    107. B(H 100,C  41)                  1.1009         0.345955   
    108. B(H 101,C  41)                  1.1001         0.347031   
    109. B(H 102,H  73)                  2.7805         0.000138   
    110. B(H 102,O  43)                  0.9797         0.483615   
    111. B(H 103,C  45)                  1.0957         0.352619   
    112. B(H 104,C  45)                  1.0996         0.347574   
    113. B(H 105,C  46)                  1.0984         0.349154   
    114. B(H 106,C  46)                  1.1001         0.347031   
    115. B(H 107,C  46)                  1.1030         0.343320   
    116. B(H 108,C  48)                  1.1004         0.346648   
    117. B(H 109,C  49)                  1.0997         0.347492   
    118. B(H 110,C  49)                  1.1009         0.345931   
    119. B(H 111,C  49)                  1.0992         0.348142   
    120. B(H 112,H  74)                  2.2184         0.001092   
    121. B(H 112,C  50)                  1.0984         0.349149   
    122. B(H 113,C  50)                  1.0986         0.348870   
    123. B(H 114,C  50)                  1.1009         0.345954   
    124. A(O   0,C   1,N   9)          124.2168         0.468215   
    125. A(C   2,C   1,N   9)          116.4776         0.392987   
    126. A(O   0,C   1,C   2)          119.3049         0.427897   
    127. A(C   1,C   2,H  51)          105.0112         0.321466   
    128. A(N   6,C   2,H  51)          109.6153         0.326278   
    129. A(C   1,C   2,N   6)          115.2697         0.366291   
    130. A(C   1,C   2,C   3)          111.2365         0.360013   
    131. A(C   3,C   2,H  51)          112.7750         0.320906   
    132. A(C   3,C   2,N   6)          103.1705         0.365623   
    133. A(C   4,C   3,H  53)          114.2777         0.322278   
    134. A(C   4,C   3,H  52)          110.5012         0.321459   
    135. A(C   2,C   3,C   4)          102.8296         0.360298   
    136. A(C   2,C   3,H  53)          111.1705         0.321472   
    137. A(C   2,C   3,H  52)          109.6965         0.320655   
    138. A(H  52,C   3,H  53)          108.2605         0.288191   
    139. A(H  54,C   4,H  55)          107.9660         0.287994   
    140. A(C   3,C   4,H  55)          113.3938         0.322068   
    141. A(C   3,C   4,C   5)          103.2753         0.361874   
    142. A(C   3,C   4,H  54)          110.1408         0.321439   
    143. A(C   5,C   4,H  55)          112.1141         0.322611   
    144. A(C   5,C   4,H  54)          109.9011         0.321981   
    145. A(H  56,C   5,H  57)          109.3116         0.287521   
    146. A(C   4,C   5,N   6)          102.9162         0.364817   
    147. A(C   4,C   5,H  56)          113.6376         0.322511   
    148. A(N   6,C   5,H  57)          110.2775         0.323487   
    149. A(N   6,C   5,H  56)          109.6876         0.324481   
    150. A(C   4,C   5,H  57)          110.8518         0.321526   
    151. A(C   5,N   6,C   7)          126.6173         0.397934   
    152. A(C   2,N   6,C   7)          121.1896         0.400636   
    153. A(C   2,N   6,C   5)          112.1698         0.369576   
    154. A(O   8,C   7,C  24)          120.4422         0.423642   
    155. A(N   6,C   7,O   8)          122.2962         0.465063   
    156. A(N   6,C   7,C  24)          117.2110         0.394338   
    157. A(C   1,N   9,C  10)          121.7565         0.404208   
    158. A(C  10,N   9,H  58)          118.8743         0.337389   
    159. A(C   1,N   9,H  58)          118.7185         0.357046   
    160. A(C  48,C  10,H  59)          109.0741         0.320176   
    161. A(C  11,C  10,H  59)          105.2673         0.318266   
    162. A(N   9,C  10,C  11)          112.7403         0.367723   
    163. A(N   9,C  10,C  48)          112.5313         0.370045   
    164. A(N   9,C  10,H  59)          105.0333         0.329263   
    165. A(C  11,C  10,C  48)          111.6489         0.357182   
    166. A(N  12,C  11,O  47)          125.0959         0.467034   
    167. A(C  10,C  11,O  47)          120.4082         0.424454   
    168. A(C  10,C  11,N  12)          114.3443         0.388724   
    169. A(C  13,N  12,H  60)          114.0776         0.337130   
    170. A(C  11,N  12,C  13)          125.4112         0.404311   
    171. A(C  11,N  12,H  60)          118.0004         0.354803   
    172. A(C  14,C  13,C  45)          113.3692         0.357304   
    173. A(N  12,C  13,H  61)          105.6423         0.329871   
    174. A(C  14,C  13,H  61)          106.3614         0.319665   
    175. A(N  12,C  13,C  14)          109.8511         0.370875   
    176. A(C  45,C  13,H  61)          107.3727         0.318274   
    177. A(N  12,C  13,C  45)          113.6488         0.369175   
    178. A(C  13,C  14,N  15)          115.1459         0.387922   
    179. A(N  15,C  14,O  44)          121.3434         0.463342   
    180. A(C  13,C  14,O  44)          123.4757         0.427038   
    181. A(C  14,N  15,H  62)          118.2684         0.354098   
    182. A(C  16,N  15,H  62)          119.5512         0.337940   
    183. A(C  14,N  15,C  16)          120.6934         0.399849   
    184. A(H  63,C  16,H  64)          107.3926         0.288233   
    185. A(C  17,C  16,H  64)          108.7010         0.316807   
    186. A(N  15,C  16,H  63)          107.1076         0.330238   
    187. A(C  17,C  16,H  63)          111.1778         0.316960   
    188. A(N  15,C  16,C  17)          112.7557         0.364836   
    189. A(N  15,C  16,H  64)          109.5606         0.330076   
    190. A(O  43,C  17,H  65)          107.8231         0.332553   
    191. A(C  18,C  17,H  65)          107.9956         0.319344   
    192. A(C  16,C  17,H  65)          107.2138         0.315421   
    193. A(C  16,C  17,C  18)          111.9885         0.354170   
    194. A(C  18,C  17,O  43)          109.2800         0.374234   
    195. A(C  16,C  17,O  43)          112.3428         0.369376   
    196. A(C  19,C  18,H  66)          106.5651         0.317520   
    197. A(C  17,C  18,H  66)          108.6809         0.319835   
    198. A(C  17,C  18,C  32)          113.5908         0.357713   
    199. A(C  17,C  18,C  19)          114.5955         0.356059   
    200. A(C  19,C  18,C  32)          107.9729         0.355018   
    201. A(C  32,C  18,H  66)          104.7589         0.318935   
    202. A(C  18,C  19,N  20)          116.3823         0.389511   
    203. A(N  20,C  19,O  31)          123.1550         0.468392   
    204. A(C  18,C  19,O  31)          120.4581         0.422777   
    205. A(C  19,N  20,H  67)          122.0733         0.355983   
    206. A(C  19,N  20,C  21)          122.4383         0.403172   
    207. A(C  21,N  20,H  67)          114.1229         0.334561   
    208. A(C  27,C  21,H  68)          110.0506         0.320811   
    209. A(C  22,C  21,H  68)          105.2995         0.319579   
    210. A(N  20,C  21,H  68)          105.8069         0.328075   
    211. A(N  20,C  21,C  22)          110.9073         0.367696   
    212. A(C  22,C  21,C  27)          115.0192         0.359228   
    213. A(N  20,C  21,C  27)          109.3042         0.369185   
    214. A(C  21,C  22,N  23)          115.1122         0.392352   
    215. A(C  21,C  22,O  26)          122.7268         0.423480   
    216. A(N  23,C  22,O  26)          121.9875         0.466486   
    217. A(C  22,N  23,C  24)          120.6697         0.405592   
    218. A(C  24,N  23,H  69)          118.4083         0.336849   
    219. A(C  22,N  23,H  69)          120.1811         0.357018   
    220. A(C  25,C  24,H  70)          109.7107         0.323178   
    221. A(N  23,C  24,H  70)          107.0182         0.330676   
    222. A(C   7,C  24,H  70)          109.9700         0.321821   
    223. A(N  23,C  24,C  25)          110.4629         0.372685   
    224. A(C   7,C  24,N  23)          111.0114         0.371040   
    225. A(C   7,C  24,C  25)          108.6569         0.362291   
    226. A(H  71,C  25,H  73)          108.9563         0.288514   
    227. A(C  24,C  25,H  73)          110.5453         0.323089   
    228. A(H  71,C  25,H  72)          108.6291         0.288372   
    229. A(C  24,C  25,H  72)          110.2559         0.322923   
    230. A(C  24,C  25,H  71)          110.0485         0.323284   
    231. A(H  72,C  25,H  73)          108.3557         0.288206   
    232. A(C  28,C  27,H  75)          108.1624         0.320229   
    233. A(C  21,C  27,C  28)          117.7076         0.360323   
    234. A(H  74,C  27,H  75)          106.4751         0.286834   
    235. A(C  21,C  27,H  75)          105.6035         0.320527   
    236. A(C  28,C  27,H  74)          109.5810         0.320838   
    237. A(C  21,C  27,H  74)          108.7029         0.321137   
    238. A(C  29,C  28,C  30)          110.7555         0.362506   
    239. A(C  27,C  28,C  30)          112.4245         0.361533   
    240. A(C  27,C  28,C  29)          108.8097         0.360940   
    241. A(C  30,C  28,H  76)          107.9117         0.322507   
    242. A(C  29,C  28,H  76)          108.8485         0.321999   
    243. A(C  27,C  28,H  76)          107.9931         0.321170   
    244. A(C  28,C  29,H  79)          110.7723         0.321333   
    245. A(H  78,C  29,H  79)          107.6855         0.287182   
    246. A(H  77,C  29,H  79)          107.6870         0.287230   
    247. A(H  77,C  29,H  78)          107.9663         0.287623   
    248. A(C  28,C  29,H  78)          111.0677         0.321794   
    249. A(C  28,C  29,H  77)          111.4998         0.321851   
    250. A(H  81,C  30,H  82)          107.6398         0.287177   
    251. A(H  80,C  30,H  82)          107.2792         0.287903   
    252. A(C  28,C  30,H  82)          110.6637         0.322284   
    253. A(H  80,C  30,H  81)          108.0486         0.287535   
    254. A(C  28,C  30,H  81)          111.3252         0.321852   
    255. A(C  28,C  30,H  80)          111.6968         0.322706   
    256. A(C  33,C  32,O  42)          121.0146         0.434822   
    257. A(C  18,C  32,O  42)          119.0886         0.429047   
    258. A(C  18,C  32,C  33)          119.8407         0.361211   
    259. A(C  32,C  33,C  34)          113.1177         0.361418   
    260. A(C  34,C  33,H  84)          109.5009         0.319948   
    261. A(H  83,C  33,H  84)          107.9174         0.287367   
    262. A(C  32,C  33,H  84)          111.8222         0.323692   
    263. A(C  34,C  33,H  83)          109.2713         0.319254   
    264. A(C  32,C  33,H  83)          104.9766         0.322987   
    265. A(C  33,C  34,C  35)          112.2543         0.360539   
    266. A(H  85,C  34,H  86)          106.6523         0.287068   
    267. A(C  35,C  34,H  86)          109.5148         0.322319   
    268. A(C  33,C  34,H  86)          108.8730         0.319341   
    269. A(C  35,C  34,H  85)          110.5910         0.322494   
    270. A(C  33,C  34,H  85)          108.7830         0.319514   
    271. A(C  34,C  35,C  36)          113.4502         0.364198   
    272. A(H  87,C  35,H  88)          106.7685         0.286788   
    273. A(C  36,C  35,H  88)          109.6138         0.322893   
    274. A(C  34,C  35,H  88)          108.6563         0.322767   
    275. A(C  36,C  35,H  87)          109.3756         0.321843   
    276. A(C  34,C  35,H  87)          108.7557         0.321717   
    277. A(C  35,C  36,C  37)          113.4560         0.362592   
    278. A(H  89,C  36,H  90)          105.9483         0.286535   
    279. A(C  37,C  36,H  90)          108.9605         0.320626   
    280. A(C  35,C  36,H  90)          109.6390         0.322111   
    281. A(C  37,C  36,H  89)          109.5981         0.320837   
    282. A(C  35,C  36,H  89)          108.9666         0.322324   
    283. A(C  36,C  37,C  38)          114.7214         0.360732   
    284. A(H  91,C  37,H  92)          105.9778         0.286266   
    285. A(C  38,C  37,H  92)          109.1104         0.320359   
    286. A(C  36,C  37,H  92)          109.0622         0.320459   
    287. A(C  38,C  37,H  91)          108.8032         0.320589   
    288. A(C  36,C  37,H  91)          108.8060         0.320689   
    289. A(C  37,C  38,C  39)          114.1159         0.362130   
    290. A(H  93,C  38,H  94)          105.9632         0.286373   
    291. A(C  39,C  38,H  94)          108.1744         0.321899   
    292. A(C  37,C  38,H  94)          110.2286         0.320607   
    293. A(C  39,C  38,H  93)          109.3863         0.321759   
    294. A(C  37,C  38,H  93)          108.6573         0.320467   
    295. A(C  38,C  39,C  40)          112.9964         0.363749   
    296. A(H  95,C  39,H  96)          106.5714         0.286420   
    297. A(C  40,C  39,H  96)          109.3770         0.321598   
    298. A(C  38,C  39,H  96)          109.6666         0.321517   
    299. A(C  40,C  39,H  95)          108.4479         0.322278   
    300. A(C  38,C  39,H  95)          109.5719         0.322197   
    301. A(C  39,C  40,C  41)          112.8107         0.363930   
    302. A(H  97,C  40,H  98)          105.7986         0.286367   
    303. A(C  41,C  40,H  98)          109.7492         0.322017   
    304. A(C  39,C  40,H  98)          108.6014         0.321944   
    305. A(C  41,C  40,H  97)          110.0725         0.321940   
    306. A(C  39,C  40,H  97)          109.5581         0.321868   
    307. A(H 100,C  41,H 101)          107.6332         0.287350   
    308. A(H  99,C  41,H 101)          107.8770         0.287676   
    309. A(C  40,C  41,H 101)          110.6362         0.322640   
    310. A(H  99,C  41,H 100)          107.7301         0.287537   
    311. A(C  40,C  41,H 100)          110.9529         0.322476   
    312. A(C  40,C  41,H  99)          111.8420         0.322860   
    313. A(C  17,O  43,H 102)          107.5747         0.349681   
    314. A(C  13,C  45,C  46)          114.4981         0.359571   
    315. A(C  46,C  45,H 104)          109.4130         0.322509   
    316. A(C  13,C  45,H 104)          105.7050         0.319157   
    317. A(C  46,C  45,H 103)          111.3085         0.323272   
    318. A(C  13,C  45,H 103)          109.3768         0.319908   
    319. A(H 103,C  45,H 104)          106.0581         0.288279   
    320. A(H 106,C  46,H 107)          108.6331         0.287007   
    321. A(H 105,C  46,H 107)          107.0053         0.287281   
    322. A(C  45,C  46,H 107)          111.9467         0.321859   
    323. A(H 105,C  46,H 106)          106.3942         0.287764   
    324. A(C  45,C  46,H 106)          112.4972         0.322426   
    325. A(C  45,C  46,H 105)          110.0687         0.322749   
    326. A(C  50,C  48,H 108)          108.1199         0.322371   
    327. A(C  49,C  48,H 108)          109.2474         0.322221   
    328. A(C  10,C  48,H 108)          105.0114         0.320621   
    329. A(C  49,C  48,C  50)          111.8390         0.363342   
    330. A(C  10,C  48,C  50)          111.7213         0.361459   
    331. A(C  10,C  48,C  49)          110.6180         0.361285   
    332. A(H 110,C  49,H 111)          107.6064         0.287491   
    333. A(H 109,C  49,H 111)          108.1869         0.287693   
    334. A(C  48,C  49,H 111)          110.6148         0.322448   
    335. A(H 109,C  49,H 110)          107.7315         0.287407   
    336. A(C  48,C  49,H 110)          110.9959         0.322111   
    337. A(C  48,C  49,H 109)          111.5523         0.322349   
    338. A(H 113,C  50,H 114)          107.0330         0.287588   
    339. A(H 112,C  50,H 114)          107.9770         0.287624   
    340. A(C  48,C  50,H 114)          112.3374         0.322265   
    341. A(H 112,C  50,H 113)          107.9528         0.288001   
    342. A(C  48,C  50,H 113)          110.4650         0.322708   
    343. A(C  48,C  50,H 112)          110.8895         0.322751   
    344. D(H  51,C   2,C   1,N   9)   -128.6169         0.010024   
    345. D(C   3,C   2,C   1,N   9)    109.0936         0.010024   
    346. D(N   6,C   2,C   1,N   9)     -7.8914         0.010024   
    347. D(N   6,C   2,C   1,O   0)    171.8083         0.010024   
    348. D(C   3,C   2,C   1,O   0)    -71.2066         0.010024   
    349. D(H  51,C   2,C   1,O   0)     51.0828         0.010024   
    350. D(C   4,C   3,C   2,N   6)     31.9011         0.010488   
    351. D(H  53,C   3,C   2,H  51)    -87.2124         0.010488   
    352. D(H  53,C   3,C   2,C   1)     30.4675         0.010488   
    353. D(C   4,C   3,C   2,H  51)    150.0764         0.010488   
    354. D(H  53,C   3,C   2,N   6)    154.6123         0.010488   
    355. D(H  52,C   3,C   2,H  51)     32.4927         0.010488   
    356. D(C   4,C   3,C   2,C   1)    -92.2438         0.010488   
    357. D(H  52,C   3,C   2,C   1)    150.1726         0.010488   
    358. D(H  52,C   3,C   2,N   6)    -85.6826         0.010488   
    359. D(H  55,C   4,C   3,H  53)     77.9364         0.010792   
    360. D(H  55,C   4,C   3,H  52)    -44.4502         0.010792   
    361. D(H  54,C   4,C   3,H  52)   -165.5568         0.010792   
    362. D(H  55,C   4,C   3,C   2)   -161.4633         0.010792   
    363. D(H  54,C   4,C   3,H  53)    -43.1702         0.010792   
    364. D(C   5,C   4,C   3,C   2)    -39.8960         0.010792   
    365. D(H  54,C   4,C   3,C   2)     77.4301         0.010792   
    366. D(C   5,C   4,C   3,H  53)   -160.4963         0.010792   
    367. D(C   5,C   4,C   3,H  52)     77.1170         0.010792   
    368. D(N   6,C   5,C   4,C   3)     31.9540         0.011002   
    369. D(H  57,C   5,C   4,C   3)    -85.9400         0.011002   
    370. D(H  56,C   5,C   4,H  55)    -87.0869         0.011002   
    371. D(H  56,C   5,C   4,C   3)    150.4868         0.011002   
    372. D(H  57,C   5,C   4,H  54)    156.5655         0.011002   
    373. D(H  56,C   5,C   4,H  54)     32.9922         0.011002   
    374. D(H  57,C   5,C   4,H  55)     36.4864         0.011002   
    375. D(N   6,C   5,C   4,H  54)    -85.5406         0.011002   
    376. D(N   6,C   5,C   4,H  55)    154.3803         0.011002   
    377. D(C   5,N   6,C   2,C   3)    -12.3876         0.014692   
    378. D(C   7,N   6,C   5,H  57)    -72.2345         0.013620   
    379. D(C   7,N   6,C   5,H  56)     48.2059         0.013620   
    380. D(C   7,N   6,C   5,C   4)    169.4680         0.013620   
    381. D(C   2,N   6,C   5,H  57)    106.0149         0.013620   
    382. D(C   2,N   6,C   5,H  56)   -133.5448         0.013620   
    383. D(C   7,N   6,C   2,H  51)     45.6080         0.014692   
    384. D(C   2,N   6,C   5,C   4)    -12.2827         0.013620   
    385. D(C   7,N   6,C   2,C   3)    165.9699         0.014692   
    386. D(C   5,N   6,C   2,C   1)    109.0674         0.014692   
    387. D(C   7,N   6,C   2,C   1)    -72.5751         0.014692   
    388. D(C   5,N   6,C   2,H  51)   -132.7494         0.014692   
    389. D(C  24,C   7,N   6,C   5)      9.0006         0.032790   
    390. D(C  24,C   7,N   6,C   2)   -169.1042         0.032790   
    391. D(O   8,C   7,N   6,C   5)   -173.5786         0.032790   
    392. D(O   8,C   7,N   6,C   2)      8.3166         0.032790   
    393. D(H  58,N   9,C   1,O   0)   -178.9083         0.031452   
    394. D(C  10,N   9,C   1,C   2)    171.4223         0.031452   
    395. D(H  58,N   9,C   1,C   2)      0.7751         0.031452   
    396. D(C  10,N   9,C   1,O   0)     -8.2611         0.031452   
    397. D(H  59,C  10,N   9,C   1)     14.9568         0.016888   
    398. D(C  48,C  10,N   9,H  58)    -55.8714         0.016888   
    399. D(C  48,C  10,N   9,C   1)    133.4955         0.016888   
    400. D(C  11,C  10,N   9,C   1)    -99.1352         0.016888   
    401. D(H  59,C  10,N   9,H  58)   -174.4101         0.016888   
    402. D(C  11,C  10,N   9,H  58)     71.4979         0.016888   
    403. D(O  47,C  11,C  10,N   9)   -164.5552         0.009199   
    404. D(N  12,C  11,C  10,H  59)    -94.2529         0.009199   
    405. D(N  12,C  11,C  10,C  48)    147.5313         0.009199   
    406. D(N  12,C  11,C  10,N   9)     19.6970         0.009199   
    407. D(O  47,C  11,C  10,H  59)     81.4950         0.009199   
    408. D(O  47,C  11,C  10,C  48)    -36.7209         0.009199   
    409. D(H  60,N  12,C  11,O  47)    168.4006         0.030417   
    410. D(H  60,N  12,C  11,C  10)    -16.0820         0.030417   
    411. D(C  13,N  12,C  11,O  47)      7.4976         0.030417   
    412. D(C  13,N  12,C  11,C  10)   -176.9850         0.030417   
    413. D(H  61,C  13,N  12,C  11)   -162.0312         0.017478   
    414. D(H  61,C  13,N  12,H  60)     36.4142         0.017478   
    415. D(C  45,C  13,N  12,H  60)    153.8729         0.017478   
    416. D(C  45,C  13,N  12,C  11)    -44.5725         0.017478   
    417. D(C  14,C  13,N  12,C  11)     83.6321         0.017478   
    418. D(C  14,C  13,N  12,H  60)    -77.9225         0.017478   
    419. D(O  44,C  14,C  13,C  45)    106.1449         0.009766   
    420. D(O  44,C  14,C  13,N  12)    -22.2138         0.009766   
    421. D(N  15,C  14,C  13,H  61)     41.7813         0.009766   
    422. D(N  15,C  14,C  13,C  45)    -75.9842         0.009766   
    423. D(O  44,C  14,C  13,H  61)   -136.0896         0.009766   
    424. D(N  15,C  14,C  13,N  12)    155.6571         0.009766   
    425. D(H  62,N  15,C  14,O  44)   -172.8018         0.027647   
    426. D(H  62,N  15,C  14,C  13)      9.2776         0.027647   
    427. D(C  16,N  15,C  14,O  44)     -6.7743         0.027647   
    428. D(C  16,N  15,C  14,C  13)    175.3051         0.027647   
    429. D(H  64,C  16,N  15,H  62)     27.0507         0.016839   
    430. D(H  64,C  16,N  15,C  14)   -138.7993         0.016839   
    431. D(H  63,C  16,N  15,H  62)    143.2356         0.016839   
    432. D(H  63,C  16,N  15,C  14)    -22.6144         0.016839   
    433. D(C  17,C  16,N  15,C  14)    100.0008         0.016839   
    434. D(C  17,C  16,N  15,H  62)    -94.1492         0.016839   
    435. D(H  65,C  17,C  16,H  64)    -26.9825         0.009044   
    436. D(H  65,C  17,C  16,H  63)   -144.9896         0.009044   
    437. D(H  65,C  17,C  16,N  15)     94.7050         0.009044   
    438. D(O  43,C  17,C  16,H  64)   -145.2622         0.009044   
    439. D(O  43,C  17,C  16,H  63)     96.7307         0.009044   
    440. D(O  43,C  17,C  16,N  15)    -23.5747         0.009044   
    441. D(C  18,C  17,C  16,H  64)     91.3055         0.009044   
    442. D(C  18,C  17,C  16,H  63)    -26.7015         0.009044   
    443. D(C  18,C  17,C  16,N  15)   -147.0070         0.009044   
    444. D(H  66,C  18,C  17,H  65)     89.1370         0.010393   
    445. D(H  66,C  18,C  17,O  43)   -153.8256         0.010393   
    446. D(H  66,C  18,C  17,C  16)    -28.6856         0.010393   
    447. D(C  32,C  18,C  17,O  43)     90.0007         0.010393   
    448. D(C  32,C  18,C  17,C  16)   -144.8593         0.010393   
    449. D(C  32,C  18,C  17,H  65)    -27.0367         0.010393   
    450. D(C  19,C  18,C  17,H  65)   -151.8008         0.010393   
    451. D(C  19,C  18,C  17,O  43)    -34.7635         0.010393   
    452. D(C  19,C  18,C  17,C  16)     90.3765         0.010393   
    453. D(O  31,C  19,C  18,H  66)   -104.6275         0.008982   
    454. D(O  31,C  19,C  18,C  32)      7.4530         0.008982   
    455. D(O  31,C  19,C  18,C  17)    135.1296         0.008982   
    456. D(N  20,C  19,C  18,H  66)     74.6205         0.008982   
    457. D(N  20,C  19,C  18,C  17)    -45.6223         0.008982   
    458. D(N  20,C  19,C  18,C  32)   -173.2990         0.008982   
    459. D(H  67,N  20,C  19,O  31)   -172.9930         0.032087   
    460. D(H  67,N  20,C  19,C  18)      7.7812         0.032087   
    461. D(C  21,N  20,C  19,O  31)     -7.1216         0.032087   
    462. D(C  21,N  20,C  19,C  18)    173.6526         0.032087   
    463. D(H  68,C  21,N  20,H  67)   -175.9063         0.016098   
    464. D(H  68,C  21,N  20,C  19)     17.1926         0.016098   
    465. D(C  27,C  21,N  20,H  67)    -57.4352         0.016098   
    466. D(C  27,C  21,N  20,C  19)    135.6637         0.016098   
    467. D(C  22,C  21,N  20,H  67)     70.4084         0.016098   
    468. D(C  22,C  21,N  20,C  19)    -96.4926         0.016098   
    469. D(N  23,C  22,C  21,C  27)    150.0269         0.009600   
    470. D(N  23,C  22,C  21,N  20)     25.3591         0.009600   
    471. D(O  26,C  22,C  21,H  68)     86.6492         0.009600   
    472. D(O  26,C  22,C  21,C  27)    -34.6782         0.009600   
    473. D(O  26,C  22,C  21,N  20)   -159.3460         0.009600   
    474. D(N  23,C  22,C  21,H  68)    -88.6456         0.009600   
    475. D(H  69,N  23,C  22,O  26)    167.0012         0.032437   
    476. D(H  69,N  23,C  22,C  21)    -17.6656         0.032437   
    477. D(C  24,N  23,C  22,O  26)     -2.9815         0.032437   
    478. D(C  24,N  23,C  22,C  21)    172.3517         0.032437   
    479. D(H  70,C  24,N  23,H  69)    144.7173         0.017063   
    480. D(H  70,C  24,N  23,C  22)    -45.1258         0.017063   
    481. D(C  25,C  24,N  23,H  69)     25.3318         0.017063   
    482. D(C  25,C  24,N  23,C  22)   -164.5114         0.017063   
    483. D(C   7,C  24,N  23,H  69)    -95.2714         0.017063   
    484. D(C   7,C  24,N  23,C  22)     74.8855         0.017063   
    485. D(H  70,C  24,C   7,O   8)    176.4956         0.010030   
    486. D(H  70,C  24,C   7,N   6)     -6.0332         0.010030   
    487. D(C  25,C  24,C   7,O   8)    -63.4089         0.010030   
    488. D(C  25,C  24,C   7,N   6)    114.0623         0.010030   
    489. D(N  23,C  24,C   7,O   8)     58.2565         0.010030   
    490. D(N  23,C  24,C   7,N   6)   -124.2723         0.010030   
    491. D(H  73,C  25,C  24,H  70)    179.7919         0.011234   
    492. D(H  73,C  25,C  24,N  23)    -62.4645         0.011234   
    493. D(H  73,C  25,C  24,C   7)     59.5355         0.011234   
    494. D(H  72,C  25,C  24,H  70)     60.0044         0.011234   
    495. D(H  72,C  25,C  24,N  23)    177.7480         0.011234   
    496. D(H  72,C  25,C  24,C   7)    -60.2520         0.011234   
    497. D(H  71,C  25,C  24,H  70)    -59.8063         0.011234   
    498. D(H  71,C  25,C  24,N  23)     57.9373         0.011234   
    499. D(H  71,C  25,C  24,C   7)    179.9373         0.011234   
    500. D(H  75,C  27,C  21,H  68)     67.5674         0.010699   
    501. D(H  75,C  27,C  21,C  22)   -173.7267         0.010699   
    502. D(H  75,C  27,C  21,N  20)    -48.2234         0.010699   
    503. D(H  74,C  27,C  21,H  68)   -178.5157         0.010699   
    504. D(H  74,C  27,C  21,C  22)    -59.8098         0.010699   
    505. D(H  74,C  27,C  21,N  20)     65.6935         0.010699   
    506. D(C  28,C  27,C  21,H  68)    -53.2448         0.010699   
    507. D(C  28,C  27,C  21,C  22)     65.4611         0.010699   
    508. D(C  28,C  27,C  21,N  20)   -169.0356         0.010699   
    509. D(H  76,C  28,C  27,H  75)    172.1892         0.010586   
    510. D(H  76,C  28,C  27,H  74)     56.5004         0.010586   
    511. D(H  76,C  28,C  27,C  21)    -68.3362         0.010586   
    512. D(C  30,C  28,C  27,H  75)    -68.8738         0.010586   
    513. D(C  30,C  28,C  27,H  74)    175.4374         0.010586   
    514. D(C  30,C  28,C  27,C  21)     50.6008         0.010586   
    515. D(C  29,C  28,C  27,H  75)     54.1892         0.010586   
    516. D(C  29,C  28,C  27,H  74)    -61.4996         0.010586   
    517. D(C  29,C  28,C  27,C  21)    173.6639         0.010586   
    518. D(H  79,C  29,C  28,C  30)     58.6766         0.010902   
    519. D(H  79,C  29,C  28,C  27)    -65.3821         0.010902   
    520. D(H  78,C  29,C  28,H  76)     57.5360         0.010902   
    521. D(H  78,C  29,C  28,C  30)    -60.9473         0.010902   
    522. D(H  78,C  29,C  28,C  27)    174.9940         0.010902   
    523. D(H  77,C  29,C  28,H  76)    -62.9291         0.010902   
    524. D(H  77,C  29,C  28,C  30)    178.5875         0.010902   
    525. D(H  79,C  29,C  28,H  76)    177.1599         0.010902   
    526. D(H  77,C  29,C  28,C  27)     54.5289         0.010902   
    527. D(H  82,C  30,C  28,H  76)    -67.2027         0.011101   
    528. D(H  82,C  30,C  28,C  29)     51.8476         0.011101   
    529. D(H  82,C  30,C  28,C  27)    173.8126         0.011101   
    530. D(H  81,C  30,C  28,H  76)    173.1338         0.011101   
    531. D(H  81,C  30,C  28,C  29)    -67.8159         0.011101   
    532. D(H  81,C  30,C  28,C  27)     54.1491         0.011101   
    533. D(H  80,C  30,C  28,H  76)     52.2507         0.011101   
    534. D(H  80,C  30,C  28,C  29)    171.3010         0.011101   
    535. D(H  80,C  30,C  28,C  27)    -66.7340         0.011101   
    536. D(O  42,C  32,C  18,H  66)     24.4757         0.009438   
    537. D(O  42,C  32,C  18,C  19)    -88.8162         0.009438   
    538. D(O  42,C  32,C  18,C  17)    142.9313         0.009438   
    539. D(C  33,C  32,C  18,H  66)   -152.8287         0.009438   
    540. D(C  33,C  32,C  18,C  19)     93.8793         0.009438   
    541. D(C  33,C  32,C  18,C  17)    -34.3731         0.009438   
    542. D(H  84,C  33,C  32,O  42)   -173.2866         0.010833   
    543. D(H  84,C  33,C  32,C  18)      3.9649         0.010833   
    544. D(H  83,C  33,C  32,O  42)    -56.5324         0.010833   
    545. D(H  83,C  33,C  32,C  18)    120.7190         0.010833   
    546. D(C  34,C  33,C  32,O  42)     62.5244         0.010833   
    547. D(C  34,C  33,C  32,C  18)   -120.2241         0.010833   
    548. D(H  86,C  34,C  33,H  84)     85.2112         0.010129   
    549. D(H  86,C  34,C  33,H  83)    -32.7944         0.010129   
    550. D(H  86,C  34,C  33,C  32)   -149.3411         0.010129   
    551. D(H  85,C  34,C  33,H  84)   -158.9308         0.010129   
    552. D(H  85,C  34,C  33,H  83)     83.0636         0.010129   
    553. D(H  85,C  34,C  33,C  32)    -33.4831         0.010129   
    554. D(C  35,C  34,C  33,H  84)    -36.2102         0.010129   
    555. D(C  35,C  34,C  33,H  83)   -154.2158         0.010129   
    556. D(C  35,C  34,C  33,C  32)     89.2376         0.010129   
    557. D(H  88,C  35,C  34,H  86)   -175.9343         0.011262   
    558. D(H  88,C  35,C  34,H  85)     66.8123         0.011262   
    559. D(H  88,C  35,C  34,C  33)    -54.8813         0.011262   
    560. D(H  87,C  35,C  34,H  86)    -60.0707         0.011262   
    561. D(H  87,C  35,C  34,H  85)   -177.3241         0.011262   
    562. D(H  87,C  35,C  34,C  33)     60.9822         0.011262   
    563. D(C  36,C  35,C  34,H  86)     61.8811         0.011262   
    564. D(C  36,C  35,C  34,H  85)    -55.3724         0.011262   
    565. D(C  36,C  35,C  34,C  33)   -177.0660         0.011262   
    566. D(H  90,C  36,C  35,H  87)     64.7617         0.011313   
    567. D(H  90,C  36,C  35,C  34)    -56.8442         0.011313   
    568. D(H  89,C  36,C  35,H  88)    -62.9562         0.011313   
    569. D(H  89,C  36,C  35,H  87)   -179.6990         0.011313   
    570. D(H  89,C  36,C  35,C  34)     58.6951         0.011313   
    571. D(C  37,C  36,C  35,H  88)     59.4383         0.011313   
    572. D(C  37,C  36,C  35,H  87)    -57.3045         0.011313   
    573. D(H  90,C  36,C  35,H  88)   -178.4955         0.011313   
    574. D(C  37,C  36,C  35,C  34)   -178.9104         0.011313   
    575. D(H  92,C  37,C  36,H  90)    -57.6065         0.010728   
    576. D(H  92,C  37,C  36,H  89)   -173.1199         0.010728   
    577. D(H  92,C  37,C  36,C  35)     64.8362         0.010728   
    578. D(H  91,C  37,C  36,H  90)     57.5652         0.010728   
    579. D(H  91,C  37,C  36,H  89)    -57.9481         0.010728   
    580. D(H  91,C  37,C  36,C  35)   -179.9921         0.010728   
    581. D(C  38,C  37,C  36,H  90)    179.6813         0.010728   
    582. D(C  38,C  37,C  36,H  89)     64.1679         0.010728   
    583. D(C  38,C  37,C  36,C  35)    -57.8760         0.010728   
    584. D(H  94,C  38,C  37,H  92)    -55.8239         0.010690   
    585. D(H  94,C  38,C  37,H  91)   -171.0201         0.010690   
    586. D(H  94,C  38,C  37,C  36)     66.8623         0.010690   
    587. D(H  93,C  38,C  37,H  92)     59.8836         0.010690   
    588. D(H  93,C  38,C  37,H  91)    -55.3126         0.010690   
    589. D(H  93,C  38,C  37,C  36)   -177.4301         0.010690   
    590. D(C  39,C  38,C  37,H  92)   -177.7726         0.010690   
    591. D(C  39,C  38,C  37,H  91)     67.0312         0.010690   
    592. D(C  39,C  38,C  37,C  36)    -55.0863         0.010690   
    593. D(H  95,C  39,C  38,H  94)    -56.8569         0.011195   
    594. D(H  95,C  39,C  38,H  93)   -171.8417         0.011195   
    595. D(H  95,C  39,C  38,C  37)     66.2144         0.011195   
    596. D(C  40,C  39,C  38,H  94)     64.1893         0.011195   
    597. D(C  40,C  39,C  38,H  93)    -50.7956         0.011195   
    598. D(C  40,C  39,C  38,C  37)   -172.7394         0.011195   
    599. D(H  96,C  39,C  38,H  94)   -173.5054         0.011195   
    600. D(H  96,C  39,C  38,H  93)     71.5097         0.011195   
    601. D(H  96,C  39,C  38,C  37)    -50.4341         0.011195   
    602. D(H  98,C  40,C  39,H  95)     68.8923         0.011227   
    603. D(H  98,C  40,C  39,C  38)    -52.7892         0.011227   
    604. D(H  97,C  40,C  39,H  96)    -60.1425         0.011227   
    605. D(H  97,C  40,C  39,H  95)   -175.9938         0.011227   
    606. D(H  97,C  40,C  39,C  38)     62.3247         0.011227   
    607. D(C  41,C  40,C  39,H  96)     62.8509         0.011227   
    608. D(C  41,C  40,C  39,H  95)    -53.0004         0.011227   
    609. D(H  98,C  40,C  39,H  96)   -175.2564         0.011227   
    610. D(C  41,C  40,C  39,C  38)   -174.6819         0.011227   
    611. D(H 101,C  41,C  40,H  98)    -59.9733         0.011256   
    612. D(H 101,C  41,C  40,H  97)   -176.0240         0.011256   
    613. D(H 101,C  41,C  40,C  39)     61.2697         0.011256   
    614. D(H 100,C  41,C  40,H  98)   -179.3677         0.011256   
    615. D(H 100,C  41,C  40,H  97)     64.5817         0.011256   
    616. D(H 100,C  41,C  40,C  39)    -58.1246         0.011256   
    617. D(H  99,C  41,C  40,H  98)     60.3142         0.011256   
    618. D(H  99,C  41,C  40,H  97)    -55.7365         0.011256   
    619. D(H  99,C  41,C  40,C  39)   -178.4428         0.011256   
    620. D(H 102,O  43,C  17,H  65)    -89.1384         0.017989   
    621. D(H 102,O  43,C  17,C  18)    153.7153         0.017989   
    622. D(H 102,O  43,C  17,C  16)     28.7811         0.017989   
    623. D(H 104,C  45,C  13,H  61)     73.5117         0.009917   
    624. D(H 104,C  45,C  13,C  14)   -169.3126         0.009917   
    625. D(H 104,C  45,C  13,N  12)    -42.9386         0.009917   
    626. D(H 103,C  45,C  13,H  61)   -172.6922         0.009917   
    627. D(H 103,C  45,C  13,C  14)    -55.5165         0.009917   
    628. D(H 103,C  45,C  13,N  12)     70.8576         0.009917   
    629. D(C  46,C  45,C  13,H  61)    -46.9893         0.009917   
    630. D(C  46,C  45,C  13,C  14)     70.1864         0.009917   
    631. D(C  46,C  45,C  13,N  12)   -163.4395         0.009917   
    632. D(H 107,C  46,C  45,H 104)    -67.8764         0.011171   
    633. D(H 107,C  46,C  45,H 103)    175.2343         0.011171   
    634. D(H 107,C  46,C  45,C  13)     50.5469         0.011171   
    635. D(H 106,C  46,C  45,H 104)    169.4585         0.011171   
    636. D(H 106,C  46,C  45,H 103)     52.5693         0.011171   
    637. D(H 106,C  46,C  45,C  13)    -72.1181         0.011171   
    638. D(H 105,C  46,C  45,H 104)     50.9985         0.011171   
    639. D(H 105,C  46,C  45,H 103)    -65.8907         0.011171   
    640. D(H 105,C  46,C  45,C  13)    169.4219         0.011171   
    641. D(H 108,C  48,C  10,H  59)    -64.4855         0.010497   
    642. D(H 108,C  48,C  10,C  11)     51.4277         0.010497   
    643. D(H 108,C  48,C  10,N   9)    179.3740         0.010497   
    644. D(C  50,C  48,C  10,H  59)    178.5502         0.010497   
    645. D(C  50,C  48,C  10,C  11)    -65.5367         0.010497   
    646. D(C  50,C  48,C  10,N   9)     62.4096         0.010497   
    647. D(C  49,C  48,C  10,H  59)     53.2599         0.010497   
    648. D(C  49,C  48,C  10,C  11)    169.1730         0.010497   
    649. D(C  49,C  48,C  10,N   9)    -62.8807         0.010497   
    650. D(H 111,C  49,C  48,C  50)     58.1332         0.011112   
    651. D(H 111,C  49,C  48,C  10)   -176.6431         0.011112   
    652. D(H 110,C  49,C  48,H 108)    179.1005         0.011112   
    653. D(H 110,C  49,C  48,C  50)    -61.2416         0.011112   
    654. D(H 110,C  49,C  48,C  10)     63.9822         0.011112   
    655. D(H 109,C  49,C  48,H 108)     58.9469         0.011112   
    656. D(H 109,C  49,C  48,C  50)    178.6049         0.011112   
    657. D(H 111,C  49,C  48,H 108)    -61.5248         0.011112   
    658. D(H 109,C  49,C  48,C  10)    -56.1714         0.011112   
    659. D(H 114,C  50,C  48,H 108)   -178.6208         0.011172   
    660. D(H 114,C  50,C  48,C  49)     61.0606         0.011172   
    661. D(H 114,C  50,C  48,C  10)    -63.5511         0.011172   
    662. D(H 113,C  50,C  48,H 108)     61.9492         0.011172   
    663. D(H 113,C  50,C  48,C  49)    -58.3694         0.011172   
    664. D(H 113,C  50,C  48,C  10)    177.0189         0.011172   
    665. D(H 112,C  50,C  48,H 108)    -57.6923         0.011172   
    666. D(H 112,C  50,C  48,C  49)   -178.0110         0.011172   
    667. D(H 112,C  50,C  48,C  10)     57.3774         0.011172   
    -----------------------------------------------------------------

Number of atoms                         .... 115
Number of degrees of freedom            .... 667

         *************************************************************
         *                GEOMETRY OPTIMIZATION CYCLE   1            *
         *************************************************************
---------------------------------
CARTESIAN COORDINATES (ANGSTROEM)
---------------------------------
  O      5.966543    0.298988    2.347938
  C      4.770536    0.540424    2.192107
  C      4.341417    1.934866    1.712090
  C      4.544872    2.990434    2.813147
  C      3.183398    3.011240    3.521031
  C      2.184317    2.897193    2.365441
  N      2.915685    2.072052    1.375493
  C      2.402354    1.511845    0.252930
  O      3.060879    0.735336   -0.464156
  N      3.773314   -0.358890    2.412370
  C      4.052287   -1.757106    2.689106
  C      3.895284   -2.657683    1.439033
  N      3.948169   -1.986375    0.251678
  C      3.767403   -2.579944   -1.056377
  C      2.265692   -2.684440   -1.380145
  N      1.957721   -2.724352   -2.721815
  C      0.587945   -2.924264   -3.162610
  C     -0.112882   -1.593041   -3.578275
  C     -1.620057   -1.611600   -3.261883
  C     -1.991311   -1.073718   -1.853915
  N     -1.234389   -1.520326   -0.818299
  C     -1.377795   -1.000214    0.537128
  C     -0.334901    0.100965    0.817299
  N      0.120916    0.755164   -0.280627
  C      0.976463    1.919389   -0.146450
  C      1.039490    2.691132   -1.464695
  O     -0.000828    0.431265    1.964236
  C     -1.371325   -2.169496    1.532985
  C     -1.766910   -1.871122    2.988401
  C     -1.845469   -3.193450    3.760333
  C     -3.088101   -1.105024    3.089002
  O     -2.935959   -0.295751   -1.711694
  C     -2.479369   -0.858631   -4.301661
  C     -1.925960    0.387527   -4.983705
  C     -2.782870    1.647054   -4.732724
  C     -2.350378    2.400239   -3.474992
  C     -3.225689    3.612476   -3.161063
  C     -2.775355    4.384643   -1.912563
  C     -2.727084    3.550214   -0.623849
  C     -4.042068    2.846533   -0.285444
  C     -4.022008    2.170253    1.085629
  C     -5.287835    1.360444    1.365535
  O     -3.572901   -1.302717   -4.598595
  O      0.486025   -0.446399   -2.961496
  O      1.385939   -2.692287   -0.521656
  C      4.529730   -3.913031   -1.243640
  C      4.688233   -4.353932   -2.699768
  O      3.816625   -3.878975    1.557746
  C      3.242395   -2.295115    3.881658
  C      3.618291   -1.553816    5.166696
  C      1.737327   -2.242299    3.613772
  H      4.951544    2.128680    0.819092
  H      4.755919    3.968064    2.355075
  H      5.386743    2.726950    3.463276
  H      3.088553    2.139542    4.185487
  H      3.018620    3.914110    4.121772
  H      1.246753    2.398349    2.641976
  H      1.958169    3.890030    1.942755
  H      2.810624   -0.074118    2.240269
  H      5.125941   -1.790687    2.938167
  H      3.830460   -0.968855    0.268802
  H      4.190493   -1.854628   -1.773519
  H      2.718081   -2.827984   -3.386933
  H      0.052218   -3.414151   -2.339614
  H      0.573858   -3.611871   -4.018812
  H      0.005141   -1.488995   -4.672582
  H     -1.977155   -2.654328   -3.304390
  H     -0.388914   -2.082693   -0.964312
  H     -2.353973   -0.489063    0.560841
  H     -0.005676    0.349038   -1.210519
  H      0.535892    2.553494    0.632805
  H      0.031201    2.992841   -1.772206
  H      1.655382    3.593038   -1.348245
  H      1.481993    2.069974   -2.253867
  H     -0.379878   -2.646544    1.510662
  H     -2.083530   -2.908679    1.127539
  H     -0.979587   -1.246818    3.432946
  H     -0.910505   -3.765783    3.675429
  H     -2.039293   -3.016807    4.828417
  H     -2.661090   -3.824927    3.371977
  H     -3.002415   -0.092079    2.674752
  H     -3.895979   -1.626849    2.550752
  H     -3.398792   -1.003306    4.139193
  H     -1.934165    0.150513   -6.060133
  H     -0.886385    0.586590   -4.689367
  H     -3.839925    1.348051   -4.660703
  H     -2.701990    2.313100   -5.606675
  H     -1.302341    2.727232   -3.599459
  H     -2.366379    1.703338   -2.624730
  H     -4.268307    3.278039   -3.032927
  H     -3.231553    4.299340   -4.024732
  H     -3.456216    5.238758   -1.757845
  H     -1.777921    4.820781   -2.098477
  H     -2.438363    4.209464    0.213080
  H     -1.935619    2.785077   -0.694303
  H     -4.258279    2.081767   -1.048210
  H     -4.873442    3.573543   -0.323536
  H     -3.878188    2.931973    1.871246
  H     -3.138474    1.511777    1.140350
  H     -5.268614    0.904150    2.365075
  H     -6.183944    1.997074    1.304789
  H     -5.402346    0.552606    0.627684
  H      1.429718   -0.655552   -2.801634
  H      4.051163   -4.693202   -0.641230
  H      5.523097   -3.752705   -0.800109
  H      5.392060   -5.194720   -2.764517
  H      3.742765   -4.706000   -3.138262
  H      5.091411   -3.546210   -3.333501
  H      3.536902   -3.351405    3.972859
  H      4.697686   -1.615674    5.367752
  H      3.350158   -0.488115    5.100143
  H      3.083917   -1.977911    6.028562
  H      1.480631   -2.808204    2.708037
  H      1.181893   -2.679306    4.454899
  H      1.370993   -1.212028    3.485939

----------------------------
CARTESIAN COORDINATES (A.U.)
----------------------------
  NO LB      ZA    FRAG     MASS         X           Y           Z
   0 O     8.0000    0    15.999   11.275132    0.565005    4.436960
   1 C     6.0000    0    12.011    9.015007    1.021254    4.142482
   2 C     6.0000    0    12.011    8.204088    3.656366    3.235381
   3 C     6.0000    0    12.011    8.588563    5.651101    5.316077
   4 C     6.0000    0    12.011    6.015751    5.690419    6.653784
   5 C     6.0000    0    12.011    4.127762    5.474901    4.470035
   6 N     7.0000    0    14.007    5.509847    3.915611    2.599305
   7 C     6.0000    0    12.011    4.539791    2.856972    0.477968
   8 O     8.0000    0    15.999    5.784222    1.389585   -0.877128
   9 N     7.0000    0    14.007    7.130529   -0.678203    4.558719
  10 C     6.0000    0    12.011    7.657713   -3.320449    5.081673
  11 C     6.0000    0    12.011    7.361019   -5.022294    2.719378
  12 N     7.0000    0    14.007    7.460958   -3.753705    0.475602
  13 C     6.0000    0    12.011    7.119360   -4.875387   -1.996263
  14 C     6.0000    0    12.011    4.281538   -5.072857   -2.608095
  15 N     7.0000    0    14.007    3.699556   -5.148279   -5.143484
  16 C     6.0000    0    12.011    1.111055   -5.526059   -5.976466
  17 C     6.0000    0    12.011   -0.213317   -3.010410   -6.761960
  18 C     6.0000    0    12.011   -3.061464   -3.045482   -6.164065
  19 C     6.0000    0    12.011   -3.763033   -2.029033   -3.503392
  20 N     7.0000    0    14.007   -2.332657   -2.872999   -1.546360
  21 C     6.0000    0    12.011   -2.603655   -1.890131    1.015025
  22 C     6.0000    0    12.011   -0.632870    0.190797    1.544472
  23 N     7.0000    0    14.007    0.228498    1.427053   -0.530308
  24 C     6.0000    0    12.011    1.845248    3.627120   -0.276751
  25 C     6.0000    0    12.011    1.964351    5.085503   -2.767872
  26 O     8.0000    0    15.999   -0.001565    0.814974    3.711867
  27 C     6.0000    0    12.011   -2.591430   -4.099754    2.896921
  28 C     6.0000    0    12.011   -3.338975   -3.535909    5.647259
  29 C     6.0000    0    12.011   -3.487431   -6.034745    7.105999
  30 C     6.0000    0    12.011   -5.835666   -2.088193    5.837367
  31 O     8.0000    0    15.999   -5.548158   -0.558888   -3.234632
  32 C     6.0000    0    12.011   -4.685329   -1.622578   -8.128961
  33 C     6.0000    0    12.011   -3.639536    0.732320   -9.417837
  34 C     6.0000    0    12.011   -5.258863    3.112482   -8.943552
  35 C     6.0000    0    12.011   -4.441570    4.535794   -6.566783
  36 C     6.0000    0    12.011   -6.095668    6.826590   -5.973543
  37 C     6.0000    0    12.011   -5.244661    8.285775   -3.614220
  38 C     6.0000    0    12.011   -5.153442    6.708932   -1.178904
  39 C     6.0000    0    12.011   -7.638402    5.379168   -0.539411
  40 C     6.0000    0    12.011   -7.600494    4.101184    2.051542
  41 C     6.0000    0    12.011   -9.992561    2.570866    2.580487
  42 O     8.0000    0    15.999   -6.751805   -2.461778   -8.690084
  43 O     8.0000    0    15.999    0.918455   -0.843572   -5.596416
  44 O     8.0000    0    15.999    2.619044   -5.087685   -0.985787
  45 C     6.0000    0    12.011    8.559949   -7.394558   -2.350139
  46 C     6.0000    0    12.011    8.859477   -8.227740   -5.101823
  47 O     8.0000    0    15.999    7.212375   -7.330201    2.943712
  48 C     6.0000    0    12.011    6.127239   -4.337139    7.335271
  49 C     6.0000    0    12.011    6.837579   -2.936286    9.763641
  50 C     6.0000    0    12.011    3.283071   -4.237331    6.829040
  51 H     1.0000    0     1.008    9.357063    4.022623    1.547860
  52 H     1.0000    0     1.008    8.987384    7.498555    4.450448
  53 H     1.0000    0     1.008   10.179468    5.153190    6.544642
  54 H     1.0000    0     1.008    5.836520    4.043148    7.909425
  55 H     1.0000    0     1.008    5.704366    7.396596    7.789021
  56 H     1.0000    0     1.008    2.356023    4.532223    4.992611
  57 H     1.0000    0     1.008    3.700402    7.351092    3.671275
  58 H     1.0000    0     1.008    5.311310   -0.140062    4.233494
  59 H     1.0000    0     1.008    9.686624   -3.383908    5.552331
  60 H     1.0000    0     1.008    7.238520   -1.830871    0.507962
  61 H     1.0000    0     1.008    7.918884   -3.504739   -3.351465
  62 H     1.0000    0     1.008    5.136429   -5.344116   -6.400375
  63 H     1.0000    0     1.008    0.098678   -6.451810   -4.421230
  64 H     1.0000    0     1.008    1.084434   -6.825446   -7.594454
  65 H     1.0000    0     1.008    0.009716   -2.813794   -8.829899
  66 H     1.0000    0     1.008   -3.736281   -5.015952   -6.244393
  67 H     1.0000    0     1.008   -0.734942   -3.935719   -1.822286
  68 H     1.0000    0     1.008   -4.448364   -0.924196    1.059836
  69 H     1.0000    0     1.008   -0.010727    0.659587   -2.287549
  70 H     1.0000    0     1.008    1.012689    4.825404    1.195829
  71 H     1.0000    0     1.008    0.058961    5.655649   -3.348983
  72 H     1.0000    0     1.008    3.128218    6.789858   -2.547813
  73 H     1.0000    0     1.008    2.800561    3.911685   -4.259191
  74 H     1.0000    0     1.008   -0.717865   -5.001244    2.854738
  75 H     1.0000    0     1.008   -3.937302   -5.496607    2.130740
  76 H     1.0000    0     1.008   -1.851151   -2.356145    6.487327
  77 H     1.0000    0     1.008   -1.720605   -7.116298    6.945553
  78 H     1.0000    0     1.008   -3.853706   -5.700939    9.124385
  79 H     1.0000    0     1.008   -5.028732   -7.228065    6.372114
  80 H     1.0000    0     1.008   -5.673742   -0.174004    5.054549
  81 H     1.0000    0     1.008   -7.362334   -3.074300    4.820223
  82 H     1.0000    0     1.008   -6.422787   -1.895974    7.821941
  83 H     1.0000    0     1.008   -3.655042    0.284428  -11.451992
  84 H     1.0000    0     1.008   -1.675025    1.108494   -8.861619
  85 H     1.0000    0     1.008   -7.256408    2.547447   -8.807451
  86 H     1.0000    0     1.008   -5.106022    4.371126  -10.595080
  87 H     1.0000    0     1.008   -2.461067    5.153722   -6.801992
  88 H     1.0000    0     1.008   -4.471808    3.218842   -4.960021
  89 H     1.0000    0     1.008   -8.065932    6.194596   -5.731401
  90 H     1.0000    0     1.008   -6.106750    8.124574   -7.605640
  91 H     1.0000    0     1.008   -6.531302    9.899818   -3.321845
  92 H     1.0000    0     1.008   -3.359784    9.109956   -3.965547
  93 H     1.0000    0     1.008   -4.607838    7.954734    0.402663
  94 H     1.0000    0     1.008   -3.657790    5.263032   -1.312043
  95 H     1.0000    0     1.008   -8.046981    3.933969   -1.980830
  96 H     1.0000    0     1.008   -9.209471    6.753017   -0.611394
  97 H     1.0000    0     1.008   -7.328714    5.540625    3.536142
  98 H     1.0000    0     1.008   -5.930856    2.856844    2.154950
  99 H     1.0000    0     1.008   -9.956237    1.708596    4.469344
 100 H     1.0000    0     1.008  -11.685961    3.773922    2.465694
 101 H     1.0000    0     1.008  -10.208954    1.044274    1.186152
 102 H     1.0000    0     1.008    2.701776   -1.238813   -5.294320
 103 H     1.0000    0     1.008    7.655588   -8.868866   -1.211749
 104 H     1.0000    0     1.008   10.437140   -7.091584   -1.511986
 105 H     1.0000    0     1.008   10.189517   -9.816598   -5.224181
 106 H     1.0000    0     1.008    7.072800   -8.893051   -5.930456
 107 H     1.0000    0     1.008    9.621372   -6.701365   -6.299404
 108 H     1.0000    0     1.008    6.683775   -6.333238    7.507615
 109 H     1.0000    0     1.008    8.877339   -3.053182   10.143581
 110 H     1.0000    0     1.008    6.330882   -0.922405    9.637873
 111 H     1.0000    0     1.008    5.827759   -3.737711   11.392332
 112 H     1.0000    0     1.008    2.797988   -5.306737    5.117449
 113 H     1.0000    0     1.008    2.233453   -5.063155    8.418538
 114 H     1.0000    0     1.008    2.590801   -2.290401    6.587469

--------------------------------
INTERNAL COORDINATES (ANGSTROEM)
--------------------------------
 O      0   0   0     0.000000000000     0.00000000     0.00000000
 C      1   0   0     1.230043299814     0.00000000     0.00000000
 C      2   1   0     1.535912310588   119.30486077     0.00000000
 C      3   2   1     1.538812694578   111.23646055   288.79335885
 C      4   3   2     1.534647194856   102.82962033   267.75624685
 C      5   4   3     1.531847972978   103.27529928   320.10399797
 N      3   2   1     1.471335100984   115.26968515   171.80834620
 C      7   3   2     1.355540270575   121.18958423   287.42486632
 O      8   7   3     1.245324079578   122.29620239     8.31661251
 N      2   1   3     1.360784427696   124.21677945   179.67503281
 C     10   2   1     1.452383193765   121.75654410   351.73892867
 C     11  10   2     1.548667997545   112.74031940   260.86480032
 N     12  11  10     1.365013826802   114.34430964    19.69700358
 C     13  12  11     1.447759467790   125.41124509   183.01496201
 C     14  13  12     1.539766436082   109.85113078    83.63209649
 N     15  14  13     1.377141307349   115.14594491   155.65709310
 C     16  15  14     1.452773470924   120.69341116   175.30506739
 C     17  16  15     1.560798897375   112.75572133   100.00084899
 C     18  17  16     1.540137360488   111.98851683   212.99304837
 C     19  18  17     1.552262787977   114.59553770    90.37654989
 N     20  19  18     1.358267811924   116.38234158   314.37768371
 C     21  20  19     1.458856932702   122.43833836   173.65260469
 C     22  21  20     1.542309819745   110.90727498   263.50738164
 N     23  22  21     1.356903056907   115.11215248    25.35911999
 C     24  23  22     1.450994380689   120.66970174   172.35169362
 C     25  24  23     1.528832250417   110.46287618   195.48864870
 O     23  22  21     1.239421485998   122.72678301   200.65396222
 C     22  21  20     1.535901358059   109.30419865   135.66369673
 C     28  22  21     1.537449310233   117.70764275   190.96440750
 C     29  28  22     1.533166687596   108.80968670   173.66385399
 C     29  28  22     1.530547383411   112.42450819    50.60081937
 O     20  19  18     1.231997982973   120.45807698   135.12961247
 C     19  18  17     1.544835742949   113.59075357   215.14068847
 C     33  19  18     1.524584238416   119.84068667   325.62685101
 C     34  33  19     1.543922501589   113.11771195   239.77587188
 C     35  34  33     1.528471834139   112.25431492    89.23760019
 C     36  35  34     1.527821940089   113.45023021   182.93396749
 C     37  36  35     1.535511109653   113.45601536   181.08960417
 C     38  37  36     1.536028806002   114.72140994   302.12395721
 C     39  38  37     1.529335863305   114.11586364   304.91367145
 C     40  39  38     1.528920669112   112.99639751   187.26058452
 C     41  40  39     1.528547392552   112.81068622   185.31807016
 O     33  19  18     1.217042844720   119.08864582   142.93127175
 O     18  17  16     1.433140931019   112.34284681   336.42528663
 O     15  14  13     1.229239856947   123.47570302   337.78624637
 C     14  13  12     1.547039885864   113.64879718   315.42752781
 C     46  14  13     1.529649182245   114.49807819   196.56051647
 O     12  11  10     1.229566513751   120.40815407   195.44483409
 C     11  10   2     1.538687950917   112.53133433   133.49553630
 C     49  11  10     1.530407175503   110.61796552   297.11929363
 C     49  11  10     1.529635328175   111.72128751    62.40959727
 H      3   2   1     1.098755980571   105.01120640    51.08284668
 H      4   3   2     1.100059806639   109.69646298   150.17259781
 H      4   3   2     1.095827437199   111.17046153    30.46749676
 H      5   4   3     1.100162009729   110.14080735    77.43009833
 H      5   4   3     1.096912083131   113.39383769   198.53672638
 H      6   5   4     1.097425496106   113.63760256   150.48677249
 H      6   5   4     1.102512194135   110.85183361   274.06003053
 H     10   2   1     1.018570078881   118.71850642   181.09171409
 H     11  10   2     1.102674287164   105.03330572    14.95683246
 H     13  12  11     1.024449210159   118.00042487   343.91795909
 H     14  13  12     1.104255451954   105.64225548   197.96879936
 H     16  15  14     1.015514438762   118.26836250     9.27764362
 H     17  16  15     1.097412369850   107.10757923   337.38562100
 H     17  16  15     1.098218060913   109.56062380   221.20069462
 H     18  17  16     1.105559599145   107.21381531    94.70495267
 H     19  18  17     1.102999145863   108.68093110   331.31441770
 H     21  20  19     1.025867381956   122.07328622     7.78116937
 H     22  21  20     1.102162227695   105.80694451    17.19260519
 H     24  23  22     1.022576730191   120.18106891   342.33443005
 H     25  24  23     1.097009884080   107.01824538   314.87417826
 H     26  25  24     1.096465859775   110.04852079    57.93732062
 H     26  25  24     1.098324546210   110.25594869   177.74797626
 H     26  25  24     1.097469244047   110.54530606   297.53550488
 H     28  22  21     1.100473404300   108.70292344    65.69345325
 H     28  22  21     1.103636111834   105.60353763   311.77659412
 H     29  28  22     1.098750455994   107.99312484   291.66381398
 H     30  29  28     1.099514061018   111.49984508    54.52887491
 H     30  29  28     1.099805992989   111.06773205   174.99400659
 H     30  29  28     1.102189837715   110.77232325   294.61791677
 H     31  29  28     1.097726035632   111.69682941   293.26603558
 H     31  29  28     1.102125696465   111.32521043    54.14907747
 H     31  29  28     1.099898635850   110.66368621   173.81258897
 H     34  33  19     1.102243536261   104.97661121   120.71900680
 H     34  33  19     1.098624566975   111.82219067     3.96487462
 H     35  34  33     1.100888725546   108.78304991   326.51692715
 H     35  34  33     1.101793423415   108.87295391   210.65891728
 H     36  35  34     1.104897252697   108.75572284    60.98223601
 H     36  35  34     1.099487149422   108.65626833   305.11865265
 H     37  36  35     1.102415535939   108.96661574    58.69509378
 H     37  36  35     1.103512766662   109.63903063   303.15578435
 H     38  37  36     1.103187342774   108.80595090   180.00791426
 H     38  37  36     1.104379673227   109.06224338    64.83619824
 H     39  38  37     1.103821014508   108.65727745   182.56988091
 H     39  38  37     1.103093887365   110.22864888    66.86234757
 H     40  39  38     1.101557071581   109.57192103    66.21442561
 H     40  39  38     1.105068477278   109.66660996   309.56590192
 H     41  40  39     1.103673104828   109.55807577    62.32471126
 H     41  40  39     1.103276072153   108.60135071   307.21077724
 H     42  41  40     1.098933145787   111.84202814   181.55721296
 H     42  41  40     1.100908333478   110.95293314   301.87537424
 H     42  41  40     1.100062910901   110.63622504    61.26969561
 H     44  18  17     0.979723032411   107.57473695    28.78114323
 H     46  14  13     1.095714443072   109.37675853    70.85758911
 H     46  14  13     1.099637337742   105.70498365   317.06143640
 H     47  46  14     1.098402499556   110.06872824   169.42188158
 H     47  46  14     1.100063052495   112.49722935   287.88189278
 H     47  46  14     1.102989526246   111.94669603    50.54694819
 H     49  11  10     1.100363539605   105.01144509   179.37397021
 H     50  49  11     1.099701272591   111.55231278   303.82864873
 H     50  49  11     1.100927340898   110.99587522    63.98219144
 H     50  49  11     1.099192900647   110.61483126   183.35691136
 H     51  49  11     1.098406551062   110.88945137    57.37737665
 H     51  49  11     1.098624256273   110.46499619   177.01890855
 H     51  49  11     1.100908878324   112.33740958   296.44894630

---------------------------
INTERNAL COORDINATES (A.U.)
---------------------------
 O      0   0   0     0.000000000000     0.00000000     0.00000000
 C      1   0   0     2.324444969514     0.00000000     0.00000000
 C      2   1   0     2.902453632729   119.30486077     0.00000000
 C      3   2   1     2.907934564154   111.23646055   288.79335885
 C      4   3   2     2.900062910468   102.82962033   267.75624685
 C      5   4   3     2.894773147732   103.27529928   320.10399797
 N      3   2   1     2.780420392085   115.26968515   171.80834620
 C      7   3   2     2.561599874888   121.18958423   287.42486632
 O      8   7   3     2.353321458380   122.29620239     8.31661251
 N      2   1   3     2.571509895650   124.21677945   179.67503281
 C     10   2   1     2.744606477726   121.75654410   351.73892867
 C     11  10   2     2.926558387728   112.74031940   260.86480032
 N     12  11  10     2.579502301672   114.34430964    19.69700358
 C     13  12  11     2.735868901915   125.41124509   183.01496201
 C     14  13  12     2.909736874398   109.85113078    83.63209649
 N     15  14  13     2.602419918599   115.14594491   155.65709310
 C     16  15  14     2.745343994673   120.69341116   175.30506739
 C     17  16  15     2.949482466166   112.75572133   100.00084899
 C     18  17  16     2.910437819943   111.98851683   212.99304837
 C     19  18  17     2.933351557154   114.59553770    90.37654989
 N     20  19  18     2.566754181057   116.38234158   314.37768371
 C     21  20  19     2.756840071379   122.43833836   173.65260469
 C     22  21  20     2.914543172975   110.90727498   263.50738164
 N     23  22  21     2.564175167834   115.11215248    25.35911999
 C     24  23  22     2.741982001360   120.66970174   172.35169362
 C     25  24  23     2.889074257995   110.46287618   195.48864870
 O     23  22  21     2.342167173034   122.72678301   200.65396222
 C     22  21  20     2.902432935449   109.30419865   135.66369673
 C     28  22  21     2.905358141127   117.70764275   190.96440750
 C     29  28  22     2.897265157207   108.80968670   173.66385399
 C     29  28  22     2.892315389636   112.42450819    50.60081937
 O     20  19  18     2.328138785362   120.45807698   135.12961247
 C     19  18  17     2.919316476066   113.59075357   215.14068847
 C     33  19  18     2.881046678700   119.84068667   325.62685101
 C     34  33  19     2.917590700003   113.11771195   239.77587188
 C     35  34  33     2.888393169936   112.25431492    89.23760019
 C     36  35  34     2.887165048165   113.45023021   182.93396749
 C     37  36  35     2.901695472838   113.45601536   181.08960417
 C     38  37  36     2.902673777158   114.72140994   302.12395721
 C     39  38  37     2.890025948431   114.11586364   304.91367145
 C     40  39  38     2.889241345113   112.99639751   187.26058452
 C     41  40  39     2.888535954642   112.81068622   185.31807016
 O     33  19  18     2.299877669768   119.08864582   142.93127175
 O     18  17  16     2.708243870939   112.34284681   336.42528663
 O     15  14  13     2.322926682531   123.47570302   337.78624637
 C     14  13  12     2.923481702536   113.64879718   315.42752781
 C     46  14  13     2.890618035420   114.49807819   196.56051647
 O     12  11  10     2.323543974430   120.40815407   195.44483409
 C     11  10   2     2.907698832798   112.53133433   133.49553630
 C     49  11  10     2.892050435089   110.61796552   297.11929363
 C     49  11  10     2.890591855021   111.72128751    62.40959727
 H      3   2   1     2.076347891287   105.01120640    51.08284668
 H      4   3   2     2.078811765483   109.69646298   150.17259781
 H      4   3   2     2.070813746342   111.17046153    30.46749676
 H      5   4   3     2.079004901332   110.14080735    77.43009833
 H      5   4   3     2.072863430106   113.39383769   198.53672638
 H      6   5   4     2.073833640023   113.63760256   150.48677249
[...]
freq.      86.20  E(vib)   ...       0.48 
freq.      86.83  E(vib)   ...       0.48 
freq.      98.86  E(vib)   ...       0.46 
freq.     103.47  E(vib)   ...       0.46 
freq.     110.29  E(vib)   ...       0.45 
freq.     118.96  E(vib)   ...       0.44 
freq.     123.11  E(vib)   ...       0.43 
freq.     125.55  E(vib)   ...       0.43 
freq.     126.12  E(vib)   ...       0.43 
freq.     129.71  E(vib)   ...       0.43 
freq.     146.11  E(vib)   ...       0.41 
freq.     148.08  E(vib)   ...       0.41 
freq.     151.00  E(vib)   ...       0.40 
freq.     153.96  E(vib)   ...       0.40 
freq.     160.06  E(vib)   ...       0.39 
freq.     162.45  E(vib)   ...       0.39 
freq.     167.88  E(vib)   ...       0.38 
freq.     179.38  E(vib)   ...       0.37 
freq.     192.80  E(vib)   ...       0.36 
freq.     193.53  E(vib)   ...       0.36 
freq.     207.45  E(vib)   ...       0.34 
freq.     214.34  E(vib)   ...       0.34 
freq.     217.62  E(vib)   ...       0.33 
freq.     222.19  E(vib)   ...       0.33 
freq.     226.54  E(vib)   ...       0.33 
freq.     230.14  E(vib)   ...       0.32 
freq.     234.44  E(vib)   ...       0.32 
freq.     237.54  E(vib)   ...       0.32 
freq.     241.84  E(vib)   ...       0.31 
freq.     244.43  E(vib)   ...       0.31 
freq.     250.57  E(vib)   ...       0.30 
freq.     254.01  E(vib)   ...       0.30 
freq.     255.48  E(vib)   ...       0.30 
freq.     258.44  E(vib)   ...       0.30 
freq.     267.35  E(vib)   ...       0.29 
freq.     270.69  E(vib)   ...       0.29 
freq.     272.12  E(vib)   ...       0.29 
freq.     275.02  E(vib)   ...       0.28 
freq.     277.44  E(vib)   ...       0.28 
freq.     295.50  E(vib)   ...       0.27 
freq.     299.51  E(vib)   ...       0.26 
freq.     313.69  E(vib)   ...       0.25 
freq.     322.90  E(vib)   ...       0.25 
freq.     326.58  E(vib)   ...       0.24 
freq.     332.57  E(vib)   ...       0.24 
freq.     338.56  E(vib)   ...       0.23 
freq.     346.36  E(vib)   ...       0.23 
freq.     354.72  E(vib)   ...       0.22 
freq.     364.01  E(vib)   ...       0.22 
freq.     382.43  E(vib)   ...       0.21 
freq.     386.16  E(vib)   ...       0.20 
freq.     390.55  E(vib)   ...       0.20 
freq.     393.52  E(vib)   ...       0.20 
freq.     395.98  E(vib)   ...       0.20 
freq.     403.21  E(vib)   ...       0.19 
freq.     406.39  E(vib)   ...       0.19 
freq.     411.24  E(vib)   ...       0.19 
freq.     413.53  E(vib)   ...       0.19 
freq.     443.01  E(vib)   ...       0.17 
freq.     448.11  E(vib)   ...       0.17 
freq.     470.58  E(vib)   ...       0.15 
freq.     482.21  E(vib)   ...       0.15 
freq.     502.14  E(vib)   ...       0.14 
freq.     510.63  E(vib)   ...       0.14 
freq.     522.39  E(vib)   ...       0.13 
freq.     529.48  E(vib)   ...       0.13 
freq.     532.77  E(vib)   ...       0.13 
freq.     547.05  E(vib)   ...       0.12 
freq.     559.20  E(vib)   ...       0.12 
freq.     562.77  E(vib)   ...       0.11 
freq.     575.14  E(vib)   ...       0.11 
freq.     582.85  E(vib)   ...       0.11 
freq.     599.41  E(vib)   ...       0.10 
freq.     616.96  E(vib)   ...       0.09 
freq.     620.22  E(vib)   ...       0.09 
freq.     635.18  E(vib)   ...       0.09 
freq.     649.13  E(vib)   ...       0.08 
freq.     668.54  E(vib)   ...       0.08 
freq.     681.84  E(vib)   ...       0.08 
freq.     692.96  E(vib)   ...       0.07 
freq.     702.47  E(vib)   ...       0.07 
freq.     703.69  E(vib)   ...       0.07 
freq.     716.74  E(vib)   ...       0.07 
freq.     717.20  E(vib)   ...       0.07 
freq.     731.12  E(vib)   ...       0.06 
freq.     737.76  E(vib)   ...       0.06 
freq.     743.86  E(vib)   ...       0.06 
freq.     746.33  E(vib)   ...       0.06 
freq.     762.40  E(vib)   ...       0.06 
freq.     766.05  E(vib)   ...       0.06 
freq.     786.61  E(vib)   ...       0.05 
freq.     790.82  E(vib)   ...       0.05 
freq.     792.48  E(vib)   ...       0.05 
freq.     806.90  E(vib)   ...       0.05 
freq.     810.64  E(vib)   ...       0.05 
freq.     815.51  E(vib)   ...       0.05 
freq.     828.37  E(vib)   ...       0.04 
freq.     831.66  E(vib)   ...       0.04 
freq.     846.65  E(vib)   ...       0.04 
freq.     853.82  E(vib)   ...       0.04 
freq.     855.43  E(vib)   ...       0.04 
freq.     861.00  E(vib)   ...       0.04 
freq.     867.59  E(vib)   ...       0.04 
freq.     870.03  E(vib)   ...       0.04 
freq.     875.23  E(vib)   ...       0.04 
freq.     887.88  E(vib)   ...       0.04 
freq.     901.29  E(vib)   ...       0.03 
freq.     903.56  E(vib)   ...       0.03 
freq.     904.59  E(vib)   ...       0.03 
freq.     906.46  E(vib)   ...       0.03 
freq.     908.80  E(vib)   ...       0.03 
freq.     909.91  E(vib)   ...       0.03 
freq.     915.71  E(vib)   ...       0.03 
freq.     925.59  E(vib)   ...       0.03 
freq.     927.69  E(vib)   ...       0.03 
freq.     933.53  E(vib)   ...       0.03 
freq.     944.57  E(vib)   ...       0.03 
freq.     949.32  E(vib)   ...       0.03 
freq.     950.09  E(vib)   ...       0.03 
freq.     955.06  E(vib)   ...       0.03 
freq.     962.97  E(vib)   ...       0.03 
freq.     969.83  E(vib)   ...       0.03 
freq.     979.65  E(vib)   ...       0.03 
freq.     983.87  E(vib)   ...       0.02 
freq.     988.68  E(vib)   ...       0.02 
freq.    1011.21  E(vib)   ...       0.02 
freq.    1011.77  E(vib)   ...       0.02 
freq.    1021.53  E(vib)   ...       0.02 
freq.    1024.14  E(vib)   ...       0.02 
freq.    1034.04  E(vib)   ...       0.02 
freq.    1036.91  E(vib)   ...       0.02 
freq.    1039.02  E(vib)   ...       0.02 
freq.    1040.82  E(vib)   ...       0.02 
freq.    1044.15  E(vib)   ...       0.02 
freq.    1046.87  E(vib)   ...       0.02 
freq.    1057.64  E(vib)   ...       0.02 
freq.    1062.16  E(vib)   ...       0.02 
freq.    1064.29  E(vib)   ...       0.02 
freq.    1077.78  E(vib)   ...       0.02 
freq.    1079.28  E(vib)   ...       0.02 
freq.    1081.55  E(vib)   ...       0.02 
freq.    1092.25  E(vib)   ...       0.02 
freq.    1094.05  E(vib)   ...       0.02 
freq.    1099.74  E(vib)   ...       0.02 
freq.    1100.68  E(vib)   ...       0.02 
freq.    1104.22  E(vib)   ...       0.02 
freq.    1115.72  E(vib)   ...       0.01 
freq.    1123.15  E(vib)   ...       0.01 
freq.    1127.76  E(vib)   ...       0.01 
freq.    1132.02  E(vib)   ...       0.01 
freq.    1136.83  E(vib)   ...       0.01 
freq.    1145.76  E(vib)   ...       0.01 
freq.    1146.45  E(vib)   ...       0.01 
freq.    1151.17  E(vib)   ...       0.01 
freq.    1159.54  E(vib)   ...       0.01 
freq.    1161.35  E(vib)   ...       0.01 
freq.    1163.92  E(vib)   ...       0.01 
freq.    1167.38  E(vib)   ...       0.01 
freq.    1173.40  E(vib)   ...       0.01 
freq.    1175.95  E(vib)   ...       0.01 
freq.    1186.19  E(vib)   ...       0.01 
freq.    1201.09  E(vib)   ...       0.01 
freq.    1203.84  E(vib)   ...       0.01 
freq.    1207.47  E(vib)   ...       0.01 
freq.    1214.72  E(vib)   ...       0.01 
freq.    1221.12  E(vib)   ...       0.01 
freq.    1228.06  E(vib)   ...       0.01 
freq.    1231.28  E(vib)   ...       0.01 
freq.    1232.82  E(vib)   ...       0.01 
freq.    1236.36  E(vib)   ...       0.01 
freq.    1243.24  E(vib)   ...       0.01 
freq.    1246.28  E(vib)   ...       0.01 
freq.    1247.29  E(vib)   ...       0.01 
freq.    1249.14  E(vib)   ...       0.01 
freq.    1249.61  E(vib)   ...       0.01 
freq.    1258.47  E(vib)   ...       0.01 
freq.    1261.04  E(vib)   ...       0.01 
freq.    1271.01  E(vib)   ...       0.01 
freq.    1272.86  E(vib)   ...       0.01 
freq.    1275.21  E(vib)   ...       0.01 
freq.    1281.65  E(vib)   ...       0.01 
freq.    1284.86  E(vib)   ...       0.01 
freq.    1286.24  E(vib)   ...       0.01 
freq.    1286.95  E(vib)   ...       0.01 
freq.    1291.27  E(vib)   ...       0.01 
freq.    1294.45  E(vib)   ...       0.01 
freq.    1300.29  E(vib)   ...       0.01 
freq.    1302.18  E(vib)   ...       0.01 
freq.    1302.61  E(vib)   ...       0.01 
freq.    1305.86  E(vib)   ...       0.01 
freq.    1308.56  E(vib)   ...       0.01 
freq.    1310.53  E(vib)   ...       0.01 
freq.    1317.01  E(vib)   ...       0.01 
freq.    1322.66  E(vib)   ...       0.01 
freq.    1324.49  E(vib)   ...       0.01 
freq.    1325.65  E(vib)   ...       0.01 
freq.    1327.53  E(vib)   ...       0.01 
freq.    1332.53  E(vib)   ...       0.01 
freq.    1333.82  E(vib)   ...       0.01 
freq.    1335.84  E(vib)   ...       0.01 
freq.    1336.41  E(vib)   ...       0.01 
freq.    1338.98  E(vib)   ...       0.01 
freq.    1341.18  E(vib)   ...       0.01 
freq.    1348.20  E(vib)   ...       0.01 
freq.    1350.86  E(vib)   ...       0.01 
freq.    1351.87  E(vib)   ...       0.01 
freq.    1353.96  E(vib)   ...       0.01 
freq.    1356.84  E(vib)   ...       0.01 
freq.    1358.95  E(vib)   ...       0.01 
freq.    1360.88  E(vib)   ...       0.01 
freq.    1363.43  E(vib)   ...       0.01 
freq.    1367.87  E(vib)   ...       0.01 
freq.    1369.86  E(vib)   ...       0.01 
freq.    1376.22  E(vib)   ...       0.01 
freq.    1406.35  E(vib)   ...       0.00 
freq.    1427.41  E(vib)   ...       0.00 
freq.    1429.19  E(vib)   ...       0.00 
freq.    1430.20  E(vib)   ...       0.00 
freq.    1432.68  E(vib)   ...       0.00 
freq.    1433.13  E(vib)   ...       0.00 
freq.    1435.40  E(vib)   ...       0.00 
freq.    1438.31  E(vib)   ...       0.00 
freq.    1440.17  E(vib)   ...       0.00 
freq.    1441.62  E(vib)   ...       0.00 
freq.    1441.95  E(vib)   ...       0.00 
freq.    1442.47  E(vib)   ...       0.00 
freq.    1444.85  E(vib)   ...       0.00 
freq.    1445.65  E(vib)   ...       0.00 
freq.    1446.31  E(vib)   ...       0.00 
freq.    1446.93  E(vib)   ...       0.00 
freq.    1448.33  E(vib)   ...       0.00 
freq.    1449.85  E(vib)   ...       0.00 
freq.    1451.21  E(vib)   ...       0.00 
freq.    1453.33  E(vib)   ...       0.00 
freq.    1454.03  E(vib)   ...       0.00 
freq.    1454.83  E(vib)   ...       0.00 
freq.    1457.73  E(vib)   ...       0.00 
freq.    1460.59  E(vib)   ...       0.00 
freq.    1461.49  E(vib)   ...       0.00 
freq.    1462.09  E(vib)   ...       0.00 
freq.    1465.13  E(vib)   ...       0.00 
freq.    1467.36  E(vib)   ...       0.00 
freq.    1472.30  E(vib)   ...       0.00 
freq.    1476.08  E(vib)   ...       0.00 
freq.    1480.93  E(vib)   ...       0.00 
freq.    1497.44  E(vib)   ...       0.00 
freq.    1513.45  E(vib)   ...       0.00 
freq.    1514.69  E(vib)   ...       0.00 
freq.    1623.46  E(vib)   ...       0.00 
freq.    1640.81  E(vib)   ...       0.00 
freq.    1659.47  E(vib)   ...       0.00 
freq.    1675.92  E(vib)   ...       0.00 
freq.    1686.30  E(vib)   ...       0.00 
freq.    1696.13  E(vib)   ...       0.00 
freq.    1721.53  E(vib)   ...       0.00 
freq.    2907.80  E(vib)   ...       0.00 
freq.    2926.63  E(vib)   ...       0.00 
freq.    2928.93  E(vib)   ...       0.00 
freq.    2930.49  E(vib)   ...       0.00 
freq.    2937.36  E(vib)   ...       0.00 
freq.    2941.32  E(vib)   ...       0.00 
freq.    2942.30  E(vib)   ...       0.00 
freq.    2945.08  E(vib)   ...       0.00 
freq.    2946.04  E(vib)   ...       0.00 
freq.    2946.10  E(vib)   ...       0.00 
freq.    2946.67  E(vib)   ...       0.00 
freq.    2949.72  E(vib)   ...       0.00 
freq.    2953.65  E(vib)   ...       0.00 
freq.    2954.84  E(vib)   ...       0.00 
freq.    2957.62  E(vib)   ...       0.00 
freq.    2957.99  E(vib)   ...       0.00 
freq.    2959.31  E(vib)   ...       0.00 
freq.    2962.70  E(vib)   ...       0.00 
freq.    2965.80  E(vib)   ...       0.00 
freq.    2966.09  E(vib)   ...       0.00 
freq.    2969.65  E(vib)   ...       0.00 
freq.    2972.95  E(vib)   ...       0.00 
freq.    2974.56  E(vib)   ...       0.00 
freq.    2978.55  E(vib)   ...       0.00 
freq.    2980.55  E(vib)   ...       0.00 
freq.    2983.19  E(vib)   ...       0.00 
freq.    2984.03  E(vib)   ...       0.00 
freq.    2987.95  E(vib)   ...       0.00 
freq.    2989.51  E(vib)   ...       0.00 
freq.    2992.58  E(vib)   ...       0.00 
freq.    2996.87  E(vib)   ...       0.00 
freq.    2996.95  E(vib)   ...       0.00 
freq.    2997.25  E(vib)   ...       0.00 
freq.    2997.94  E(vib)   ...       0.00 
freq.    3008.53  E(vib)   ...       0.00 
freq.    3009.72  E(vib)   ...       0.00 
freq.    3011.31  E(vib)   ...       0.00 
freq.    3013.64  E(vib)   ...       0.00 
freq.    3020.76  E(vib)   ...       0.00 
freq.    3021.68  E(vib)   ...       0.00 
freq.    3021.87  E(vib)   ...       0.00 
freq.    3022.09  E(vib)   ...       0.00 
freq.    3025.31  E(vib)   ...       0.00 
freq.    3027.76  E(vib)   ...       0.00 
freq.    3029.65  E(vib)   ...       0.00 
freq.    3031.37  E(vib)   ...       0.00 
freq.    3031.73  E(vib)   ...       0.00 
freq.    3033.45  E(vib)   ...       0.00 
freq.    3033.71  E(vib)   ...       0.00 
freq.    3035.52  E(vib)   ...       0.00 
freq.    3043.51  E(vib)   ...       0.00 
freq.    3044.40  E(vib)   ...       0.00 
freq.    3044.82  E(vib)   ...       0.00 
freq.    3045.95  E(vib)   ...       0.00 
freq.    3056.10  E(vib)   ...       0.00 
freq.    3059.95  E(vib)   ...       0.00 
freq.    3061.47  E(vib)   ...       0.00 
freq.    3071.14  E(vib)   ...       0.00 
freq.    3327.30  E(vib)   ...       0.00 
freq.    3359.75  E(vib)   ...       0.00 
freq.    3385.35  E(vib)   ...       0.00 
freq.    3468.93  E(vib)   ...       0.00 
freq.    3511.85  E(vib)   ...       0.00 
freq.    3565.19  E(vib)   ...       0.00 

------------
INNER ENERGY
------------

The inner energy is: U= E(el) + E(ZPE) + E(vib) + E(rot) + E(trans)
    E(el)   - is the total energy from the electronic structure calculation
              = E(kin-el) + E(nuc-el) + E(el-el) + E(nuc-nuc)
    E(ZPE)  - the the zero temperature vibrational energy from the frequency calculation
    E(vib)  - the the finite temperature correction to E(ZPE) due to population
              of excited vibrational states
    E(rot)  - is the rotational thermal energy
    E(trans)- is the translational thermal energy

Summary of contributions to the inner energy U:
Electronic energy                ...  -2380.07887797 Eh
Zero point energy                ...      0.97899429 Eh     614.33 kcal/mol
Thermal vibrational correction   ...      0.05491776 Eh      34.46 kcal/mol
Thermal rotational correction    ...      0.00141627 Eh       0.89 kcal/mol
Thermal translational correction ...      0.00141627 Eh       0.89 kcal/mol
-----------------------------------------------------------------------
Total thermal energy                  -2379.04213338 Eh


Summary of corrections to the electronic energy:
(perhaps to be used in another calculation)
Total thermal correction                  0.05775031 Eh      36.24 kcal/mol
Non-thermal (ZPE) correction              0.97899429 Eh     614.33 kcal/mol
-----------------------------------------------------------------------
Total correction                          1.03674459 Eh     650.57 kcal/mol


--------
ENTHALPY
--------

The enthalpy is H = U + kB*T
                kB is Boltzmann's constant
Total free energy                 ...  -2379.04213338 Eh 
Thermal Enthalpy correction       ...      0.00094421 Eh       0.59 kcal/mol
-----------------------------------------------------------------------
Total Enthalpy                    ...  -2379.04118917 Eh


Note: Only C1 symmetry has been detected, increase convergence thresholds 
      if your molecule has a higher symmetry. Symmetry factor of 1.0 is   
      used for the rotational entropy correction. 
 

Note: Rotational entropy computed according to Herzberg 
Infrared and Raman Spectra, Chapter V,1, Van Nostrand Reinhold, 1945 
Point Group:  C1, Symmetry Number:   1  
Rotational constants in cm-1:     0.002463     0.001531     0.001357 

Vibrational entropy computed according to the QRRHO of S. Grimme
Chem.Eur.J. 2012 18 9955


-------
ENTROPY
-------

The entropy contributions are T*S = T*(S(el)+S(vib)+S(rot)+S(trans))
     S(el)   - electronic entropy
     S(vib)  - vibrational entropy
     S(rot)  - rotational entropy
     S(trans)- translational entropy
The entropies will be listed as mutliplied by the temperature to get
units of energy

Electronic entropy                ...      0.00000000 Eh      0.00 kcal/mol
Vibrational entropy               ...      0.09977442 Eh     62.61 kcal/mol
Rotational entropy                ...      0.01852347 Eh     11.62 kcal/mol
Translational entropy             ...      0.02166895 Eh     13.60 kcal/mol
-----------------------------------------------------------------------
Final entropy term                ...      0.13996683 Eh     87.83 kcal/mol

In case the symmetry of your molecule has not been determined correctly
or in case you have a reason to use a different symmetry number we print 
out the resulting rotational entropy values for sn=1,12 :
 --------------------------------------------------------
|  sn= 1 | S(rot)=       0.01852347 Eh     11.62 kcal/mol|
|  sn= 2 | S(rot)=       0.01786901 Eh     11.21 kcal/mol|
|  sn= 3 | S(rot)=       0.01748618 Eh     10.97 kcal/mol|
|  sn= 4 | S(rot)=       0.01721455 Eh     10.80 kcal/mol|
|  sn= 5 | S(rot)=       0.01700387 Eh     10.67 kcal/mol|
|  sn= 6 | S(rot)=       0.01683172 Eh     10.56 kcal/mol|
|  sn= 7 | S(rot)=       0.01668618 Eh     10.47 kcal/mol|
|  sn= 8 | S(rot)=       0.01656010 Eh     10.39 kcal/mol|
|  sn= 9 | S(rot)=       0.01644889 Eh     10.32 kcal/mol|
|  sn=10 | S(rot)=       0.01634941 Eh     10.26 kcal/mol|
|  sn=11 | S(rot)=       0.01625942 Eh     10.20 kcal/mol|
|  sn=12 | S(rot)=       0.01617727 Eh     10.15 kcal/mol|
 --------------------------------------------------------


-------------------
GIBBS FREE ENERGY
-------------------

The Gibbs free energy is G = H - T*S

Total enthalpy                    ...  -2379.04118917 Eh 
Total entropy correction          ...     -0.13996683 Eh    -87.83 kcal/mol
-----------------------------------------------------------------------
Final Gibbs free energy         ...  -2379.18115600 Eh

For completeness - the Gibbs free energy minus the electronic energy
G-E(el)                           ...      0.89772197 Eh    563.33 kcal/mol

--------------------------------------------------------------------------
WARNING: No preset parameters were found for the device that Open MPI
detected:

  Local host:            eu-g1-049-2
  Device name:           mlx5_0
  Device vendor ID:      0x02c9
  Device vendor part ID: 4123

Default device parameters will be used, which may result in lower
performance.  You can edit any of the files specified by the
btl_openib_device_param_files MCA parameter to set values for your
device.

NOTE: You can turn off this warning by setting the MCA parameter
      btl_openib_warn_no_device_params_found to 0.
--------------------------------------------------------------------------
--------------------------------------------------------------------------
WARNING: There was an error initializing an OpenFabrics device.

  Local host:   eu-g1-049-2
  Local device: mlx5_0
--------------------------------------------------------------------------

Timings for individual modules:

Sum of individual times         ...    48611.779 sec (= 810.196 min)
GTO integral calculation        ...       12.758 sec (=   0.213 min)   0.0 %
SCF iterations                  ...      391.635 sec (=   6.527 min)   0.8 %
SCF Gradient evaluation         ...       80.145 sec (=   1.336 min)   0.2 %
Geometry relaxation             ...        4.078 sec (=   0.068 min)   0.0 %
Analytical frequency calculation...    48123.163 sec (= 802.053 min)  99.0 %
                             ****ORCA TERMINATED NORMALLY****
TOTAL RUN TIME: 0 days 13 hours 30 minutes 29 seconds 645 msec
