
                                 *****************
                                 * O   R   C   A *
                                 *****************

           --- An Ab Initio, DFT and Semiempirical electronic structure package ---

                  #######################################################
                  #                        -***-                        #
                  #          Department of theory and spectroscopy      #
                  #               Directorship: Frank Neese             #
                  #        Max Planck Institute fuer Kohlenforschung    #
                  #                Kaiser Wilhelm Platz 1               #
                  #                 D-45470 Muelheim/Ruhr               #
                  #                      Germany                        #
                  #                                                     #
                  #                  All rights reserved                #
                  #                        -***-                        #
                  #######################################################


                         Program Version 4.2.0 -  RELEASE  -


 With contributions from (in alphabetic order):
   Daniel Aravena         : Magnetic Suceptibility
   Michael Atanasov       : Ab Initio Ligand Field Theory (pilot matlab implementation)
   Alexander A. Auer      : GIAO ZORA, VPT2
   Ute Becker             : Parallelization
   Giovanni Bistoni       : ED, misc. LED, open-shell LED, HFLED
   Martin Brehm           : Molecular dynamics
   Dmytro Bykov           : SCF Hessian
   Vijay G. Chilkuri      : MRCI spin determinant printing, contributions to CSF-ICE
   Dipayan Datta          : RHF DLPNO-CCSD density
   Achintya Kumar Dutta   : EOM-CC, STEOM-CC
   Dmitry Ganyushin       : Spin-Orbit,Spin-Spin,Magnetic field MRCI
   Miquel Garcia          : C-PCM Hessian, Gaussian charge scheme
   Yang Guo               : DLPNO-NEVPT2, CIM, IAO-localization
   Andreas Hansen         : Spin unrestricted coupled pair/coupled cluster methods
   Benjamin Helmich-Paris : CASSCF linear response (MC-RPA)
   Lee Huntington         : MR-EOM, pCC
   Robert Izsak           : Overlap fitted RIJCOSX, COSX-SCS-MP3, EOM
   Christian Kollmar      : KDIIS, OOCD, Brueckner-CCSD(T), CCSD density
   Simone Kossmann        : Meta GGA functionals, TD-DFT gradient, OOMP2, MP2 Hessian
   Martin Krupicka        : AUTO-CI
   Lucas Lang             : DCDCAS
   Dagmar Lenk            : GEPOL surface, SMD
   Dimitrios Liakos       : Extrapolation schemes; Compound Job, initial MDCI parallelization
   Dimitrios Manganas     : Further ROCIS development; embedding schemes
   Dimitrios Pantazis     : SARC Basis sets
   Taras Petrenko         : DFT Hessian,TD-DFT gradient, ASA, ECA, R-Raman, ABS, FL, XAS/XES, NRVS
   Peter Pinski           : DLPNO-MP2, DLPNO-MP2 Gradient
   Christoph Reimann      : Effective Core Potentials
   Marius Retegan         : Local ZFS, SOC
   Christoph Riplinger    : Optimizer, TS searches, QM/MM, DLPNO-CCSD(T), (RO)-DLPNO pert. Triples
   Tobias Risthaus        : Range-separated hybrids, TD-DFT gradient, RPA, STAB
   Michael Roemelt        : Original ROCIS implementation
   Masaaki Saitow         : Open-shell DLPNO-CCSD energy and density
   Barbara Sandhoefer     : DKH picture change effects
   Avijit Sen             : IP-ROCIS
   Kantharuban Sivalingam : CASSCF convergence, NEVPT2, FIC-MRCI
   Bernardo de Souza      : ESD, SOC TD-DFT
   Georgi Stoychev        : AutoAux, RI-MP2 NMR
   Willem Van den Heuvel  : Paramagnetic NMR
   Boris Wezisla          : Elementary symmetry handling
   Frank Wennmohs         : Technical directorship


 We gratefully acknowledge several colleagues who have allowed us to
 interface, adapt or use parts of their codes:
   Stefan Grimme, W. Hujo, H. Kruse,             : VdW corrections, initial TS optimization,
                  C. Bannwarth                     DFT functionals, gCP, sTDA/sTD-DF
   Ed Valeev, F. Pavosevic, A. Kumar             : LibInt (2-el integral package), F12 methods
   Garnet Chan, S. Sharma, J. Yang, R. Olivares  : DMRG
   Ulf Ekstrom                                   : XCFun DFT Library
   Mihaly Kallay                                 : mrcc  (arbitrary order and MRCC methods)
   Andreas Klamt, Michael Diedenhofen            : otool_cosmo (COSMO solvation model)
   Jiri Pittner, Ondrej Demel                    : Mk-CCSD
   Frank Weinhold                                : gennbo (NPA and NBO analysis)
   Christopher J. Cramer and Donald G. Truhlar   : smd solvation model
   Lars Goerigk                                  : TD-DFT with DH, B97 family of functionals
   V. Asgeirsson, H. Jonsson                     : NEB implementation
   FAccTs GmbH                                   : IRC, NEB, NEB-TS, Multilevel, MM, QM/MM, CI optimization
   S Lehtola, MJT Oliveira, MAL Marques          : LibXC Library


 Your calculation uses the libint2 library for the computation of 2-el integrals
 For citations please refer to: http://libint.valeyev.net

 Your ORCA version has been built with support for libXC version: 4.2.3
 For citations please refer to: https://tddft.org/programs/libxc/

 This ORCA versions uses:
   CBLAS   interface :  Fast vector & matrix operations
   LAPACKE interface :  Fast linear algebra routines
   SCALAPACK package :  Parallel linear algebra routines




***************************************
The coordinates will be read from file: 11.xyz
***************************************


Your calculation utilizes the atom-pairwise dispersion correction
with the Becke-Johnson damping scheme (D3BJ)
Cite in your paper:
S.Grimme, S.Ehrlich, L.Goerigk, J Comput Chem, (2011), 32, 1456–1465 
S.Grimme, J.Antony, S.Ehrlich and H.Krieg, J.Chem.Phys., 132, (2010), 154104 
   

----- Orbital basis set information -----
Your calculation utilizes the basis: def2-TZVP
   F. Weigend and R. Ahlrichs, Phys. Chem. Chem. Phys. 7, 3297 (2005).

----- AuxJ basis set information -----
Your calculation utilizes the auxiliary basis: def2/J
   F. Weigend, Phys. Chem. Chem. Phys. 8, 1057 (2006).

================================================================================
                                        WARNINGS
                       Please study these warnings very carefully!
================================================================================


WARNING: Geometry Optimization
  ===> : Switching off AutoStart
         For restart on a previous wavefunction, please use MOREAD

INFO   : the flag for use of LIBINT has been found!

================================================================================
                                       INPUT FILE
================================================================================
NAME = 11.inp
|  1> !RI BP86 def2-tzvp def2/J D3BJ TIGHTSCF TightOpt Grid5 FinalGrid6 freq
|  2> %maxcore 4000
|  3> %pal nprocs 24
|  4> end
|  5> * xyzfile 0 1 11.xyz 
|  6> 
|  7>                          ****END OF INPUT****
================================================================================

                       *****************************
                       * Geometry Optimization Run *
                       *****************************

Geometry optimization settings:
Update method            Update   .... BFGS
Choice of coordinates    CoordSys .... Z-matrix Internals
Initial Hessian          InHess   .... Almoef's Model

Convergence Tolerances:
Energy Change            TolE     ....  1.0000e-06 Eh
Max. Gradient            TolMAXG  ....  1.0000e-04 Eh/bohr
RMS Gradient             TolRMSG  ....  3.0000e-05 Eh/bohr
Max. Displacement        TolMAXD  ....  1.0000e-03 bohr
RMS Displacement         TolRMSD  ....  6.0000e-04 bohr
Strict Convergence                ....  False
------------------------------------------------------------------------------
                        ORCA OPTIMIZATION COORDINATE SETUP
------------------------------------------------------------------------------

The optimization will be done in new redundant internal coordinates
Making redundant internal coordinates   ...  (new redundants) done
Evaluating the initial hessian          ...  (Almloef) done
Evaluating the coordinates              ...  done
Calculating the B-matrix                .... done
Calculating the G-matrix                .... done
Diagonalizing the G-matrix              .... done
Small eigenvalue found = 4.060e-04
Small eigenvalue found = 1.249e-03
Small eigenvalue found = 2.042e-03
Small eigenvalue found = 2.622e-03
Small eigenvalue found = 3.354e-03
Small eigenvalue found = 5.428e-03
Small eigenvalue found = 6.245e-03
Small eigenvalue found = 7.486e-03
Small eigenvalue found = 7.658e-03
Small eigenvalue found = 1.005e-02
Small eigenvalue found = 1.196e-02
Small eigenvalue found = 1.200e-02
Small eigenvalue found = 1.363e-02
Small eigenvalue found = 1.420e-02
Small eigenvalue found = 1.714e-02
Small eigenvalue found = 1.818e-02
Small eigenvalue found = 2.213e-02
Small eigenvalue found = 2.450e-02
Small eigenvalue found = 2.720e-02
The first mode is                       ....  325
The number of degrees of freedom        ....  339

    -----------------------------------------------------------------
                    Redundant Internal Coordinates


    -----------------------------------------------------------------
         Definition                    Initial Value    Approx d2E/dq
    -----------------------------------------------------------------
      1. B(C   1,O   0)                  1.2321         0.999432   
      2. B(C   2,C   1)                  1.5547         0.341216   
      3. B(C   3,C   2)                  1.5275         0.376960   
      4. B(C   4,C   3)                  1.5353         0.366410   
      5. B(C   5,C   4)                  1.5338         0.368431   
      6. B(N   6,C   2)                  1.4825         0.398411   
      7. B(N   6,C   5)                  1.4786         0.404111   
      8. B(C   7,N   6)                  1.3473         0.654632   
      9. B(O   8,C   7)                  1.2506         0.933830   
     10. B(N   9,C   1)                  1.3554         0.635354   
     11. B(C  10,N   9)                  1.4601         0.432510   
     12. B(C  11,C  10)                  1.5321         0.370654   
     13. B(N  12,C  11)                  1.3641         0.615561   
     14. B(C  13,N  12)                  1.4523         0.445087   
     15. B(C  14,C  13)                  1.5263         0.378719   
     16. B(N  15,C  14)                  1.3479         0.653102   
     17. B(C  16,N  15)                  1.4554         0.440145   
     18. B(C  17,C  16)                  1.5376         0.363314   
     19. B(C  18,C  17)                  1.5607         0.333756   
     20. B(C  19,C  18)                  1.5367         0.364506   
     21. B(N  20,C  19)                  1.3644         0.614799   
     22. B(C  21,N  20)                  1.4592         0.434009   
     23. B(C  22,C  21)                  1.5359         0.365515   
     24. B(N  23,C  22)                  1.3564         0.633199   
     25. B(C  24,N  23)                  1.4460         0.455621   
     26. B(C  24,C   7)                  1.5275         0.376989   
     27. B(C  25,C  24)                  1.5421         0.357357   
     28. B(O  26,C  22)                  1.2326         0.997607   
     29. B(C  27,C  21)                  1.5364         0.364884   
     30. B(C  28,C  27)                  1.5356         0.365925   
     31. B(C  29,C  28)                  1.5327         0.369889   
     32. B(C  30,C  28)                  1.5324         0.370248   
     33. B(O  31,C  19)                  1.2341         0.992319   
     34. B(C  32,C  18)                  1.5362         0.365225   
     35. B(C  33,C  32)                  1.5022         0.413687   
     36. B(C  34,C  33)                  1.5440         0.354877   
     37. B(C  35,C  34)                  1.5304         0.372997   
     38. B(C  36,C  35)                  1.5288         0.375216   
     39. B(C  37,C  36)                  1.5302         0.373273   
     40. B(C  38,C  37)                  1.5296         0.374070   
     41. B(C  39,C  38)                  1.5301         0.373503   
     42. B(C  40,C  39)                  1.5309         0.372319   
     43. B(C  41,C  40)                  1.5298         0.373881   
     44. B(O  42,C  32)                  1.2343         0.991463   
     45. B(O  43,C  17)                  1.4223         0.497052   
     46. B(O  44,C  14)                  1.2464         0.948377   
     47. B(C  45,C  13)                  1.5537         0.342373   
     48. B(C  46,C  45)                  1.5275         0.377054   
     49. B(O  47,C  11)                  1.2318         1.000530   
     50. B(C  48,C  10)                  1.5603         0.334219   
     51. B(C  49,C  48)                  1.5302         0.373235   
     52. B(C  50,C  48)                  1.5314         0.371608   
     53. B(H  51,C   2)                  1.1001         0.346932   
     54. B(H  52,C   3)                  1.0997         0.347431   
     55. B(H  53,C   3)                  1.0951         0.353430   
     56. B(H  54,C   4)                  1.0986         0.348908   
     57. B(H  55,C   4)                  1.0968         0.351256   
     58. B(H  56,C   5)                  1.0985         0.349049   
     59. B(H  57,C   5)                  1.1004         0.346609   
     60. B(H  58,N   9)                  1.0283         0.404552   
     61. B(H  59,C  10)                  1.0992         0.348119   
     62. B(H  60,N  12)                  1.0200         0.417157   
     63. B(H  61,C  13)                  1.1029         0.343424   
     64. B(H  62,N  15)                  1.0159         0.423413   
     65. B(H  63,C  16)                  1.0957         0.352696   
     66. B(H  64,C  16)                  1.1001         0.347008   
     67. B(H  65,C  17)                  1.1033         0.342956   
     68. B(H  66,C  18)                  1.1046         0.341351   
     69. B(H  67,N  20)                  1.0329         0.397789   
     70. B(H  68,C  21)                  1.1005         0.346460   
     71. B(H  69,O  44)                  3.1917         0.000143   
     72. B(H  69,N  23)                  1.0172         0.421427   
     73. B(H  70,C  24)                  1.1005         0.346439   
     74. B(H  71,C  25)                  1.0968         0.351181   
     75. B(H  72,C  25)                  1.0979         0.349765   
     76. B(H  73,C  25)                  1.0976         0.350132   
     77. B(H  74,C  27)                  1.1006         0.346374   
     78. B(H  75,C  27)                  1.1036         0.342510   
     79. B(H  76,C  28)                  1.1052         0.340544   
     80. B(H  77,C  29)                  1.1005         0.346504   
     81. B(H  78,C  29)                  1.1013         0.345467   
     82. B(H  79,C  29)                  1.0997         0.347527   
     83. B(H  80,C  30)                  1.0985         0.349073   
     84. B(H  81,C  30)                  1.0997         0.347458   
     85. B(H  82,C  30)                  1.1015         0.345265   
     86. B(H  83,C  33)                  1.0990         0.348362   
     87. B(H  84,H  58)                  3.4629         0.000011   
     88. B(H  84,C  33)                  1.1021         0.344463   
     89. B(H  85,C  34)                  1.1000         0.347164   
     90. B(H  86,C  34)                  1.1023         0.344133   
     91. B(H  87,C  35)                  1.1035         0.342705   
     92. B(H  88,C  35)                  1.1011         0.345728   
     93. B(H  89,H  73)                  2.3036         0.000799   
     94. B(H  89,C  36)                  1.1047         0.341171   
     95. B(H  90,C  36)                  1.1037         0.342432   
     96. B(H  91,C  37)                  1.1040         0.342061   
     97. B(H  92,H  52)                  4.4624         0.000000   
     98. B(H  92,C  37)                  1.1052         0.340566   
     99. B(H  93,C  38)                  1.1044         0.341589   
    100. B(H  94,C  38)                  1.1040         0.342037   
    101. B(H  95,C  39)                  1.1045         0.341421   
    102. B(H  96,C  39)                  1.1049         0.340872   
    103. B(H  97,C  40)                  1.1034         0.342835   
    104. B(H  98,C  40)                  1.1032         0.343004   
    105. B(H  99,C  41)                  1.0993         0.347957   
    106. B(H 100,C  41)                  1.1008         0.346035   
    107. B(H 101,C  41)                  1.1007         0.346212   
    108. B(H 102,O  43)                  0.9897         0.466171   
    109. B(H 103,C  45)                  1.1015         0.345259   
    110. B(H 104,C  45)                  1.0980         0.349661   
    111. B(H 105,C  46)                  1.0985         0.349070   
    112. B(H 106,C  46)                  1.0987         0.348792   
    113. B(H 107,C  46)                  1.1011         0.345650   
    114. B(H 108,C  48)                  1.1009         0.346000   
    115. B(H 109,C  49)                  1.0989         0.348580   
    116. B(H 110,C  49)                  1.0992         0.348163   
    117. B(H 111,C  49)                  1.1005         0.346536   
    118. B(H 112,C  50)                  1.1003         0.346719   
    119. B(H 113,C  50)                  1.0999         0.347287   
    120. B(H 114,C  50)                  1.0991         0.348245   
    121. A(O   0,C   1,N   9)          124.1965         0.469245   
    122. A(C   2,C   1,N   9)          114.0436         0.389618   
    123. A(O   0,C   1,C   2)          121.7538         0.422076   
    124. A(C   1,C   2,H  51)          108.0613         0.317607   
    125. A(N   6,C   2,H  51)          108.0324         0.323819   
    126. A(C   1,C   2,N   6)          112.7660         0.359483   
    127. A(C   1,C   2,C   3)          111.4310         0.358332   
    128. A(C   3,C   2,H  51)          113.7259         0.322820   
    129. A(C   3,C   2,N   6)          102.8084         0.365651   
    130. A(C   4,C   3,H  53)          112.6564         0.322300   
    131. A(C   4,C   3,H  52)          111.0254         0.321398   
    132. A(C   2,C   3,C   4)          102.8398         0.362710   
    133. A(C   2,C   3,H  53)          110.8811         0.323804   
    134. A(C   2,C   3,H  52)          109.8051         0.322896   
    135. A(H  52,C   3,H  53)          109.4746         0.288364   
    136. A(H  54,C   4,H  55)          108.2556         0.288278   
    137. A(C   3,C   4,H  55)          113.4227         0.321975   
    138. A(C   3,C   4,C   5)          103.5991         0.361296   
    139. A(C   3,C   4,H  54)          109.2744         0.321621   
    140. A(C   5,C   4,H  55)          111.8065         0.322265   
    141. A(C   5,C   4,H  54)          110.4236         0.321911   
    142. A(H  56,C   5,H  57)          108.1855         0.287696   
    143. A(C   4,C   5,N   6)          103.5065         0.365108   
    144. A(C   4,C   5,H  56)          113.0842         0.321932   
    145. A(N   6,C   5,H  57)          110.2378         0.324526   
    146. A(N   6,C   5,H  56)          110.6382         0.324900   
    147. A(C   4,C   5,H  57)          111.1529         0.321563   
    148. A(C   5,N   6,C   7)          126.4457         0.400885   
    149. A(C   2,N   6,C   7)          121.5114         0.399884   
    150. A(C   2,N   6,C   5)          111.7305         0.367728   
    151. A(O   8,C   7,C  24)          119.9369         0.424483   
    152. A(N   6,C   7,O   8)          121.8441         0.465989   
    153. A(N   6,C   7,C  24)          118.1368         0.398566   
    154. A(C   1,N   9,C  10)          121.2549         0.403581   
    155. A(C  10,N   9,H  58)          121.8534         0.333804   
    156. A(C   1,N   9,H  58)          116.8086         0.356068   
    157. A(C  48,C  10,H  59)          106.9305         0.316713   
    158. A(C  11,C  10,H  59)          105.1070         0.322109   
    159. A(N   9,C  10,C  11)          111.7127         0.369767   
    160. A(N   9,C  10,C  48)          111.9935         0.363268   
    161. A(N   9,C  10,H  59)          108.1318         0.328410   
    162. A(C  11,C  10,C  48)          112.5109         0.356050   
    163. A(N  12,C  11,O  47)          122.3570         0.466625   
    164. A(C  10,C  11,O  47)          121.2919         0.428458   
    165. A(C  10,C  11,N  12)          116.2870         0.393115   
    166. A(C  13,N  12,H  60)          114.7537         0.337115   
    167. A(C  11,N  12,C  13)          121.8467         0.403368   
    168. A(C  11,N  12,H  60)          122.0184         0.356009   
    169. A(C  14,C  13,C  45)          110.7362         0.358823   
    170. A(N  12,C  13,H  61)          109.2440         0.329228   
    171. A(C  14,C  13,H  61)          110.2766         0.322529   
    172. A(N  12,C  13,C  14)          106.9216         0.372975   
    173. A(C  45,C  13,H  61)          108.6618         0.317256   
    174. A(N  12,C  13,C  45)          110.9880         0.366564   
    175. A(C  13,C  14,N  15)          116.1625         0.398723   
    176. A(N  15,C  14,O  44)          123.0644         0.467110   
    177. A(C  13,C  14,O  44)          120.7025         0.426008   
    178. A(C  14,N  15,H  62)          118.2534         0.360524   
    179. A(C  16,N  15,H  62)          117.4862         0.337323   
    180. A(C  14,N  15,C  16)          124.2409         0.406805   
    181. A(H  63,C  16,H  64)          107.9608         0.288216   
    182. A(C  17,C  16,H  64)          106.6041         0.320888   
    183. A(N  15,C  16,H  63)          107.7947         0.330071   
    184. A(C  17,C  16,H  63)          111.8741         0.321743   
    185. A(N  15,C  16,C  17)          113.9249         0.369608   
    186. A(N  15,C  16,H  64)          108.4858         0.329186   
    187. A(O  43,C  17,H  65)          107.0810         0.335232   
    188. A(C  18,C  17,H  65)          106.3641         0.315873   
    189. A(C  16,C  17,H  65)          106.2227         0.320273   
    190. A(C  16,C  17,C  18)          115.8195         0.354761   
    191. A(C  18,C  17,O  43)          110.9500         0.371951   
    192. A(C  16,C  17,O  43)          109.8790         0.377438   
    193. A(C  19,C  18,H  66)          102.3869         0.320198   
    194. A(C  17,C  18,H  66)          103.7465         0.315632   
    195. A(C  17,C  18,C  32)          113.1282         0.355076   
    196. A(C  17,C  18,C  19)          111.8929         0.354958   
    197. A(C  19,C  18,C  32)          120.3761         0.360437   
    198. A(C  32,C  18,H  66)          102.6864         0.320302   
    199. A(C  18,C  19,N  20)          117.7486         0.391881   
    200. A(N  20,C  19,O  31)          123.1067         0.465816   
    201. A(C  18,C  19,O  31)          119.1036         0.426545   
    202. A(C  19,N  20,H  67)          120.3442         0.353078   
    203. A(C  19,N  20,C  21)          121.0242         0.401492   
    204. A(C  21,N  20,H  67)          116.3987         0.333063   
    205. A(C  27,C  21,H  68)          109.9194         0.321032   
    206. A(C  22,C  21,H  68)          105.6095         0.321122   
    207. A(N  20,C  21,H  68)          105.8297         0.328338   
    208. A(N  20,C  21,C  22)          113.6774         0.369101   
    209. A(C  22,C  21,C  27)          110.1942         0.360550   
    210. A(N  20,C  21,C  27)          111.3227         0.368991   
    211. A(C  21,C  22,N  23)          115.6240         0.394101   
    212. A(C  21,C  22,O  26)          121.2887         0.427163   
    213. A(N  23,C  22,O  26)          123.0828         0.468796   
    214. A(C  22,N  23,C  24)          122.4696         0.407064   
    215. A(C  24,N  23,H  69)          116.9287         0.339007   
    216. A(C  22,N  23,H  69)          120.5933         0.358342   
    217. A(C  25,C  24,H  70)          109.1145         0.319936   
    218. A(N  23,C  24,H  70)          107.8466         0.330982   
    219. A(C   7,C  24,H  70)          111.1826         0.322749   
    220. A(N  23,C  24,C  25)          110.8926         0.370755   
    221. A(C   7,C  24,N  23)          107.3862         0.374187   
    222. A(C   7,C  24,C  25)          110.3858         0.361169   
    223. A(H  71,C  25,H  73)          108.9882         0.288426   
    224. A(C  24,C  25,H  73)          109.8612         0.320491   
    225. A(H  71,C  25,H  72)          108.5415         0.288378   
    226. A(C  24,C  25,H  72)          112.1795         0.320436   
    227. A(C  24,C  25,H  71)          108.6557         0.320648   
    228. A(H  72,C  25,H  73)          108.5588         0.288243   
    229. A(C  28,C  27,H  75)          109.7248         0.320580   
    230. A(C  21,C  27,C  28)          114.4185         0.360619   
    231. A(H  74,C  27,H  75)          106.7842         0.286817   
    232. A(C  21,C  27,H  75)          108.3036         0.320430   
    233. A(C  28,C  27,H  74)          109.9005         0.321168   
    234. A(C  21,C  27,H  74)          107.4091         0.321019   
    235. A(C  29,C  28,C  30)          111.1985         0.362183   
    236. A(C  27,C  28,C  30)          112.1861         0.361517   
    237. A(C  27,C  28,C  29)          109.8091         0.361458   
    238. A(C  30,C  28,H  76)          107.5443         0.320894   
    239. A(C  29,C  28,H  76)          107.7074         0.320843   
    240. A(C  27,C  28,H  76)          108.2225         0.320278   
    241. A(C  28,C  29,H  79)          111.2145         0.321910   
    242. A(H  78,C  29,H  79)          107.6767         0.287351   
    243. A(H  77,C  29,H  79)          108.0643         0.287486   
    244. A(H  77,C  29,H  78)          107.6324         0.287219   
    245. A(C  28,C  29,H  78)          110.6526         0.321597   
    246. A(C  28,C  29,H  77)          111.4386         0.321755   
    247. A(H  81,C  30,H  82)          107.7905         0.287316   
    248. A(H  80,C  30,H  82)          108.3632         0.287524   
    249. A(C  28,C  30,H  82)          110.5743         0.321617   
    250. A(H  80,C  30,H  81)          107.3956         0.287809   
    251. A(C  28,C  30,H  81)          110.6890         0.321951   
    252. A(C  28,C  30,H  80)          111.8746         0.322196   
    253. A(C  33,C  32,O  42)          119.8885         0.436287   
    254. A(C  18,C  32,O  42)          118.5068         0.426630   
    255. A(C  18,C  32,C  33)          121.3118         0.368326   
    256. A(C  32,C  33,C  34)          113.4196         0.366514   
    257. A(C  34,C  33,H  84)          109.4448         0.319274   
    258. A(H  83,C  33,H  84)          106.8213         0.287328   
    259. A(C  32,C  33,H  84)          109.8861         0.327407   
    260. A(C  34,C  33,H  83)          110.4628         0.319862   
    261. A(C  32,C  33,H  83)          106.5720         0.328015   
    262. A(C  33,C  34,C  35)          111.3749         0.360086   
    263. A(H  85,C  34,H  86)          106.1283         0.287131   
    264. A(C  35,C  34,H  86)          109.7601         0.321834   
    265. A(C  33,C  34,H  86)          109.6904         0.319224   
    266. A(C  35,C  34,H  85)          109.4864         0.322297   
    267. A(C  33,C  34,H  85)          110.2637         0.319682   
    268. A(C  34,C  35,C  36)          113.1323         0.363528   
    269. A(H  87,C  35,H  88)          105.8861         0.286759   
    270. A(C  36,C  35,H  88)          109.6283         0.322391   
    271. A(C  34,C  35,H  88)          108.7643         0.322078   
    272. A(C  36,C  35,H  87)          109.7729         0.321927   
    273. A(C  34,C  35,H  87)          109.3961         0.321615   
    274. A(C  35,C  36,C  37)          112.8320         0.363574   
    275. A(H  89,C  36,H  90)          105.6476         0.286130   
    276. A(C  37,C  36,H  90)          109.6414         0.321612   
    277. A(C  35,C  36,H  90)          110.0601         0.321885   
    278. A(C  37,C  36,H  89)          109.2752         0.321418   
    279. A(C  35,C  36,H  89)          109.1281         0.321691   
    280. A(C  36,C  37,C  38)          113.6598         0.363384   
    281. A(H  91,C  37,H  92)          105.7083         0.286003   
    282. A(C  38,C  37,H  92)          109.1467         0.321437   
    283. A(C  36,C  37,H  92)          109.0629         0.321325   
    284. A(C  38,C  37,H  91)          109.5240         0.321667   
    285. A(C  36,C  37,H  91)          109.4323         0.321555   
    286. A(C  37,C  38,C  39)          113.4467         0.363422   
    287. A(H  93,C  38,H  94)          105.8724         0.286133   
    288. A(C  39,C  38,H  94)          109.3869         0.321584   
    289. A(C  37,C  38,H  94)          109.3571         0.321663   
    290. A(C  39,C  38,H  93)          109.2933         0.321515   
    291. A(C  37,C  38,H  93)          109.2058         0.321594   
    292. A(C  38,C  39,C  40)          113.6238         0.363131   
    293. A(H  95,C  39,H  96)          105.8476         0.285959   
    294. A(C  40,C  39,H  96)          109.2039         0.321237   
    295. A(C  38,C  39,H  96)          109.2508         0.321404   
    296. A(C  40,C  39,H  95)          109.2656         0.321322   
    297. A(C  38,C  39,H  95)          109.3566         0.321489   
    298. A(C  39,C  40,C  41)          113.1249         0.363193   
    299. A(H  97,C  40,H  98)          105.9272         0.286422   
    300. A(C  41,C  40,H  98)          109.6428         0.321786   
    301. A(C  39,C  40,H  98)          109.1034         0.321565   
    302. A(C  41,C  40,H  97)          109.6573         0.321760   
    303. A(C  39,C  40,H  97)          109.1300         0.321539   
    304. A(H 100,C  41,H 101)          107.4474         0.287255   
    305. A(H  99,C  41,H 101)          107.6839         0.287503   
    306. A(C  40,C  41,H 101)          111.1012         0.322277   
    307. A(H  99,C  41,H 100)          107.6665         0.287480   
    308. A(C  40,C  41,H 100)          111.1054         0.322250   
    309. A(C  40,C  41,H  99)          111.6433         0.322542   
    310. A(C  17,O  43,H 102)          104.9442         0.349871   
    311. A(C  13,C  45,C  46)          115.2379         0.358554   
    312. A(C  46,C  45,H 104)          109.1666         0.323248   
    313. A(C  13,C  45,H 104)          105.3514         0.318188   
    314. A(C  46,C  45,H 103)          110.8783         0.322577   
    315. A(C  13,C  45,H 103)          108.2520         0.317532   
    316. A(H 103,C  45,H 104)          107.5685         0.287599   
    317. A(H 106,C  46,H 107)          108.4827         0.287538   
    318. A(H 105,C  46,H 107)          107.1339         0.287574   
    319. A(C  45,C  46,H 107)          111.0873         0.322637   
    320. A(H 105,C  46,H 106)          107.0913         0.287981   
    321. A(C  45,C  46,H 106)          112.6915         0.323116   
    322. A(C  45,C  46,H 105)          110.1212         0.323158   
    323. A(C  50,C  48,H 108)          107.8419         0.321922   
    324. A(C  49,C  48,H 108)          108.3650         0.322153   
    325. A(C  10,C  48,H 108)          103.6667         0.316399   
    326. A(C  49,C  48,C  50)          111.6878         0.362967   
    327. A(C  10,C  48,C  50)          114.0359         0.356206   
    328. A(C  10,C  48,C  49)          110.7482         0.356470   
    329. A(H 110,C  49,H 111)          107.6805         0.287572   
    330. A(H 109,C  49,H 111)          107.5363         0.287626   
    331. A(C  48,C  49,H 111)          111.3904         0.322235   
    332. A(H 109,C  49,H 110)          108.1664         0.287837   
    333. A(C  48,C  49,H 110)          110.3760         0.322482   
    334. A(C  48,C  49,H 109)          111.5334         0.322545   
    335. A(H 113,C  50,H 114)          107.0901         0.287680   
    336. A(H 112,C  50,H 114)          107.3951         0.287606   
    337. A(C  48,C  50,H 114)          109.9658         0.322264   
    338. A(H 112,C  50,H 113)          108.3679         0.287483   
    339. A(C  48,C  50,H 113)          112.1451         0.322118   
    340. A(C  48,C  50,H 112)          111.6589         0.322032   
    341. D(H  51,C   2,C   1,N   9)    -60.2371         0.008840   
    342. D(C   3,C   2,C   1,N   9)    174.1255         0.008840   
    343. D(N   6,C   2,C   1,N   9)     59.1010         0.008840   
    344. D(N   6,C   2,C   1,O   0)   -121.7651         0.008840   
    345. D(C   3,C   2,C   1,O   0)     -6.7406         0.008840   
    346. D(H  51,C   2,C   1,O   0)    118.8968         0.008840   
    347. D(C   4,C   3,C   2,N   6)     34.6370         0.011335   
    348. D(H  53,C   3,C   2,H  51)    -88.1810         0.011335   
    349. D(H  53,C   3,C   2,C   1)     34.2530         0.011335   
    350. D(C   4,C   3,C   2,H  51)    151.1681         0.011335   
    351. D(H  53,C   3,C   2,N   6)    155.2878         0.011335   
    352. D(H  52,C   3,C   2,H  51)     32.9260         0.011335   
    353. D(C   4,C   3,C   2,C   1)    -86.3978         0.011335   
    354. D(H  52,C   3,C   2,C   1)    155.3601         0.011335   
    355. D(H  52,C   3,C   2,N   6)    -83.6051         0.011335   
    356. D(H  55,C   4,C   3,H  53)     79.7321         0.010746   
    357. D(H  55,C   4,C   3,H  52)    -43.4621         0.010746   
    358. D(H  54,C   4,C   3,H  52)   -164.3361         0.010746   
    359. D(H  55,C   4,C   3,C   2)   -160.8432         0.010746   
    360. D(H  54,C   4,C   3,H  53)    -41.1419         0.010746   
    361. D(C   5,C   4,C   3,C   2)    -39.4232         0.010746   
    362. D(H  54,C   4,C   3,C   2)     78.2829         0.010746   
    363. D(C   5,C   4,C   3,H  53)   -158.8479         0.010746   
    364. D(C   5,C   4,C   3,H  52)     77.9579         0.010746   
    365. D(N   6,C   5,C   4,C   3)     28.3380         0.010857   
    366. D(H  57,C   5,C   4,C   3)    -89.9821         0.010857   
    367. D(H  56,C   5,C   4,H  55)    -89.3996         0.010857   
    368. D(H  56,C   5,C   4,C   3)    148.1013         0.010857   
    369. D(H  57,C   5,C   4,H  54)    153.1154         0.010857   
    370. D(H  56,C   5,C   4,H  54)     31.1988         0.010857   
    371. D(H  57,C   5,C   4,H  55)     32.5170         0.010857   
    372. D(N   6,C   5,C   4,H  54)    -88.5645         0.010857   
    373. D(N   6,C   5,C   4,H  55)    150.8371         0.010857   
    374. D(C   5,N   6,C   2,C   3)    -17.6813         0.013555   
    375. D(C   7,N   6,C   5,H  57)    -61.3667         0.013938   
    376. D(C   7,N   6,C   5,H  56)     58.2567         0.013938   
    377. D(C   7,N   6,C   5,C   4)    179.6800         0.013938   
    378. D(C   2,N   6,C   5,H  57)    112.2445         0.013938   
    379. D(C   2,N   6,C   5,H  56)   -128.1321         0.013938   
    380. D(C   7,N   6,C   2,H  51)     35.7640         0.013555   
    381. D(C   2,N   6,C   5,C   4)     -6.7088         0.013938   
    382. D(C   7,N   6,C   2,C   3)    156.2918         0.013555   
    383. D(C   5,N   6,C   2,C   1)    102.4360         0.013555   
    384. D(C   7,N   6,C   2,C   1)    -83.5908         0.013555   
    385. D(C   5,N   6,C   2,H  51)   -138.2091         0.013555   
    386. D(C  24,C   7,N   6,C   5)      7.3185         0.035017   
    387. D(C  24,C   7,N   6,C   2)   -165.7174         0.035017   
    388. D(O   8,C   7,N   6,C   5)   -175.9830         0.035017   
    389. D(O   8,C   7,N   6,C   2)     10.9811         0.035017   
    390. D(H  58,N   9,C   1,O   0)   -176.4815         0.032816   
    391. D(C  10,N   9,C   1,C   2)    179.3737         0.032816   
    392. D(H  58,N   9,C   1,C   2)      2.6281         0.032816   
    393. D(C  10,N   9,C   1,O   0)      0.2641         0.032816   
    394. D(H  59,C  10,N   9,C   1)    -47.6535         0.015949   
    395. D(C  48,C  10,N   9,H  58)   -113.5093         0.015949   
    396. D(C  48,C  10,N   9,C   1)     69.9105         0.015949   
    397. D(C  11,C  10,N   9,C   1)   -162.8409         0.015949   
    398. D(H  59,C  10,N   9,H  58)    128.9267         0.015949   
    399. D(C  11,C  10,N   9,H  58)     13.7393         0.015949   
    400. D(O  47,C  11,C  10,N   9)    130.0721         0.010285   
    401. D(N  12,C  11,C  10,H  59)   -169.8048         0.010285   
    402. D(N  12,C  11,C  10,C  48)     74.1938         0.010285   
    403. D(N  12,C  11,C  10,N   9)    -52.7749         0.010285   
    404. D(O  47,C  11,C  10,H  59)     13.0422         0.010285   
    405. D(O  47,C  11,C  10,C  48)   -102.9592         0.010285   
    406. D(H  60,N  12,C  11,O  47)    174.8527         0.030648   
    407. D(H  60,N  12,C  11,C  10)     -2.2672         0.030648   
    408. D(C  13,N  12,C  11,O  47)      8.9749         0.030648   
    409. D(C  13,N  12,C  11,C  10)   -168.1450         0.030648   
    410. D(H  61,C  13,N  12,C  11)    -55.3162         0.016895   
    411. D(H  61,C  13,N  12,H  60)    137.8518         0.016895   
    412. D(C  45,C  13,N  12,H  60)   -102.3516         0.016895   
    413. D(C  45,C  13,N  12,C  11)     64.4805         0.016895   
    414. D(C  14,C  13,N  12,C  11)   -174.6490         0.016895   
    415. D(C  14,C  13,N  12,H  60)     18.5189         0.016895   
    416. D(O  44,C  14,C  13,C  45)    100.9091         0.010707   
    417. D(O  44,C  14,C  13,N  12)    -20.1214         0.010707   
    418. D(N  15,C  14,C  13,H  61)     44.1782         0.010707   
    419. D(N  15,C  14,C  13,C  45)    -76.1277         0.010707   
    420. D(O  44,C  14,C  13,H  61)   -138.7850         0.010707   
    421. D(N  15,C  14,C  13,N  12)    162.8418         0.010707   
    422. D(H  62,N  15,C  14,O  44)    173.5280         0.034839   
    423. D(H  62,N  15,C  14,C  13)     -9.5122         0.034839   
    424. D(C  16,N  15,C  14,O  44)     -4.8216         0.034839   
    425. D(C  16,N  15,C  14,C  13)    172.1382         0.034839   
    426. D(H  64,C  16,N  15,H  62)     52.6773         0.016519   
    427. D(H  64,C  16,N  15,C  14)   -128.9614         0.016519   
    428. D(H  63,C  16,N  15,H  62)    169.3430         0.016519   
    429. D(H  63,C  16,N  15,C  14)    -12.2957         0.016519   
    430. D(C  17,C  16,N  15,C  14)    112.4870         0.016519   
    431. D(C  17,C  16,N  15,H  62)    -65.8742         0.016519   
    432. D(H  65,C  17,C  16,H  64)     60.9757         0.010577   
    433. D(H  65,C  17,C  16,H  63)    -56.8292         0.010577   
    434. D(H  65,C  17,C  16,N  15)   -179.4032         0.010577   
    435. D(O  43,C  17,C  16,H  64)    -54.5230         0.010577   
    436. D(O  43,C  17,C  16,H  63)   -172.3279         0.010577   
    437. D(O  43,C  17,C  16,N  15)     65.0981         0.010577   
    438. D(C  18,C  17,C  16,H  64)    178.7987         0.010577   
    439. D(C  18,C  17,C  16,H  63)     60.9937         0.010577   
    440. D(C  18,C  17,C  16,N  15)    -61.5802         0.010577   
    441. D(H  66,C  18,C  17,H  65)    -62.5192         0.009051   
    442. D(H  66,C  18,C  17,O  43)     53.5985         0.009051   
    443. D(H  66,C  18,C  17,C  16)    179.7363         0.009051   
    444. D(C  32,C  18,C  17,O  43)    -56.9096         0.009051   
    445. D(C  32,C  18,C  17,C  16)     69.2283         0.009051   
    446. D(C  32,C  18,C  17,H  65)   -173.0272         0.009051   
    447. D(C  19,C  18,C  17,H  65)     47.1330         0.009051   
    448. D(C  19,C  18,C  17,O  43)    163.2507         0.009051   
    449. D(C  19,C  18,C  17,C  16)    -70.6115         0.009051   
    450. D(O  31,C  19,C  18,H  66)      9.5950         0.009971   
    451. D(O  31,C  19,C  18,C  32)    122.5096         0.009971   
    452. D(O  31,C  19,C  18,C  17)   -100.9203         0.009971   
    453. D(N  20,C  19,C  18,H  66)   -172.6632         0.009971   
    454. D(N  20,C  19,C  18,C  17)     76.8215         0.009971   
    455. D(N  20,C  19,C  18,C  32)    -59.7486         0.009971   
    456. D(H  67,N  20,C  19,O  31)    171.3662         0.030567   
    457. D(H  67,N  20,C  19,C  18)     -6.2782         0.030567   
    458. D(C  21,N  20,C  19,O  31)      8.9516         0.030567   
    459. D(C  21,N  20,C  19,C  18)   -168.6928         0.030567   
    460. D(H  68,C  21,N  20,H  67)   -172.0976         0.016060   
    461. D(H  68,C  21,N  20,C  19)     -9.0209         0.016060   
    462. D(C  27,C  21,N  20,H  67)    -52.7028         0.016060   
    463. D(C  27,C  21,N  20,C  19)    110.3739         0.016060   
    464. D(C  22,C  21,N  20,H  67)     72.4525         0.016060   
    465. D(C  22,C  21,N  20,C  19)   -124.4708         0.016060   
    466. D(N  23,C  22,C  21,C  27)    130.2787         0.010023   
    467. D(N  23,C  22,C  21,N  20)      4.5227         0.010023   
    468. D(O  26,C  22,C  21,H  68)     68.1953         0.010023   
    469. D(O  26,C  22,C  21,C  27)    -50.4689         0.010023   
    470. D(O  26,C  22,C  21,N  20)   -176.2249         0.010023   
    471. D(N  23,C  22,C  21,H  68)   -111.0571         0.010023   
    472. D(H  69,N  23,C  22,O  26)    179.3038         0.032576   
    473. D(H  69,N  23,C  22,C  21)     -1.4587         0.032576   
    474. D(C  24,N  23,C  22,O  26)     -1.7843         0.032576   
    475. D(C  24,N  23,C  22,C  21)    177.4532         0.032576   
    476. D(H  70,C  24,N  23,H  69)   -144.7507         0.017715   
    477. D(H  70,C  24,N  23,C  22)     36.2999         0.017715   
    478. D(C  25,C  24,N  23,H  69)     95.8352         0.017715   
    479. D(C  25,C  24,N  23,C  22)    -83.1143         0.017715   
    480. D(C   7,C  24,N  23,H  69)    -24.8437         0.017715   
    481. D(C   7,C  24,N  23,C  22)    156.2068         0.017715   
    482. D(H  70,C  24,C   7,O   8)    140.0652         0.010616   
    483. D(H  70,C  24,C   7,N   6)    -43.1711         0.010616   
    484. D(C  25,C  24,C   7,O   8)    -98.6925         0.010616   
    485. D(C  25,C  24,C   7,N   6)     78.0712         0.010616   
    486. D(N  23,C  24,C   7,O   8)     22.3062         0.010616   
    487. D(N  23,C  24,C   7,N   6)   -160.9301         0.010616   
    488. D(H  73,C  25,C  24,H  70)   -178.1676         0.010256   
    489. D(H  73,C  25,C  24,N  23)    -59.5169         0.010256   
    490. D(H  73,C  25,C  24,C   7)     59.3687         0.010256   
    491. D(H  72,C  25,C  24,H  70)     60.9878         0.010256   
    492. D(H  72,C  25,C  24,N  23)    179.6385         0.010256   
    493. D(H  72,C  25,C  24,C   7)    -61.4759         0.010256   
    494. D(H  71,C  25,C  24,H  70)    -59.0178         0.010256   
    495. D(H  71,C  25,C  24,N  23)     59.6328         0.010256   
    496. D(H  71,C  25,C  24,C   7)    178.5184         0.010256   
    497. D(H  75,C  27,C  21,H  68)    174.1256         0.010662   
    498. D(H  75,C  27,C  21,C  22)    -69.8831         0.010662   
    499. D(H  75,C  27,C  21,N  20)     57.1952         0.010662   
    500. D(H  74,C  27,C  21,H  68)    -70.8832         0.010662   
    501. D(H  74,C  27,C  21,C  22)     45.1081         0.010662   
    502. D(H  74,C  27,C  21,N  20)    172.1863         0.010662   
    503. D(C  28,C  27,C  21,H  68)     51.4017         0.010662   
    504. D(C  28,C  27,C  21,C  22)    167.3930         0.010662   
    505. D(C  28,C  27,C  21,N  20)    -65.5287         0.010662   
    506. D(H  76,C  28,C  27,H  75)    -67.5916         0.010719   
    507. D(H  76,C  28,C  27,H  74)    175.2763         0.010719   
    508. D(H  76,C  28,C  27,C  21)     54.3587         0.010719   
    509. D(C  30,C  28,C  27,H  75)    173.9192         0.010719   
    510. D(C  30,C  28,C  27,H  74)     56.7872         0.010719   
    511. D(C  30,C  28,C  27,C  21)    -64.1305         0.010719   
    512. D(C  29,C  28,C  27,H  75)     49.7271         0.010719   
    513. D(C  29,C  28,C  27,H  74)    -67.4049         0.010719   
    514. D(C  29,C  28,C  27,C  21)    171.6774         0.010719   
    515. D(H  79,C  29,C  28,C  30)     57.4012         0.010938   
    516. D(H  79,C  29,C  28,C  27)   -177.8346         0.010938   
    517. D(H  78,C  29,C  28,H  76)   -179.8247         0.010938   
    518. D(H  78,C  29,C  28,C  30)    -62.2287         0.010938   
    519. D(H  78,C  29,C  28,C  27)     62.5354         0.010938   
    520. D(H  77,C  29,C  28,H  76)     60.4539         0.010938   
    521. D(H  77,C  29,C  28,C  30)    178.0499         0.010938   
    522. D(H  79,C  29,C  28,H  76)    -60.1948         0.010938   
    523. D(H  77,C  29,C  28,C  27)    -57.1859         0.010938   
    524. D(H  82,C  30,C  28,H  76)   -176.9786         0.010958   
    525. D(H  82,C  30,C  28,C  29)     65.3265         0.010958   
    526. D(H  82,C  30,C  28,C  27)    -58.0896         0.010958   
    527. D(H  81,C  30,C  28,H  76)     63.6411         0.010958   
    528. D(H  81,C  30,C  28,C  29)    -54.0539         0.010958   
    529. D(H  81,C  30,C  28,C  27)   -177.4699         0.010958   
    530. D(H  80,C  30,C  28,H  76)    -56.0939         0.010958   
    531. D(H  80,C  30,C  28,C  29)   -173.7888         0.010958   
    532. D(H  80,C  30,C  28,C  27)     62.7951         0.010958   
    533. D(O  42,C  32,C  18,H  66)    -72.7510         0.010008   
    534. D(O  42,C  32,C  18,C  19)    174.4926         0.010008   
    535. D(O  42,C  32,C  18,C  17)     38.4112         0.010008   
    536. D(C  33,C  32,C  18,H  66)    101.0254         0.010008   
    537. D(C  33,C  32,C  18,C  19)    -11.7310         0.010008   
    538. D(C  33,C  32,C  18,C  17)   -147.8124         0.010008   
    539. D(H  84,C  33,C  32,O  42)   -117.0352         0.012667   
    540. D(H  84,C  33,C  32,C  18)     69.2732         0.012667   
    541. D(H  83,C  33,C  32,O  42)     -1.6490         0.012667   
    542. D(H  83,C  33,C  32,C  18)   -175.3407         0.012667   
    543. D(C  34,C  33,C  32,O  42)    120.1130         0.012667   
    544. D(C  34,C  33,C  32,C  18)    -53.5787         0.012667   
    545. D(H  86,C  34,C  33,H  84)   -166.9598         0.010125   
    546. D(H  86,C  34,C  33,H  83)     75.6986         0.010125   
    547. D(H  86,C  34,C  33,C  32)    -43.8649         0.010125   
    548. D(H  85,C  34,C  33,H  84)    -50.4324         0.010125   
    549. D(H  85,C  34,C  33,H  83)   -167.7740         0.010125   
    550. D(H  85,C  34,C  33,C  32)     72.6625         0.010125   
    551. D(C  35,C  34,C  33,H  84)     71.3271         0.010125   
    552. D(C  35,C  34,C  33,H  83)    -46.0145         0.010125   
    553. D(C  35,C  34,C  33,C  32)   -165.5780         0.010125   
    554. D(H  88,C  35,C  34,H  86)   -171.0399         0.011111   
    555. D(H  88,C  35,C  34,H  85)     72.8422         0.011111   
    556. D(H  88,C  35,C  34,C  33)    -49.3673         0.011111   
    557. D(H  87,C  35,C  34,H  86)    -55.8197         0.011111   
    558. D(H  87,C  35,C  34,H  85)   -171.9376         0.011111   
    559. D(H  87,C  35,C  34,C  33)     65.8530         0.011111   
    560. D(C  36,C  35,C  34,H  86)     66.8921         0.011111   
    561. D(C  36,C  35,C  34,H  85)    -49.2258         0.011111   
    562. D(C  36,C  35,C  34,C  33)   -171.4353         0.011111   
    563. D(H  90,C  36,C  35,H  87)     61.7468         0.011236   
    564. D(H  90,C  36,C  35,C  34)    -60.7554         0.011236   
    565. D(H  89,C  36,C  35,H  88)    -66.8352         0.011236   
    566. D(H  89,C  36,C  35,H  87)    177.2503         0.011236   
    567. D(H  89,C  36,C  35,C  34)     54.7481         0.011236   
    568. D(C  37,C  36,C  35,H  88)     54.8413         0.011236   
    569. D(C  37,C  36,C  35,H  87)    -61.0732         0.011236   
    570. D(H  90,C  36,C  35,H  88)    177.6612         0.011236   
    571. D(C  37,C  36,C  35,C  34)    176.4246         0.011236   
    572. D(H  92,C  37,C  36,H  90)   -177.5304         0.011127   
    573. D(H  92,C  37,C  36,H  89)     67.1162         0.011127   
    574. D(H  92,C  37,C  36,C  35)    -54.4772         0.011127   
    575. D(H  91,C  37,C  36,H  90)    -62.3380         0.011127   
    576. D(H  91,C  37,C  36,H  89)   -177.6914         0.011127   
    577. D(H  91,C  37,C  36,C  35)     60.7152         0.011127   
    578. D(C  38,C  37,C  36,H  90)     60.4464         0.011127   
    579. D(C  38,C  37,C  36,H  89)    -54.9070         0.011127   
    580. D(C  38,C  37,C  36,C  35)   -176.5003         0.011127   
    581. D(H  94,C  38,C  37,H  92)    179.0426         0.011171   
    582. D(H  94,C  38,C  37,H  91)     63.7534         0.011171   
    583. D(H  94,C  38,C  37,C  36)    -58.9806         0.011171   
    584. D(H  93,C  38,C  37,H  92)    -65.5311         0.011171   
    585. D(H  93,C  38,C  37,H  91)    179.1796         0.011171   
    586. D(H  93,C  38,C  37,C  36)     56.4456         0.011171   
    587. D(C  39,C  38,C  37,H  92)     56.6399         0.011171   
    588. D(C  39,C  38,C  37,H  91)    -58.6493         0.011171   
    589. D(C  39,C  38,C  37,C  36)    178.6166         0.011171   
    590. D(H  95,C  39,C  38,H  94)    -64.6284         0.011140   
    591. D(H  95,C  39,C  38,H  93)    179.8802         0.011140   
    592. D(H  95,C  39,C  38,C  37)     57.7578         0.011140   
    593. D(C  40,C  39,C  38,H  94)     57.7399         0.011140   
    594. D(C  40,C  39,C  38,H  93)    -57.7515         0.011140   
    595. D(C  40,C  39,C  38,C  37)   -179.8739         0.011140   
    596. D(H  96,C  39,C  38,H  94)    179.9504         0.011140   
    597. D(H  96,C  39,C  38,H  93)     64.4590         0.011140   
    598. D(H  96,C  39,C  38,C  37)    -57.6634         0.011140   
    599. D(H  98,C  40,C  39,H  95)     64.4724         0.011073   
    600. D(H  98,C  40,C  39,C  38)    -57.9461         0.011073   
    601. D(H  97,C  40,C  39,H  96)    -64.8723         0.011073   
    602. D(H  97,C  40,C  39,H  95)    179.7826         0.011073   
    603. D(H  97,C  40,C  39,C  38)     57.3641         0.011073   
    604. D(C  41,C  40,C  39,H  96)     57.4915         0.011073   
    605. D(C  41,C  40,C  39,H  95)    -57.8535         0.011073   
    606. D(H  98,C  40,C  39,H  96)    179.8175         0.011073   
    607. D(C  41,C  40,C  39,C  38)    179.7280         0.011073   
    608. D(H 101,C  41,C  40,H  98)    -62.3092         0.011161   
    609. D(H 101,C  41,C  40,H  97)   -178.2155         0.011161   
    610. D(H 101,C  41,C  40,C  39)     59.7152         0.011161   
    611. D(H 100,C  41,C  40,H  98)    178.1243         0.011161   
    612. D(H 100,C  41,C  40,H  97)     62.2180         0.011161   
    613. D(H 100,C  41,C  40,C  39)    -59.8513         0.011161   
    614. D(H  99,C  41,C  40,H  98)     57.9172         0.011161   
    615. D(H  99,C  41,C  40,H  97)    -57.9891         0.011161   
    616. D(H  99,C  41,C  40,C  39)    179.9416         0.011161   
    617. D(H 102,O  43,C  17,H  65)    153.1035         0.019525   
    618. D(H 102,O  43,C  17,C  18)     37.4295         0.019525   
    619. D(H 102,O  43,C  17,C  16)    -91.9427         0.019525   
    620. D(H 104,C  45,C  13,H  61)     71.7931         0.009479   
    621. D(H 104,C  45,C  13,C  14)   -166.9427         0.009479   
    622. D(H 104,C  45,C  13,N  12)    -48.3503         0.009479   
    623. D(H 103,C  45,C  13,H  61)   -173.3638         0.009479   
    624. D(H 103,C  45,C  13,C  14)    -52.0996         0.009479   
    625. D(H 103,C  45,C  13,N  12)     66.4928         0.009479   
    626. D(C  46,C  45,C  13,H  61)    -48.5913         0.009479   
    627. D(C  46,C  45,C  13,C  14)     72.6729         0.009479   
    628. D(C  46,C  45,C  13,N  12)   -168.7347         0.009479   
    629. D(H 107,C  46,C  45,H 104)    -65.2809         0.011340   
    630. D(H 107,C  46,C  45,H 103)    176.3861         0.011340   
    631. D(H 107,C  46,C  45,C  13)     52.9933         0.011340   
    632. D(H 106,C  46,C  45,H 104)    172.7463         0.011340   
    633. D(H 106,C  46,C  45,H 103)     54.4134         0.011340   
    634. D(H 106,C  46,C  45,C  13)    -68.9794         0.011340   
    635. D(H 105,C  46,C  45,H 104)     53.2446         0.011340   
    636. D(H 105,C  46,C  45,H 103)    -65.0883         0.011340   
    637. D(H 105,C  46,C  45,C  13)    171.5188         0.011340   
    638. D(H 108,C  48,C  10,H  59)     55.5849         0.009073   
    639. D(H 108,C  48,C  10,C  11)    170.4862         0.009073   
    640. D(H 108,C  48,C  10,N   9)    -62.6951         0.009073   
    641. D(C  50,C  48,C  10,H  59)    172.5662         0.009073   
    642. D(C  50,C  48,C  10,C  11)    -72.5325         0.009073   
    643. D(C  50,C  48,C  10,N   9)     54.2862         0.009073   
    644. D(C  49,C  48,C  10,H  59)    -60.4458         0.009073   
    645. D(C  49,C  48,C  10,C  11)     54.4555         0.009073   
    646. D(C  49,C  48,C  10,N   9)   -178.7258         0.009073   
    647. D(H 111,C  49,C  48,C  50)     60.0435         0.011125   
    648. D(H 111,C  49,C  48,C  10)    -68.2288         0.011125   
    649. D(H 110,C  49,C  48,H 108)     59.1267         0.011125   
    650. D(H 110,C  49,C  48,C  50)    -59.5232         0.011125   
    651. D(H 110,C  49,C  48,C  10)    172.2045         0.011125   
    652. D(H 109,C  49,C  48,H 108)    -61.1450         0.011125   
    653. D(H 109,C  49,C  48,C  50)   -179.7948         0.011125   
    654. D(H 111,C  49,C  48,H 108)    178.6934         0.011125   
    655. D(H 109,C  49,C  48,C  10)     51.9328         0.011125   
    656. D(H 114,C  50,C  48,H 108)    -52.4450         0.011033   
    657. D(H 114,C  50,C  48,C  49)     66.5159         0.011033   
    658. D(H 114,C  50,C  48,C  10)   -166.9848         0.011033   
    659. D(H 113,C  50,C  48,H 108)   -171.4850         0.011033   
    660. D(H 113,C  50,C  48,C  49)    -52.5241         0.011033   
    661. D(H 113,C  50,C  48,C  10)     73.9752         0.011033   
    662. D(H 112,C  50,C  48,H 108)     66.6665         0.011033   
    663. D(H 112,C  50,C  48,C  49)   -174.3726         0.011033   
    664. D(H 112,C  50,C  48,C  10)    -47.8733         0.011033   
    -----------------------------------------------------------------

Number of atoms                         .... 115
Number of degrees of freedom            .... 664

         *************************************************************
         *                GEOMETRY OPTIMIZATION CYCLE   1            *
         *************************************************************
---------------------------------
CARTESIAN COORDINATES (ANGSTROEM)
---------------------------------
  O      5.781472    2.047837   -1.401012
  C      4.604296    1.694734   -1.313214
  C      3.432268    2.681358   -1.577603
  C      3.938562    4.108549   -1.778070
  C      4.018708    4.646924   -0.342526
  C      2.766811    4.069478    0.329613
  N      2.522185    2.815736   -0.415090
  C      1.526566    1.935166   -0.194721
  O      1.442638    0.861419   -0.830364
  N      4.207536    0.436238   -1.003405
  C      5.179310   -0.620812   -0.738330
  C      4.542974   -2.011583   -0.829302
  N      3.421925   -2.213245   -0.078819
  C      2.866628   -3.539144    0.128243
  C      1.558339   -3.358356    0.893239
  N      0.711346   -4.406840    0.878280
  C     -0.502285   -4.490609    1.677128
  C     -1.797449   -4.454896    0.849221
  C     -2.034571   -3.158203    0.013707
  C     -2.363355   -1.952507    0.907918
  N     -1.333047   -1.356634    1.574973
  C     -1.584564   -0.373545    2.623540
  C     -0.885746    0.973526    2.386566
  N     -0.223485    1.091590    1.208775
  C      0.440118    2.312943    0.810387
  C     -0.559812    3.300018    0.174904
  O     -0.946407    1.881227    3.218287
  C     -1.214473   -0.926660    4.008330
  C     -2.082949   -2.104231    4.474421
  C     -1.499503   -2.703517    5.758794
  C     -3.548909   -1.701461    4.667020
  O     -3.538599   -1.594627    1.024767
  C     -1.056056   -3.010061   -1.161167
  C     -0.599695   -1.658274   -1.631405
  C     -1.763067   -0.696615   -1.956431
  C     -1.278085    0.515979   -2.754301
  C     -2.349565    1.593903   -2.919413
  C     -1.832249    2.839565   -3.642104
  C     -2.864472    3.963923   -3.742760
  C     -2.331591    5.219286   -4.436419
  C     -3.360546    6.348407   -4.536639
  C     -2.813943    7.599931   -5.225936
  O     -0.736981   -4.021150   -1.793147
  O     -1.877291   -5.611974    0.026039
  O      1.335429   -2.313206    1.534709
  C      3.851685   -4.436467    0.927358
  C      3.492043   -5.920368    0.970724
  O      5.054902   -2.906563   -1.503348
  C      5.934194   -0.396210    0.608610
  C      6.966144   -1.501650    0.842572
  C      5.012079   -0.217592    1.818196
  H      2.846851    2.296133   -2.425659
  H      3.213070    4.680997   -2.374234
  H      4.909648    4.110728   -2.284240
  H      4.926304    4.259222    0.140036
  H      4.041828    5.742107   -0.288280
  H      2.908568    3.863128    1.399189
  H      1.908671    4.749816    0.221894
  H      3.195798    0.252730   -1.015453
  H      5.934955   -0.598756   -1.536314
  H      3.046374   -1.492008    0.536895
  H      2.675131   -4.009969   -0.850561
  H      0.915586   -5.181165    0.253155
  H     -0.470365   -3.685904    2.420023
  H     -0.499831   -5.449816    2.215730
  H     -2.627812   -4.514354    1.573228
  H     -2.997169   -3.345776   -0.494491
  H     -0.387042   -1.770624    1.550944
  H     -2.663150   -0.159052    2.581476
  H     -0.188921    0.313874    0.554069
  H      0.874386    2.770450    1.712197
  H     -1.340232    3.530946    0.910191
  H     -0.078687    4.238625   -0.130021
  H     -1.024973    2.842969   -0.708016
  H     -1.292775   -0.096199    4.726298
  H     -0.153902   -1.231244    3.987777
  H     -2.052100   -2.886461    3.694273
  H     -0.457193   -3.025898    5.614883
  H     -1.509962   -1.962064    6.573032
  H     -2.082720   -3.574062    6.092399
  H     -4.010056   -1.372689    3.725809
  H     -4.138728   -2.549928    5.043342
  H     -3.632396   -0.882604    5.398934
  H      0.018397   -1.829074   -2.523950
  H      0.055057   -1.198956   -0.873172
  H     -2.246335   -0.356094   -1.028849
  H     -2.539221   -1.232190   -2.527317
  H     -0.925685    0.184893   -3.746198
  H     -0.398109    0.943498   -2.249065
  H     -2.729841    1.881928   -1.923025
  H     -3.218486    1.183904   -3.462570
  H     -1.489797    2.561411   -4.654107
  H     -0.936236    3.216109   -3.115984
  H     -3.214247    4.227809   -2.729032
  H     -3.754333    3.596441   -4.283075
  H     -1.979472    4.956125   -5.449670
  H     -1.441738    5.585614   -3.893416
  H     -3.713636    6.606806   -3.523727
  H     -4.246841    5.981886   -5.081874
  H     -3.572096    8.393769   -5.285668
  H     -1.947429    8.005802   -4.681617
  H     -2.483657    7.375164   -6.251579
  H     -1.461162   -5.344539   -0.831206
  H      3.944922   -4.025258    1.944914
  H      4.823407   -4.315413    0.430646
  H      4.312575   -6.495042    1.421401
  H      2.591560   -6.120972    1.567380
  H      3.335013   -6.319761   -0.043354
  H      6.471143    0.551808    0.450908
  H      7.628661   -1.625189   -0.025346
  H      7.588078   -1.265648    1.717609
  H      6.480326   -2.471197    1.029533
  H      4.209176    0.506335    1.613370
  H      4.551895   -1.165880    2.132326
  H      5.586261    0.162223    2.674995

----------------------------
CARTESIAN COORDINATES (A.U.)
----------------------------
  NO LB      ZA    FRAG     MASS         X           Y           Z
   0 O     8.0000    0    15.999   10.925399    3.869851   -2.647528
   1 C     6.0000    0    12.011    8.700858    3.202584   -2.481616
   2 C     6.0000    0    12.011    6.486046    5.067033   -2.981238
   3 C     6.0000    0    12.011    7.442804    7.764032   -3.360065
   4 C     6.0000    0    12.011    7.594258    8.781414   -0.647280
   5 C     6.0000    0    12.011    5.228515    7.690198    0.622879
   6 N     7.0000    0    14.007    4.766239    5.320970   -0.784407
   7 C     6.0000    0    12.011    2.884792    3.656934   -0.367970
   8 O     8.0000    0    15.999    2.726190    1.627846   -1.569160
   9 N     7.0000    0    14.007    7.951090    0.824370   -1.896160
  10 C     6.0000    0    12.011    9.787477   -1.173165   -1.395241
  11 C     6.0000    0    12.011    8.584977   -3.801341   -1.567153
  12 N     7.0000    0    14.007    6.466500   -4.182426   -0.148947
  13 C     6.0000    0    12.011    5.417141   -6.688013    0.242344
  14 C     6.0000    0    12.011    2.944834   -6.346373    1.687976
  15 N     7.0000    0    14.007    1.344249   -8.327721    1.659708
  16 C     6.0000    0    12.011   -0.949181   -8.486020    3.169313
  17 C     6.0000    0    12.011   -3.396687   -8.418534    1.604795
  18 C     6.0000    0    12.011   -3.844782   -5.968139    0.025902
  19 C     6.0000    0    12.011   -4.466094   -3.689704    1.715716
  20 N     7.0000    0    14.007   -2.519094   -2.563666    2.976268
  21 C     6.0000    0    12.011   -2.994391   -0.705899    4.957772
  22 C     6.0000    0    12.011   -1.673818    1.839697    4.509956
  23 N     7.0000    0    14.007   -0.422325    2.062807    2.284253
  24 C     6.0000    0    12.011    0.831703    4.370829    1.531410
  25 C     6.0000    0    12.011   -1.057891    6.236131    0.330521
  26 O     8.0000    0    15.999   -1.788450    3.555004    6.081681
  27 C     6.0000    0    12.011   -2.295021   -1.751133    7.574646
  28 C     6.0000    0    12.011   -3.936203   -3.976420    8.455430
  29 C     6.0000    0    12.011   -2.833650   -5.108906   10.882543
  30 C     6.0000    0    12.011   -6.706465   -3.215295    8.819390
  31 O     8.0000    0    15.999   -6.686983   -3.013409    1.936529
  32 C     6.0000    0    12.011   -1.995656   -5.688190   -2.194287
  33 C     6.0000    0    12.011   -1.133260   -3.133684   -3.082908
  34 C     6.0000    0    12.011   -3.331714   -1.316411   -3.697118
  35 C     6.0000    0    12.011   -2.415230    0.975060   -5.204875
  36 C     6.0000    0    12.011   -4.440034    3.012040   -5.516892
  37 C     6.0000    0    12.011   -3.462449    5.366001   -6.882579
  38 C     6.0000    0    12.011   -5.413068    7.490729   -7.072792
  39 C     6.0000    0    12.011   -4.406069    9.863021   -8.383617
  40 C     6.0000    0    12.011   -6.350511   11.996750   -8.573005
  41 C     6.0000    0    12.011   -5.317581   14.361788   -9.875587
  42 O     8.0000    0    15.999   -1.392692   -7.598872   -3.388556
  43 O     8.0000    0    15.999   -3.547565  -10.605093    0.049206
  44 O     8.0000    0    15.999    2.523594   -4.371327    2.900180
  45 C     6.0000    0    12.011    7.278631   -8.383708    1.752452
  46 C     6.0000    0    12.011    6.599004  -11.187874    1.834402
  47 O     8.0000    0    15.999    9.552380   -5.492609   -2.840917
  48 C     6.0000    0    12.011   11.214002   -0.748728    1.150107
  49 C     6.0000    0    12.011   13.164105   -2.837708    1.592230
  50 C     6.0000    0    12.011    9.471457   -0.411189    3.435893
  51 H     1.0000    0     1.008    5.379769    4.339063   -4.583831
  52 H     1.0000    0     1.008    6.071822    8.845803   -4.486652
  53 H     1.0000    0     1.008    9.277890    7.768149   -4.316588
  54 H     1.0000    0     1.008    9.309366    8.048763    0.264629
  55 H     1.0000    0     1.008    7.637947   10.851009   -0.544770
  56 H     1.0000    0     1.008    5.496397    7.300255    2.644085
  57 H     1.0000    0     1.008    3.606865    8.975851    0.419318
  58 H     1.0000    0     1.008    6.039184    0.477590   -1.918927
  59 H     1.0000    0     1.008   11.215439   -1.131485   -2.903213
  60 H     1.0000    0     1.008    5.756813   -2.819487    1.014585
  61 H     1.0000    0     1.008    5.055265   -7.577744   -1.607327
  62 H     1.0000    0     1.008    1.730207   -9.790984    0.478394
  63 H     1.0000    0     1.008   -0.888862   -6.965349    4.573180
  64 H     1.0000    0     1.008   -0.944544  -10.298661    4.187123
  65 H     1.0000    0     1.008   -4.965844   -8.530892    2.972970
  66 H     1.0000    0     1.008   -5.663828   -6.322600   -0.934453
  67 H     1.0000    0     1.008   -0.731403   -3.345995    2.930860
  68 H     1.0000    0     1.008   -5.032624   -0.300564    4.878282
  69 H     1.0000    0     1.008   -0.357009    0.593135    1.047039
  70 H     1.0000    0     1.008    1.652349    5.235392    3.235583
  71 H     1.0000    0     1.008   -2.532672    6.672520    1.720013
  72 H     1.0000    0     1.008   -0.148696    8.009840   -0.245704
  73 H     1.0000    0     1.008   -1.936918    5.372433   -1.337956
  74 H     1.0000    0     1.008   -2.442992   -0.181790    8.931409
  75 H     1.0000    0     1.008   -0.290833   -2.326715    7.535807
  76 H     1.0000    0     1.008   -3.877907   -5.454621    6.981165
  77 H     1.0000    0     1.008   -0.863970   -5.718119   10.610591
  78 H     1.0000    0     1.008   -2.853415   -3.707764   12.421231
  79 H     1.0000    0     1.008   -3.935770   -6.753999   11.512966
  80 H     1.0000    0     1.008   -7.577908   -2.594007    7.040758
  81 H     1.0000    0     1.008   -7.821063   -4.818666    9.530535
  82 H     1.0000    0     1.008   -6.864233   -1.667879   10.202507
  83 H     1.0000    0     1.008    0.034765   -3.456449   -4.769574
  84 H     1.0000    0     1.008    0.104043   -2.265699   -1.650056
  85 H     1.0000    0     1.008   -4.244957   -0.672920   -1.944243
  86 H     1.0000    0     1.008   -4.798432   -2.328502   -4.775937
  87 H     1.0000    0     1.008   -1.749290    0.349397   -7.079289
  88 H     1.0000    0     1.008   -0.752317    1.782952   -4.250117
  89 H     1.0000    0     1.008   -5.158652    3.556328   -3.633990
  90 H     1.0000    0     1.008   -6.082056    2.237254   -6.543310
  91 H     1.0000    0     1.008   -2.815308    4.840365   -8.794987
  92 H     1.0000    0     1.008   -1.769231    6.077566   -5.888356
  93 H     1.0000    0     1.008   -6.074046    7.989401   -5.157124
  94 H     1.0000    0     1.008   -7.094661    6.796289   -8.093839
  95 H     1.0000    0     1.008   -3.740660    9.365719  -10.298383
  96 H     1.0000    0     1.008   -2.724491   10.555281   -7.357490
  97 H     1.0000    0     1.008   -7.017755   12.485054   -6.658879
  98 H     1.0000    0     1.008   -8.025367   11.304126   -9.603351
  99 H     1.0000    0     1.008   -6.750283   15.861924   -9.988465
 100 H     1.0000    0     1.008   -3.680108   15.128774   -8.846974
 101 H     1.0000    0     1.008   -4.693431   13.937040  -11.813773
 102 H     1.0000    0     1.008   -2.761196  -10.099714   -1.570751
 103 H     1.0000    0     1.008    7.454822   -7.606635    3.675354
 104 H     1.0000    0     1.008    9.114919   -8.154949    0.813802
 105 H     1.0000    0     1.008    8.149585  -12.273850    2.686058
 106 H     1.0000    0     1.008    4.897339  -11.566962    2.961919
 107 H     1.0000    0     1.008    6.302261  -11.942618   -0.081928
 108 H     1.0000    0     1.008   12.228688    1.042766    0.852092
 109 H     1.0000    0     1.008   14.416081   -3.071163   -0.047897
 110 H     1.0000    0     1.008   14.339390   -2.391728    3.245810
 111 H     1.0000    0     1.008   12.246041   -4.669885    1.945536
 112 H     1.0000    0     1.008    7.954190    0.956835    3.048827
 113 H     1.0000    0     1.008    8.601836   -2.203194    4.029512
 114 H     1.0000    0     1.008   10.556504    0.306557    5.055008

--------------------------------
INTERNAL COORDINATES (ANGSTROEM)
--------------------------------
 O      0   0   0     0.000000000000     0.00000000     0.00000000
 C      1   0   0     1.232125976436     0.00000000     0.00000000
 C      2   1   0     1.554663296000   121.75377418     0.00000000
 C      3   2   1     1.527544531501   111.43096936   353.25941373
 C      4   3   2     1.535271630773   102.83978750   273.60221887
 C      5   4   3     1.533774051802   103.59911174   320.57679851
 N      6   5   4     1.478612001104   103.50649933    28.33802906
 C      7   6   5     1.347301990792   126.44573788   179.68002030
 O      8   7   6     1.250607094415   121.84410516   184.01700060
 N      2   1   3     1.355438896117   124.19652568   179.04369159
 C     10   2   1     1.460124596681   121.25493460     0.26408087
 C     11  10   2     1.532136799916   111.71269782   197.15907411
 N     12  11  10     1.364053928414   116.28697846   307.22510360
 C     13  12  11     1.452321664594   121.84668840   191.85497224
 C     14  13  12     1.526276806162   106.92161698   185.35097740
 N     15  14  13     1.347939018397   116.16251713   162.84175603
 C     16  15  14     1.455361355697   124.24086783   172.13816766
 C     17  16  15     1.537581056603   113.92486566   112.48704443
 C     18  17  16     1.560680216007   115.81952387   298.41977654
 C     19  18  17     1.536689727427   111.89289335   289.38848861
 N     20  19  18     1.364390986597   117.74857025    76.82154393
 C     21  20  19     1.459182948129   121.02423743   191.30718343
 C     22  21  20     1.535937382912   113.67744944   235.52920639
 N     23  22  21     1.356363486876   115.62401237     4.52271078
 C     24  23  22     1.445954244019   122.46955735   177.45321300
 C     25  24  23     1.542081802693   110.89262855   276.88573409
 O     23  22  21     1.232623483685   121.28870925   183.77508790
 C     22  21  20     1.536407137664   111.32271149   110.37389318
 C     28  22  21     1.535631805576   114.41850317   294.47128425
 C     29  28  22     1.532698824644   109.80912232   171.67743260
 C     29  28  22     1.532434759440   112.18614664   295.86949523
 O     20  19  18     1.234070434597   119.10364901   259.07974179
 C     19  18  17     1.536153189365   113.12819630    69.22825797
 C     33  19  18     1.502236555943   121.31182316   212.18763440
 C     34  33  19     1.543977285744   113.41960272   306.42133325
 C     35  34  33     1.530421535714   111.37488951   194.42199635
 C     36  35  34     1.528806794408   113.13232597   188.56473192
 C     37  36  35     1.530219753850   112.83195118   176.42462076
 C     38  37  36     1.529639574040   113.65978175   183.49966273
 C     39  38  37     1.530052489410   113.44666819   178.61664022
 C     40  39  38     1.530916357518   113.62384838   180.12610041
 C     41  40  39     1.529776805183   113.12487213   179.72797201
 O     33  19  18     1.234305258231   118.50681992    38.41121075
 O     18  17  16     1.422262991624   109.87902544    65.09813259
 O     15  14  13     1.246399413514   120.70254021   339.87858769
 C     14  13  12     1.553741192187   110.98798044    64.48048601
 C     46  14  13     1.527476692539   115.23790406   191.26531616
 O     12  11  10     1.231827242620   121.29185534   130.07214576
 C     11  10   2     1.560302539663   111.99346322    69.91051422
 C     49  11  10     1.530247748438   110.74815353   181.27419227
 C     49  11  10     1.531436645508   114.03593465    54.28619244
 H      3   2   1     1.100140743954   108.06134975   118.89681799
 H      4   3   2     1.099749323785   109.80510756   155.36007025
 H      4   3   2     1.095089542422   110.88111502    34.25304171
 H      5   4   3     1.098594322354   109.27444942    78.28286073
 H      5   4   3     1.096768626141   113.42270193   199.15679464
 H      6   5   4     1.098484343094   113.08424551   148.10129907
 H      6   5   4     1.100394553761   111.15292845   270.01787004
 H     10   2   1     1.028315373304   116.80860526   183.51848218
 H     11  10   2     1.099210915802   108.13176880   312.34651540
 H     13  12  11     1.019963098513   122.01842395   357.73277888
 H     14  13  12     1.102907164168   109.24395600   304.68384847
 H     16  15  14     1.015910862619   118.25341255   350.48777604
 H     17  16  15     1.095655361956   107.79465587   347.70426332
 H     17  16  15     1.100080776348   108.48583247   231.03858297
 H     18  17  16     1.103278707779   106.22272650   180.59681747
 H     19  18  17     1.104555112564   103.74654808   179.73629474
 H     21  20  19     1.032904256495   120.34419960   353.72177880
 H     22  21  20     1.100511263420   105.82969997   350.97910648
 H     24  23  22     1.017191178277   120.59332232   358.54127375
 H     25  24  23     1.100527837881   107.84660459    36.29985507
 H     26  25  24     1.096827383750   108.65572753    59.63284168
 H     26  25  24     1.097926807848   112.17949789   179.63845745
 H     26  25  24     1.097641609941   109.86124142   300.48308336
 H     28  22  21     1.100579074663   107.40911965   172.18634133
 H     28  22  21     1.103632258639   108.30361992    57.19517997
 H     29  28  22     1.105199236204   108.22247541    54.35867691
 H     30  29  28     1.100476978879   111.43857559   302.81406909
 H     30  29  28     1.101292785269   110.65262158    62.53544220
 H     30  29  28     1.099674378159   111.21446506   182.16538695
 H     31  29  28     1.098465615819   111.87456102    62.79514020
 H     31  29  28     1.099728461760   110.68897241   182.53011258
 H     31  29  28     1.101451639839   110.57432803   301.91044545
 H     34  33  19     1.099021235542   106.57204936   184.65931588
 H     34  33  19     1.102084485538   109.88614894    69.27316376
 H     35  34  33     1.099958683469   110.26373285    72.66253947
 H     35  34  33     1.102345833680   109.69041210   316.13510964
 H     36  35  34     1.103477927393   109.39608367    65.85296172
 H     36  35  34     1.101087317790   108.76432946   310.63273040
 H     37  36  35     1.104698683475   109.12811733    54.74811193
 H     37  36  35     1.103694755367   110.06008828   299.24456757
 H     38  37  36     1.103989478852   109.43232556    60.71523662
 H     38  37  36     1.105181584277   109.06287943   305.52283059
 H     39  38  37     1.104365237170   109.20579371    56.44559970
 H     39  38  37     1.104008625017   109.35711788   301.01936652
 H     40  39  38     1.104499223631   109.35657761    57.75784518
 H     40  39  38     1.104937190707   109.25082660   302.33659692
 H     41  40  39     1.103374022577   109.13002286    57.36413135
 H     41  40  39     1.103240139819   109.10339607   302.05390651
 H     42  41  40     1.099337818636   111.64331336   179.94160636
 H     42  41  40     1.100845093621   111.10542486   300.14874941
 H     42  41  40     1.100706259260   111.10116425    59.71524224
 H     44  18  17     0.989723174694   104.94416563   268.05728787
 H     46  14  13     1.101456446279   108.25204266    66.49283463
 H     46  14  13     1.098007560053   105.35138380   311.64974829
 H     47  46  14     1.098468485823   110.12121916   171.51882026
 H     47  46  14     1.098685227341   112.69151281   291.02055955
 H     47  46  14     1.101148736292   111.08726329    52.99328257
 H     49  11  10     1.100873275407   103.66669312   297.30489468
 H     50  49  11     1.098850730676   111.53344812    51.93284601
 H     50  49  11     1.099176283156   110.37604975   172.20448801
 H     50  49  11     1.100451654077   111.39043867   291.77120357
 H     51  49  11     1.100308071045   111.65894495   312.12668290
 H     51  49  11     1.099862498677   112.14505066    73.97518718
 H     51  49  11     1.099112607979   109.96581562   193.01522503

---------------------------
INTERNAL COORDINATES (A.U.)
---------------------------
 O      0   0   0     0.000000000000     0.00000000     0.00000000
 C      1   0   0     2.328380657955     0.00000000     0.00000000
 C      2   1   0     2.937887859899   121.75377418     0.00000000
 C      3   2   1     2.886640821907   111.43096936   353.25941373
 C      4   3   2     2.901242923340   102.83978750   273.60221887
 C      5   4   3     2.898412909220   103.59911174   320.57679851
 N      6   5   4     2.794171740415   103.50649933    28.33802906
 C      7   6   5     2.546031782284   126.44573788   179.68002030
 O      8   7   6     2.363304909584   121.84410516   184.01700060
 N      2   1   3     2.561408304926   124.19652568   179.04369159
 C     10   2   1     2.759235609129   121.25493460     0.26408087
 C     11  10   2     2.895318951544   111.71269782   197.15907411
 N     12  11  10     2.577688356602   116.28697846   307.22510360
 C     13  12  11     2.744490204443   121.84668840   191.85497224
 C     14  13  12     2.884245168202   106.92161698   185.35097740
 N     15  14  13     2.547235589997   116.16251713   162.84175603
 C     16  15  14     2.750234388160   124.24086783   172.13816766
 C     17  16  15     2.905607105684   113.92486566   112.48704443
 C     18  17  16     2.949258190883   115.81952387   298.41977654
 C     19  18  17     2.903922737648   111.89289335   289.38848861
 N     20  19  18     2.578325304258   117.74857025    76.82154393
 C     21  20  19     2.757456151252   121.02423743   191.30718343
 C     22  21  20     2.902501012555   113.67744944   235.52920639
 N     23  22  21     2.563155528247   115.62401237     4.52271078
 C     24  23  22     2.732457523377   122.46955735   177.45321300
 C     25  24  23     2.914112283194   110.89262855   276.88573409
 O     23  22  21     2.329320810405   121.28870925   183.77508790
 C     22  21  20     2.903388720386   111.32271149   110.37389318
 C     28  22  21     2.901923555078   114.41850317   294.47128425
 C     29  28  22     2.896381024361   109.80912232   171.67743260
 C     29  28  22     2.895882013443   112.18614664   295.86949523
 O     20  19  18     2.332055151358   119.10364901   259.07974179
 C     19  18  17     2.902908827650   113.12819630    69.22825797
 C     33  19  18     2.838815679097   121.31182316   212.18763440
 C     34  33  19     2.917694227051   113.41960272   306.42133325
 C     35  34  33     2.892077571956   111.37488951   194.42199635
 C     36  35  34     2.889026153110   113.13232597   188.56473192
 C     37  36  35     2.891696259493   112.83195118   176.42462076
 C     38  37  36     2.890599878544   113.65978175   183.49966273
 C     39  38  37     2.891380175509   113.44666819   178.61664022
 C     40  39  38     2.893012649649   113.62384838   180.12610041
 C     41  40  39     2.890859207821   113.12487213   179.72797201
 O     33  19  18     2.332498903716   118.50681992    38.41121075
 O     18  17  16     2.687687544580   109.87902544    65.09813259
 O     15  14  13     2.355353545022   120.70254021   339.87858769
 C     14  13  12     2.936145336225   110.98798044    64.48048601
 C     46  14  13     2.886512624847   115.23790406   191.26531616
 O     12  11  10     2.327816132855   121.29185534   130.07214576
 C     11  10   2     2.948544486025   111.99346322    69.91051422
 C     49  11  10     2.891749161597   110.74815353   181.27419227
 C     49  11  10     2.893995851462   114.03593465    54.28619244
 H      3   2   1     2.078964714842   108.06134975   118.89681799
 H      4   3   2     2.078225037918   109.80510756   155.36007025
 H      4   3   2     2.069419327299   110.88111502    34.25304171
 H      5   4   3     2.076042401531   109.27444942    78.28286073
 H      5   4   3     2.072592335683   113.42270193   199.15679464
 H      6   5   4     2.075834570848   113.08424551   148.10129907
 H      6   5   4     2.079444345867   111.15292845   270.01787004
 H     10   2   1     1.943234434845   116.80860526   183.51848218
[...]
freq.      85.12  E(vib)   ...       0.48 
freq.      90.59  E(vib)   ...       0.47 
freq.      91.61  E(vib)   ...       0.47 
freq.      93.34  E(vib)   ...       0.47 
freq.     100.70  E(vib)   ...       0.46 
freq.     105.61  E(vib)   ...       0.45 
freq.     110.32  E(vib)   ...       0.45 
freq.     115.43  E(vib)   ...       0.44 
freq.     119.90  E(vib)   ...       0.44 
freq.     124.95  E(vib)   ...       0.43 
freq.     127.63  E(vib)   ...       0.43 
freq.     137.76  E(vib)   ...       0.42 
freq.     141.04  E(vib)   ...       0.41 
freq.     143.90  E(vib)   ...       0.41 
freq.     151.05  E(vib)   ...       0.40 
freq.     155.79  E(vib)   ...       0.40 
freq.     163.49  E(vib)   ...       0.39 
freq.     166.29  E(vib)   ...       0.39 
freq.     170.57  E(vib)   ...       0.38 
freq.     178.30  E(vib)   ...       0.37 
freq.     186.07  E(vib)   ...       0.37 
freq.     196.23  E(vib)   ...       0.36 
freq.     201.37  E(vib)   ...       0.35 
freq.     207.60  E(vib)   ...       0.34 
freq.     216.84  E(vib)   ...       0.34 
freq.     222.08  E(vib)   ...       0.33 
freq.     227.22  E(vib)   ...       0.33 
freq.     230.42  E(vib)   ...       0.32 
freq.     231.64  E(vib)   ...       0.32 
freq.     233.18  E(vib)   ...       0.32 
freq.     237.07  E(vib)   ...       0.32 
freq.     240.77  E(vib)   ...       0.31 
freq.     242.33  E(vib)   ...       0.31 
freq.     249.11  E(vib)   ...       0.31 
freq.     251.96  E(vib)   ...       0.30 
freq.     261.54  E(vib)   ...       0.30 
freq.     264.27  E(vib)   ...       0.29 
freq.     271.90  E(vib)   ...       0.29 
freq.     278.91  E(vib)   ...       0.28 
freq.     294.54  E(vib)   ...       0.27 
freq.     301.73  E(vib)   ...       0.26 
freq.     305.25  E(vib)   ...       0.26 
freq.     322.12  E(vib)   ...       0.25 
freq.     334.51  E(vib)   ...       0.24 
freq.     340.86  E(vib)   ...       0.23 
freq.     348.80  E(vib)   ...       0.23 
freq.     351.92  E(vib)   ...       0.23 
freq.     355.69  E(vib)   ...       0.22 
freq.     362.98  E(vib)   ...       0.22 
freq.     364.31  E(vib)   ...       0.22 
freq.     386.05  E(vib)   ...       0.20 
freq.     390.27  E(vib)   ...       0.20 
freq.     398.51  E(vib)   ...       0.20 
freq.     403.81  E(vib)   ...       0.19 
freq.     405.95  E(vib)   ...       0.19 
freq.     411.47  E(vib)   ...       0.19 
freq.     443.48  E(vib)   ...       0.17 
freq.     444.52  E(vib)   ...       0.17 
freq.     446.47  E(vib)   ...       0.17 
freq.     462.88  E(vib)   ...       0.16 
freq.     467.09  E(vib)   ...       0.16 
freq.     476.21  E(vib)   ...       0.15 
freq.     489.10  E(vib)   ...       0.15 
freq.     495.32  E(vib)   ...       0.14 
freq.     509.38  E(vib)   ...       0.14 
freq.     536.24  E(vib)   ...       0.12 
freq.     552.43  E(vib)   ...       0.12 
freq.     558.61  E(vib)   ...       0.12 
freq.     568.21  E(vib)   ...       0.11 
freq.     570.38  E(vib)   ...       0.11 
freq.     607.21  E(vib)   ...       0.10 
freq.     626.21  E(vib)   ...       0.09 
freq.     629.12  E(vib)   ...       0.09 
freq.     636.38  E(vib)   ...       0.09 
freq.     644.62  E(vib)   ...       0.09 
freq.     662.89  E(vib)   ...       0.08 
freq.     682.56  E(vib)   ...       0.08 
freq.     690.36  E(vib)   ...       0.07 
freq.     699.94  E(vib)   ...       0.07 
freq.     703.72  E(vib)   ...       0.07 
freq.     709.55  E(vib)   ...       0.07 
freq.     710.51  E(vib)   ...       0.07 
freq.     711.85  E(vib)   ...       0.07 
freq.     717.60  E(vib)   ...       0.07 
freq.     722.08  E(vib)   ...       0.07 
freq.     727.28  E(vib)   ...       0.06 
freq.     732.82  E(vib)   ...       0.06 
freq.     739.02  E(vib)   ...       0.06 
freq.     744.19  E(vib)   ...       0.06 
freq.     753.89  E(vib)   ...       0.06 
freq.     766.33  E(vib)   ...       0.06 
freq.     774.91  E(vib)   ...       0.05 
freq.     800.78  E(vib)   ...       0.05 
freq.     808.38  E(vib)   ...       0.05 
freq.     813.00  E(vib)   ...       0.05 
freq.     820.46  E(vib)   ...       0.05 
freq.     830.82  E(vib)   ...       0.04 
freq.     839.35  E(vib)   ...       0.04 
freq.     843.59  E(vib)   ...       0.04 
freq.     849.75  E(vib)   ...       0.04 
freq.     850.34  E(vib)   ...       0.04 
freq.     856.22  E(vib)   ...       0.04 
freq.     863.51  E(vib)   ...       0.04 
freq.     873.79  E(vib)   ...       0.04 
freq.     877.88  E(vib)   ...       0.04 
freq.     882.68  E(vib)   ...       0.04 
freq.     887.01  E(vib)   ...       0.04 
freq.     903.64  E(vib)   ...       0.03 
freq.     903.96  E(vib)   ...       0.03 
freq.     907.31  E(vib)   ...       0.03 
freq.     916.31  E(vib)   ...       0.03 
freq.     918.53  E(vib)   ...       0.03 
freq.     935.81  E(vib)   ...       0.03 
freq.     939.63  E(vib)   ...       0.03 
freq.     940.87  E(vib)   ...       0.03 
freq.     942.71  E(vib)   ...       0.03 
freq.     946.71  E(vib)   ...       0.03 
freq.     956.85  E(vib)   ...       0.03 
freq.     963.91  E(vib)   ...       0.03 
freq.     973.53  E(vib)   ...       0.03 
freq.     975.11  E(vib)   ...       0.03 
freq.     975.91  E(vib)   ...       0.03 
freq.     977.42  E(vib)   ...       0.03 
freq.     986.50  E(vib)   ...       0.02 
freq.     994.08  E(vib)   ...       0.02 
freq.    1004.17  E(vib)   ...       0.02 
freq.    1007.79  E(vib)   ...       0.02 
freq.    1012.52  E(vib)   ...       0.02 
freq.    1023.97  E(vib)   ...       0.02 
freq.    1032.68  E(vib)   ...       0.02 
freq.    1034.16  E(vib)   ...       0.02 
freq.    1035.27  E(vib)   ...       0.02 
freq.    1040.48  E(vib)   ...       0.02 
freq.    1049.04  E(vib)   ...       0.02 
freq.    1049.92  E(vib)   ...       0.02 
freq.    1051.87  E(vib)   ...       0.02 
freq.    1057.29  E(vib)   ...       0.02 
freq.    1059.35  E(vib)   ...       0.02 
freq.    1064.76  E(vib)   ...       0.02 
freq.    1066.97  E(vib)   ...       0.02 
freq.    1067.89  E(vib)   ...       0.02 
freq.    1076.84  E(vib)   ...       0.02 
freq.    1083.74  E(vib)   ...       0.02 
freq.    1086.81  E(vib)   ...       0.02 
freq.    1090.58  E(vib)   ...       0.02 
freq.    1108.78  E(vib)   ...       0.02 
freq.    1112.61  E(vib)   ...       0.01 
freq.    1125.03  E(vib)   ...       0.01 
freq.    1128.55  E(vib)   ...       0.01 
freq.    1137.82  E(vib)   ...       0.01 
freq.    1139.56  E(vib)   ...       0.01 
freq.    1148.09  E(vib)   ...       0.01 
freq.    1158.76  E(vib)   ...       0.01 
freq.    1161.24  E(vib)   ...       0.01 
freq.    1165.10  E(vib)   ...       0.01 
freq.    1165.25  E(vib)   ...       0.01 
freq.    1167.38  E(vib)   ...       0.01 
freq.    1170.49  E(vib)   ...       0.01 
freq.    1181.62  E(vib)   ...       0.01 
freq.    1184.24  E(vib)   ...       0.01 
freq.    1190.90  E(vib)   ...       0.01 
freq.    1192.77  E(vib)   ...       0.01 
freq.    1209.54  E(vib)   ...       0.01 
freq.    1212.77  E(vib)   ...       0.01 
freq.    1214.89  E(vib)   ...       0.01 
freq.    1216.93  E(vib)   ...       0.01 
freq.    1218.74  E(vib)   ...       0.01 
freq.    1231.03  E(vib)   ...       0.01 
freq.    1232.36  E(vib)   ...       0.01 
freq.    1235.88  E(vib)   ...       0.01 
freq.    1241.47  E(vib)   ...       0.01 
freq.    1242.21  E(vib)   ...       0.01 
freq.    1243.30  E(vib)   ...       0.01 
freq.    1253.63  E(vib)   ...       0.01 
freq.    1255.66  E(vib)   ...       0.01 
freq.    1264.94  E(vib)   ...       0.01 
freq.    1268.29  E(vib)   ...       0.01 
freq.    1271.70  E(vib)   ...       0.01 
freq.    1274.95  E(vib)   ...       0.01 
freq.    1283.77  E(vib)   ...       0.01 
freq.    1286.05  E(vib)   ...       0.01 
freq.    1287.98  E(vib)   ...       0.01 
freq.    1290.54  E(vib)   ...       0.01 
freq.    1290.67  E(vib)   ...       0.01 
freq.    1293.38  E(vib)   ...       0.01 
freq.    1293.71  E(vib)   ...       0.01 
freq.    1297.07  E(vib)   ...       0.01 
freq.    1297.72  E(vib)   ...       0.01 
freq.    1299.01  E(vib)   ...       0.01 
freq.    1300.90  E(vib)   ...       0.01 
freq.    1302.76  E(vib)   ...       0.01 
freq.    1304.34  E(vib)   ...       0.01 
freq.    1310.28  E(vib)   ...       0.01 
freq.    1312.54  E(vib)   ...       0.01 
freq.    1313.29  E(vib)   ...       0.01 
freq.    1317.82  E(vib)   ...       0.01 
freq.    1323.85  E(vib)   ...       0.01 
freq.    1324.55  E(vib)   ...       0.01 
freq.    1328.19  E(vib)   ...       0.01 
freq.    1335.03  E(vib)   ...       0.01 
freq.    1339.29  E(vib)   ...       0.01 
freq.    1345.29  E(vib)   ...       0.01 
freq.    1346.63  E(vib)   ...       0.01 
freq.    1348.40  E(vib)   ...       0.01 
freq.    1349.39  E(vib)   ...       0.01 
freq.    1352.15  E(vib)   ...       0.01 
freq.    1352.98  E(vib)   ...       0.01 
freq.    1354.68  E(vib)   ...       0.01 
freq.    1357.48  E(vib)   ...       0.01 
freq.    1363.39  E(vib)   ...       0.01 
freq.    1364.09  E(vib)   ...       0.01 
freq.    1372.97  E(vib)   ...       0.01 
freq.    1373.85  E(vib)   ...       0.01 
freq.    1415.82  E(vib)   ...       0.00 
freq.    1421.63  E(vib)   ...       0.00 
freq.    1422.83  E(vib)   ...       0.00 
freq.    1424.84  E(vib)   ...       0.00 
freq.    1430.33  E(vib)   ...       0.00 
freq.    1433.44  E(vib)   ...       0.00 
freq.    1434.20  E(vib)   ...       0.00 
freq.    1434.71  E(vib)   ...       0.00 
freq.    1436.47  E(vib)   ...       0.00 
freq.    1437.41  E(vib)   ...       0.00 
freq.    1438.14  E(vib)   ...       0.00 
freq.    1440.12  E(vib)   ...       0.00 
freq.    1441.31  E(vib)   ...       0.00 
freq.    1441.85  E(vib)   ...       0.00 
freq.    1446.13  E(vib)   ...       0.00 
freq.    1446.30  E(vib)   ...       0.00 
freq.    1447.32  E(vib)   ...       0.00 
freq.    1448.09  E(vib)   ...       0.00 
freq.    1451.14  E(vib)   ...       0.00 
freq.    1451.68  E(vib)   ...       0.00 
freq.    1452.50  E(vib)   ...       0.00 
freq.    1454.94  E(vib)   ...       0.00 
freq.    1455.88  E(vib)   ...       0.00 
freq.    1456.31  E(vib)   ...       0.00 
freq.    1462.50  E(vib)   ...       0.00 
freq.    1462.69  E(vib)   ...       0.00 
freq.    1463.34  E(vib)   ...       0.00 
freq.    1465.36  E(vib)   ...       0.00 
freq.    1466.66  E(vib)   ...       0.00 
freq.    1468.00  E(vib)   ...       0.00 
freq.    1470.07  E(vib)   ...       0.00 
freq.    1471.84  E(vib)   ...       0.00 
freq.    1512.97  E(vib)   ...       0.00 
freq.    1521.22  E(vib)   ...       0.00 
freq.    1535.92  E(vib)   ...       0.00 
freq.    1602.96  E(vib)   ...       0.00 
freq.    1632.21  E(vib)   ...       0.00 
freq.    1644.29  E(vib)   ...       0.00 
freq.    1664.86  E(vib)   ...       0.00 
freq.    1673.57  E(vib)   ...       0.00 
freq.    1674.85  E(vib)   ...       0.00 
freq.    1681.53  E(vib)   ...       0.00 
freq.    2923.13  E(vib)   ...       0.00 
freq.    2924.43  E(vib)   ...       0.00 
freq.    2926.51  E(vib)   ...       0.00 
freq.    2930.23  E(vib)   ...       0.00 
freq.    2935.67  E(vib)   ...       0.00 
freq.    2942.32  E(vib)   ...       0.00 
freq.    2945.88  E(vib)   ...       0.00 
freq.    2947.58  E(vib)   ...       0.00 
freq.    2948.89  E(vib)   ...       0.00 
freq.    2949.67  E(vib)   ...       0.00 
freq.    2951.60  E(vib)   ...       0.00 
freq.    2952.76  E(vib)   ...       0.00 
freq.    2955.89  E(vib)   ...       0.00 
freq.    2956.86  E(vib)   ...       0.00 
freq.    2957.77  E(vib)   ...       0.00 
freq.    2958.11  E(vib)   ...       0.00 
freq.    2959.55  E(vib)   ...       0.00 
freq.    2960.24  E(vib)   ...       0.00 
freq.    2963.10  E(vib)   ...       0.00 
freq.    2963.45  E(vib)   ...       0.00 
freq.    2963.78  E(vib)   ...       0.00 
freq.    2969.73  E(vib)   ...       0.00 
freq.    2973.19  E(vib)   ...       0.00 
freq.    2975.11  E(vib)   ...       0.00 
freq.    2976.02  E(vib)   ...       0.00 
freq.    2979.16  E(vib)   ...       0.00 
freq.    2982.00  E(vib)   ...       0.00 
freq.    2985.57  E(vib)   ...       0.00 
freq.    2986.08  E(vib)   ...       0.00 
freq.    2987.24  E(vib)   ...       0.00 
freq.    2990.62  E(vib)   ...       0.00 
freq.    2996.28  E(vib)   ...       0.00 
freq.    2996.96  E(vib)   ...       0.00 
freq.    2997.84  E(vib)   ...       0.00 
freq.    3000.83  E(vib)   ...       0.00 
freq.    3002.73  E(vib)   ...       0.00 
freq.    3010.44  E(vib)   ...       0.00 
freq.    3011.04  E(vib)   ...       0.00 
freq.    3017.24  E(vib)   ...       0.00 
freq.    3017.31  E(vib)   ...       0.00 
freq.    3019.86  E(vib)   ...       0.00 
freq.    3020.32  E(vib)   ...       0.00 
freq.    3022.46  E(vib)   ...       0.00 
freq.    3026.21  E(vib)   ...       0.00 
freq.    3026.89  E(vib)   ...       0.00 
freq.    3027.51  E(vib)   ...       0.00 
freq.    3028.57  E(vib)   ...       0.00 
freq.    3028.89  E(vib)   ...       0.00 
freq.    3032.89  E(vib)   ...       0.00 
freq.    3034.27  E(vib)   ...       0.00 
freq.    3039.52  E(vib)   ...       0.00 
freq.    3039.54  E(vib)   ...       0.00 
freq.    3045.16  E(vib)   ...       0.00 
freq.    3052.36  E(vib)   ...       0.00 
freq.    3056.81  E(vib)   ...       0.00 
freq.    3064.07  E(vib)   ...       0.00 
freq.    3068.45  E(vib)   ...       0.00 
freq.    3070.63  E(vib)   ...       0.00 
freq.    3197.60  E(vib)   ...       0.00 
freq.    3286.81  E(vib)   ...       0.00 
freq.    3363.90  E(vib)   ...       0.00 
freq.    3452.35  E(vib)   ...       0.00 
freq.    3487.52  E(vib)   ...       0.00 
freq.    3514.25  E(vib)   ...       0.00 

------------
INNER ENERGY
------------

The inner energy is: U= E(el) + E(ZPE) + E(vib) + E(rot) + E(trans)
    E(el)   - is the total energy from the electronic structure calculation
              = E(kin-el) + E(nuc-el) + E(el-el) + E(nuc-nuc)
    E(ZPE)  - the the zero temperature vibrational energy from the frequency calculation
    E(vib)  - the the finite temperature correction to E(ZPE) due to population
              of excited vibrational states
    E(rot)  - is the rotational thermal energy
    E(trans)- is the translational thermal energy

Summary of contributions to the inner energy U:
Electronic energy                ...  -2380.08688675 Eh
Zero point energy                ...      0.97755772 Eh     613.43 kcal/mol
Thermal vibrational correction   ...      0.05561206 Eh      34.90 kcal/mol
Thermal rotational correction    ...      0.00141627 Eh       0.89 kcal/mol
Thermal translational correction ...      0.00141627 Eh       0.89 kcal/mol
-----------------------------------------------------------------------
Total thermal energy                  -2379.05088442 Eh


Summary of corrections to the electronic energy:
(perhaps to be used in another calculation)
Total thermal correction                  0.05844461 Eh      36.67 kcal/mol
Non-thermal (ZPE) correction              0.97755772 Eh     613.43 kcal/mol
-----------------------------------------------------------------------
Total correction                          1.03600232 Eh     650.10 kcal/mol


--------
ENTHALPY
--------

The enthalpy is H = U + kB*T
                kB is Boltzmann's constant
Total free energy                 ...  -2379.05088442 Eh 
Thermal Enthalpy correction       ...      0.00094421 Eh       0.59 kcal/mol
-----------------------------------------------------------------------
Total Enthalpy                    ...  -2379.04994021 Eh


Note: Only C1 symmetry has been detected, increase convergence thresholds 
      if your molecule has a higher symmetry. Symmetry factor of 1.0 is   
      used for the rotational entropy correction. 
 

Note: Rotational entropy computed according to Herzberg 
Infrared and Raman Spectra, Chapter V,1, Van Nostrand Reinhold, 1945 
Point Group:  C1, Symmetry Number:   1  
Rotational constants in cm-1:     0.001903     0.001478     0.001103 

Vibrational entropy computed according to the QRRHO of S. Grimme
Chem.Eur.J. 2012 18 9955


-------
ENTROPY
-------

The entropy contributions are T*S = T*(S(el)+S(vib)+S(rot)+S(trans))
     S(el)   - electronic entropy
     S(vib)  - vibrational entropy
     S(rot)  - rotational entropy
     S(trans)- translational entropy
The entropies will be listed as mutliplied by the temperature to get
units of energy

Electronic entropy                ...      0.00000000 Eh      0.00 kcal/mol
Vibrational entropy               ...      0.10288122 Eh     64.56 kcal/mol
Rotational entropy                ...      0.01875946 Eh     11.77 kcal/mol
Translational entropy             ...      0.02166895 Eh     13.60 kcal/mol
-----------------------------------------------------------------------
Final entropy term                ...      0.14330963 Eh     89.93 kcal/mol

In case the symmetry of your molecule has not been determined correctly
or in case you have a reason to use a different symmetry number we print 
out the resulting rotational entropy values for sn=1,12 :
 --------------------------------------------------------
|  sn= 1 | S(rot)=       0.01875946 Eh     11.77 kcal/mol|
|  sn= 2 | S(rot)=       0.01810501 Eh     11.36 kcal/mol|
|  sn= 3 | S(rot)=       0.01772217 Eh     11.12 kcal/mol|
|  sn= 4 | S(rot)=       0.01745055 Eh     10.95 kcal/mol|
|  sn= 5 | S(rot)=       0.01723986 Eh     10.82 kcal/mol|
|  sn= 6 | S(rot)=       0.01706772 Eh     10.71 kcal/mol|
|  sn= 7 | S(rot)=       0.01692217 Eh     10.62 kcal/mol|
|  sn= 8 | S(rot)=       0.01679609 Eh     10.54 kcal/mol|
|  sn= 9 | S(rot)=       0.01668488 Eh     10.47 kcal/mol|
|  sn=10 | S(rot)=       0.01658540 Eh     10.41 kcal/mol|
|  sn=11 | S(rot)=       0.01649541 Eh     10.35 kcal/mol|
|  sn=12 | S(rot)=       0.01641326 Eh     10.30 kcal/mol|
 --------------------------------------------------------


-------------------
GIBBS FREE ENERGY
-------------------

The Gibbs free energy is G = H - T*S

Total enthalpy                    ...  -2379.04994021 Eh 
Total entropy correction          ...     -0.14330963 Eh    -89.93 kcal/mol
-----------------------------------------------------------------------
Final Gibbs free energy         ...  -2379.19324985 Eh

For completeness - the Gibbs free energy minus the electronic energy
G-E(el)                           ...      0.89363690 Eh    560.76 kcal/mol

--------------------------------------------------------------------------
WARNING: No preset parameters were found for the device that Open MPI
detected:

  Local host:            eu-g1-018-4
  Device name:           mlx5_0
  Device vendor ID:      0x02c9
  Device vendor part ID: 4123

Default device parameters will be used, which may result in lower
performance.  You can edit any of the files specified by the
btl_openib_device_param_files MCA parameter to set values for your
device.

NOTE: You can turn off this warning by setting the MCA parameter
      btl_openib_warn_no_device_params_found to 0.
--------------------------------------------------------------------------
--------------------------------------------------------------------------
WARNING: There was an error initializing an OpenFabrics device.

  Local host:   eu-g1-018-4
  Local device: mlx5_0
--------------------------------------------------------------------------

Timings for individual modules:

Sum of individual times         ...    27139.884 sec (= 452.331 min)
GTO integral calculation        ...       16.505 sec (=   0.275 min)   0.1 %
SCF iterations                  ...      414.982 sec (=   6.916 min)   1.5 %
SCF Gradient evaluation         ...       76.186 sec (=   1.270 min)   0.3 %
Geometry relaxation             ...        4.290 sec (=   0.071 min)   0.0 %
Analytical frequency calculation...    26627.923 sec (= 443.799 min)  98.1 %
                             ****ORCA TERMINATED NORMALLY****
TOTAL RUN TIME: 0 days 7 hours 39 minutes 47 seconds 493 msec
