
                                 *****************
                                 * O   R   C   A *
                                 *****************

           --- An Ab Initio, DFT and Semiempirical electronic structure package ---

                  #######################################################
                  #                        -***-                        #
                  #          Department of theory and spectroscopy      #
                  #               Directorship: Frank Neese             #
                  #        Max Planck Institute fuer Kohlenforschung    #
                  #                Kaiser Wilhelm Platz 1               #
                  #                 D-45470 Muelheim/Ruhr               #
                  #                      Germany                        #
                  #                                                     #
                  #                  All rights reserved                #
                  #                        -***-                        #
                  #######################################################


                         Program Version 4.2.0 -  RELEASE  -


 With contributions from (in alphabetic order):
   Daniel Aravena         : Magnetic Suceptibility
   Michael Atanasov       : Ab Initio Ligand Field Theory (pilot matlab implementation)
   Alexander A. Auer      : GIAO ZORA, VPT2
   Ute Becker             : Parallelization
   Giovanni Bistoni       : ED, misc. LED, open-shell LED, HFLED
   Martin Brehm           : Molecular dynamics
   Dmytro Bykov           : SCF Hessian
   Vijay G. Chilkuri      : MRCI spin determinant printing, contributions to CSF-ICE
   Dipayan Datta          : RHF DLPNO-CCSD density
   Achintya Kumar Dutta   : EOM-CC, STEOM-CC
   Dmitry Ganyushin       : Spin-Orbit,Spin-Spin,Magnetic field MRCI
   Miquel Garcia          : C-PCM Hessian, Gaussian charge scheme
   Yang Guo               : DLPNO-NEVPT2, CIM, IAO-localization
   Andreas Hansen         : Spin unrestricted coupled pair/coupled cluster methods
   Benjamin Helmich-Paris : CASSCF linear response (MC-RPA)
   Lee Huntington         : MR-EOM, pCC
   Robert Izsak           : Overlap fitted RIJCOSX, COSX-SCS-MP3, EOM
   Christian Kollmar      : KDIIS, OOCD, Brueckner-CCSD(T), CCSD density
   Simone Kossmann        : Meta GGA functionals, TD-DFT gradient, OOMP2, MP2 Hessian
   Martin Krupicka        : AUTO-CI
   Lucas Lang             : DCDCAS
   Dagmar Lenk            : GEPOL surface, SMD
   Dimitrios Liakos       : Extrapolation schemes; Compound Job, initial MDCI parallelization
   Dimitrios Manganas     : Further ROCIS development; embedding schemes
   Dimitrios Pantazis     : SARC Basis sets
   Taras Petrenko         : DFT Hessian,TD-DFT gradient, ASA, ECA, R-Raman, ABS, FL, XAS/XES, NRVS
   Peter Pinski           : DLPNO-MP2, DLPNO-MP2 Gradient
   Christoph Reimann      : Effective Core Potentials
   Marius Retegan         : Local ZFS, SOC
   Christoph Riplinger    : Optimizer, TS searches, QM/MM, DLPNO-CCSD(T), (RO)-DLPNO pert. Triples
   Tobias Risthaus        : Range-separated hybrids, TD-DFT gradient, RPA, STAB
   Michael Roemelt        : Original ROCIS implementation
   Masaaki Saitow         : Open-shell DLPNO-CCSD energy and density
   Barbara Sandhoefer     : DKH picture change effects
   Avijit Sen             : IP-ROCIS
   Kantharuban Sivalingam : CASSCF convergence, NEVPT2, FIC-MRCI
   Bernardo de Souza      : ESD, SOC TD-DFT
   Georgi Stoychev        : AutoAux, RI-MP2 NMR
   Willem Van den Heuvel  : Paramagnetic NMR
   Boris Wezisla          : Elementary symmetry handling
   Frank Wennmohs         : Technical directorship


 We gratefully acknowledge several colleagues who have allowed us to
 interface, adapt or use parts of their codes:
   Stefan Grimme, W. Hujo, H. Kruse,             : VdW corrections, initial TS optimization,
                  C. Bannwarth                     DFT functionals, gCP, sTDA/sTD-DF
   Ed Valeev, F. Pavosevic, A. Kumar             : LibInt (2-el integral package), F12 methods
   Garnet Chan, S. Sharma, J. Yang, R. Olivares  : DMRG
   Ulf Ekstrom                                   : XCFun DFT Library
   Mihaly Kallay                                 : mrcc  (arbitrary order and MRCC methods)
   Andreas Klamt, Michael Diedenhofen            : otool_cosmo (COSMO solvation model)
   Jiri Pittner, Ondrej Demel                    : Mk-CCSD
   Frank Weinhold                                : gennbo (NPA and NBO analysis)
   Christopher J. Cramer and Donald G. Truhlar   : smd solvation model
   Lars Goerigk                                  : TD-DFT with DH, B97 family of functionals
   V. Asgeirsson, H. Jonsson                     : NEB implementation
   FAccTs GmbH                                   : IRC, NEB, NEB-TS, Multilevel, MM, QM/MM, CI optimization
   S Lehtola, MJT Oliveira, MAL Marques          : LibXC Library


 Your calculation uses the libint2 library for the computation of 2-el integrals
 For citations please refer to: http://libint.valeyev.net

 Your ORCA version has been built with support for libXC version: 4.2.3
 For citations please refer to: https://tddft.org/programs/libxc/

 This ORCA versions uses:
   CBLAS   interface :  Fast vector & matrix operations
   LAPACKE interface :  Fast linear algebra routines
   SCALAPACK package :  Parallel linear algebra routines




***************************************
The coordinates will be read from file: 14.xyz
***************************************


Your calculation utilizes the atom-pairwise dispersion correction
with the Becke-Johnson damping scheme (D3BJ)
Cite in your paper:
S.Grimme, S.Ehrlich, L.Goerigk, J Comput Chem, (2011), 32, 1456–1465 
S.Grimme, J.Antony, S.Ehrlich and H.Krieg, J.Chem.Phys., 132, (2010), 154104 
   

----- Orbital basis set information -----
Your calculation utilizes the basis: def2-TZVP
   F. Weigend and R. Ahlrichs, Phys. Chem. Chem. Phys. 7, 3297 (2005).

----- AuxJ basis set information -----
Your calculation utilizes the auxiliary basis: def2/J
   F. Weigend, Phys. Chem. Chem. Phys. 8, 1057 (2006).

================================================================================
                                        WARNINGS
                       Please study these warnings very carefully!
================================================================================


WARNING: Geometry Optimization
  ===> : Switching off AutoStart
         For restart on a previous wavefunction, please use MOREAD

INFO   : the flag for use of LIBINT has been found!

================================================================================
                                       INPUT FILE
================================================================================
NAME = 14.inp
|  1> !RI BP86 def2-tzvp def2/J D3BJ TIGHTSCF TightOpt Grid5 FinalGrid6 freq
|  2> %maxcore 4000
|  3> %pal nprocs 24
|  4> end
|  5> * xyzfile 0 1 14.xyz 
|  6> 
|  7>                          ****END OF INPUT****
================================================================================

                       *****************************
                       * Geometry Optimization Run *
                       *****************************

Geometry optimization settings:
Update method            Update   .... BFGS
Choice of coordinates    CoordSys .... Z-matrix Internals
Initial Hessian          InHess   .... Almoef's Model

Convergence Tolerances:
Energy Change            TolE     ....  1.0000e-06 Eh
Max. Gradient            TolMAXG  ....  1.0000e-04 Eh/bohr
RMS Gradient             TolRMSG  ....  3.0000e-05 Eh/bohr
Max. Displacement        TolMAXD  ....  1.0000e-03 bohr
RMS Displacement         TolRMSD  ....  6.0000e-04 bohr
Strict Convergence                ....  False
------------------------------------------------------------------------------
                        ORCA OPTIMIZATION COORDINATE SETUP
------------------------------------------------------------------------------

The optimization will be done in new redundant internal coordinates
Making redundant internal coordinates   ...  (new redundants) done
Evaluating the initial hessian          ...  (Almloef) done
Evaluating the coordinates              ...  done
Calculating the B-matrix                .... done
Calculating the G-matrix                .... done
Diagonalizing the G-matrix              .... done
Small eigenvalue found = 2.854e-04
Small eigenvalue found = 2.135e-03
Small eigenvalue found = 2.276e-03
Small eigenvalue found = 3.360e-03
Small eigenvalue found = 4.467e-03
Small eigenvalue found = 5.462e-03
Small eigenvalue found = 7.586e-03
Small eigenvalue found = 8.529e-03
Small eigenvalue found = 9.233e-03
Small eigenvalue found = 1.139e-02
Small eigenvalue found = 1.226e-02
Small eigenvalue found = 1.433e-02
Small eigenvalue found = 1.585e-02
Small eigenvalue found = 1.668e-02
Small eigenvalue found = 2.016e-02
Small eigenvalue found = 2.077e-02
Small eigenvalue found = 2.432e-02
Small eigenvalue found = 2.631e-02
Small eigenvalue found = 2.894e-02
The first mode is                       ....  327
The number of degrees of freedom        ....  339

    -----------------------------------------------------------------
                    Redundant Internal Coordinates


    -----------------------------------------------------------------
         Definition                    Initial Value    Approx d2E/dq
    -----------------------------------------------------------------
      1. B(C   1,O   0)                  1.2300         1.007158   
      2. B(C   2,C   1)                  1.5416         0.357985   
      3. B(C   3,C   2)                  1.5387         0.361777   
      4. B(C   4,C   3)                  1.5354         0.366257   
      5. B(C   5,C   4)                  1.5327         0.369844   
      6. B(N   6,C   2)                  1.4718         0.414333   
      7. B(N   6,C   5)                  1.4740         0.411044   
      8. B(C   7,N   6)                  1.3585         0.628313   
      9. B(O   8,C   7)                  1.2406         0.968920   
     10. B(N   9,C   1)                  1.3619         0.620481   
     11. B(C  10,N   9)                  1.4526         0.444590   
     12. B(C  11,C  10)                  1.5385         0.362040   
     13. B(N  12,C  11)                  1.3665         0.610090   
     14. B(C  13,N  12)                  1.4714         0.414999   
     15. B(C  14,C  13)                  1.5504         0.346621   
     16. B(N  15,C  14)                  1.3626         0.618766   
     17. B(C  16,N  15)                  1.4662         0.422988   
     18. B(C  17,C  16)                  1.5370         0.364083   
     19. B(C  18,C  17)                  1.5406         0.359354   
     20. B(C  19,C  18)                  1.5401         0.359969   
     21. B(N  20,C  19)                  1.3641         0.615390   
     22. B(C  21,N  20)                  1.4593         0.433744   
     23. B(C  22,C  21)                  1.5430         0.356215   
     24. B(N  23,C  22)                  1.3523         0.642812   
     25. B(C  24,C   7)                  1.5300         0.373580   
     26. B(C  24,N  23)                  1.4437         0.459418   
     27. B(C  25,C  24)                  1.5404         0.359594   
     28. B(O  26,C  22)                  1.2322         0.999103   
     29. B(C  27,C  21)                  1.5347         0.367229   
     30. B(C  28,C  27)                  1.5365         0.364745   
     31. B(C  29,C  28)                  1.5324         0.370237   
     32. B(C  30,C  28)                  1.5318         0.371070   
     33. B(O  31,C  19)                  1.2332         0.995453   
     34. B(C  32,C  18)                  1.5491         0.348281   
     35. B(C  33,C  32)                  1.5175         0.391093   
     36. B(C  34,C  33)                  1.5336         0.368613   
     37. B(C  35,C  34)                  1.5338         0.368388   
     38. B(C  36,C  35)                  1.5312         0.371958   
     39. B(C  37,C  36)                  1.5315         0.371538   
     40. B(C  38,C  37)                  1.5284         0.375744   
     41. B(C  39,C  38)                  1.5302         0.373350   
     42. B(C  40,C  39)                  1.5301         0.373435   
     43. B(C  41,C  40)                  1.5297         0.373971   
     44. B(O  42,C  32)                  1.2155         1.062200   
     45. B(O  43,C  17)                  1.4369         0.470950   
     46. B(O  44,C  14)                  1.2324         0.998430   
     47. B(C  45,C  13)                  1.5301         0.373391   
     48. B(C  46,C  45)                  1.5273         0.377280   
     49. B(O  47,C  11)                  1.2317         1.001072   
     50. B(C  48,C  10)                  1.5517         0.344906   
     51. B(C  49,C  48)                  1.5312         0.371870   
     52. B(C  50,C  48)                  1.5306         0.372712   
     53. B(H  51,C   2)                  1.0981         0.349591   
     54. B(H  52,C   3)                  1.0994         0.347874   
     55. B(H  53,C   3)                  1.0958         0.352445   
     56. B(H  54,C   4)                  1.1000         0.347101   
     57. B(H  55,C   4)                  1.0969         0.351065   
     58. B(H  56,C   5)                  1.0982         0.349412   
     59. B(H  57,C   5)                  1.1021         0.344402   
     60. B(H  58,N   9)                  1.0195         0.417798   
     61. B(H  59,C  10)                  1.1028         0.343617   
     62. B(H  60,N  12)                  1.0148         0.425136   
     63. B(H  61,C  13)                  1.1034         0.342850   
     64. B(H  62,N  15)                  1.0166         0.422274   
     65. B(H  63,C  16)                  1.0955         0.352876   
     66. B(H  64,O   8)                  2.3456         0.003201   
     67. B(H  64,C  16)                  1.0954         0.352997   
     68. B(H  65,C  17)                  1.1024         0.344094   
     69. B(H  66,C  18)                  1.1013         0.345395   
     70. B(H  67,O  47)                  4.1220         0.000005   
     71. B(H  67,N  20)                  1.0260         0.408017   
     72. B(H  68,C  21)                  1.0998         0.347351   
     73. B(H  69,N  23)                  1.0165         0.422524   
     74. B(H  70,C  24)                  1.1018         0.344801   
     75. B(H  71,C  25)                  1.0962         0.351970   
     76. B(H  72,C  25)                  1.0984         0.349124   
     77. B(H  73,C  25)                  1.0969         0.351047   
     78. B(H  74,C  27)                  1.1009         0.345979   
     79. B(H  75,C  27)                  1.1027         0.343733   
     80. B(H  76,O  44)                  2.8782         0.000452   
     81. B(H  76,C  28)                  1.1035         0.342636   
     82. B(H  77,C  29)                  1.0998         0.347355   
     83. B(H  78,C  29)                  1.1018         0.344853   
     84. B(H  79,C  29)                  1.1000         0.347174   
     85. B(H  80,C  30)                  1.0991         0.348247   
     86. B(H  81,C  30)                  1.0998         0.347345   
     87. B(H  82,C  30)                  1.1016         0.345101   
     88. B(H  83,C  33)                  1.1056         0.340057   
     89. B(H  84,H  51)                  4.2124         0.000001   
     90. B(H  84,C  33)                  1.0963         0.351823   
     91. B(H  85,C  34)                  1.1019         0.344748   
     92. B(H  86,C  34)                  1.0995         0.347795   
     93. B(H  87,C  35)                  1.1039         0.342210   
     94. B(H  88,C  35)                  1.1025         0.343909   
     95. B(H  89,H  73)                  2.2564         0.000950   
     96. B(H  89,C  36)                  1.1035         0.342706   
     97. B(H  90,C  36)                  1.1027         0.343647   
     98. B(H  91,C  37)                  1.1044         0.341511   
     99. B(H  92,C  37)                  1.1057         0.339963   
    100. B(H  93,C  38)                  1.1044         0.341584   
    101. B(H  94,C  38)                  1.1035         0.342657   
    102. B(H  95,C  39)                  1.1048         0.341088   
    103. B(H  96,H  57)                  2.3757         0.000613   
    104. B(H  96,C  39)                  1.1062         0.339234   
    105. B(H  97,C  40)                  1.1032         0.343053   
    106. B(H  98,C  40)                  1.1029         0.343387   
    107. B(H  99,C  41)                  1.0992         0.348120   
    108. B(H 100,C  41)                  1.1012         0.345642   
    109. B(H 101,C  41)                  1.1007         0.346173   
    110. B(H 102,O  43)                  0.9732         0.495293   
    111. B(H 103,C  45)                  1.0987         0.348743   
    112. B(H 104,C  45)                  1.0985         0.349071   
    113. B(H 105,C  46)                  1.0982         0.349366   
    114. B(H 106,C  46)                  1.1012         0.345639   
    115. B(H 107,C  46)                  1.0999         0.347290   
    116. B(H 108,C  48)                  1.1041         0.341867   
    117. B(H 109,C  49)                  1.0974         0.350500   
    118. B(H 110,C  49)                  1.0991         0.348308   
    119. B(H 111,C  49)                  1.1003         0.346788   
    120. B(H 112,C  50)                  1.0978         0.349988   
    121. B(H 113,C  50)                  1.1026         0.343798   
    122. B(H 114,C  50)                  1.0986         0.348956   
    123. A(O   0,C   1,N   9)          124.0372         0.467872   
    124. A(C   2,C   1,N   9)          115.9239         0.391275   
    125. A(O   0,C   1,C   2)          119.9914         0.426301   
    126. A(C   1,C   2,H  51)          105.3684         0.320502   
    127. A(N   6,C   2,H  51)          109.8556         0.326321   
    128. A(C   1,C   2,N   6)          114.4472         0.364872   
    129. A(C   1,C   2,C   3)          111.7434         0.358751   
    130. A(C   3,C   2,H  51)          112.5566         0.321055   
    131. A(C   3,C   2,N   6)          103.0738         0.365531   
    132. A(C   4,C   3,H  53)          114.0830         0.322131   
    133. A(C   4,C   3,H  52)          110.2875         0.321443   
    134. A(C   2,C   3,C   4)          103.3023         0.360149   
    135. A(C   2,C   3,H  53)          111.4422         0.321482   
    136. A(C   2,C   3,H  52)          109.2791         0.320797   
    137. A(H  52,C   3,H  53)          108.3296         0.288296   
    138. A(H  54,C   4,H  55)          108.0872         0.288019   
    139. A(C   3,C   4,H  55)          113.1952         0.321924   
    140. A(C   3,C   4,C   5)          103.1794         0.361506   
    141. A(C   3,C   4,H  54)          110.3153         0.321326   
    142. A(C   5,C   4,H  55)          112.0183         0.322438   
    143. A(C   5,C   4,H  54)          109.9975         0.321839   
    144. A(H  56,C   5,H  57)          108.1234         0.287455   
    145. A(C   4,C   5,N   6)          103.0776         0.366414   
    146. A(C   4,C   5,H  56)          113.2834         0.322189   
    147. A(N   6,C   5,H  57)          110.2395         0.325093   
    148. A(N   6,C   5,H  56)          111.1376         0.325866   
    149. A(C   4,C   5,H  57)          110.9409         0.321428   
    150. A(C   5,N   6,C   7)          127.6672         0.399194   
    151. A(C   2,N   6,C   7)          119.6629         0.399754   
    152. A(C   2,N   6,C   5)          112.5371         0.371296   
    153. A(O   8,C   7,C  24)          121.0663         0.426601   
    154. A(N   6,C   7,O   8)          120.6275         0.465635   
    155. A(N   6,C   7,C  24)          118.3041         0.395074   
    156. A(C   1,N   9,C  10)          122.5012         0.403856   
    157. A(C  10,N   9,H  58)          113.8764         0.337138   
    158. A(C   1,N   9,H  58)          118.1668         0.356584   
    159. A(C  48,C  10,H  59)          109.1005         0.317666   
    160. A(C  11,C  10,H  59)          111.1875         0.320189   
    161. A(N   9,C  10,C  11)          105.6863         0.370024   
    162. A(N   9,C  10,C  48)          111.3074         0.366957   
    163. A(N   9,C  10,H  59)          107.0713         0.329198   
    164. A(C  11,C  10,C  48)          112.3381         0.356532   
    165. A(N  12,C  11,O  47)          121.9366         0.465909   
    166. A(C  10,C  11,O  47)          120.8843         0.426698   
    167. A(C  10,C  11,N  12)          117.1502         0.390891   
    168. A(C  13,N  12,H  60)          119.4531         0.334264   
    169. A(C  11,N  12,C  13)          121.2483         0.397802   
    170. A(C  11,N  12,H  60)          118.7249         0.356616   
    171. A(C  14,C  13,C  45)          111.7608         0.358710   
    172. A(N  12,C  13,H  61)          105.6344         0.325363   
    173. A(C  14,C  13,H  61)          106.6320         0.317807   
    174. A(N  12,C  13,C  14)          109.5507         0.362965   
    175. A(C  45,C  13,H  61)          108.9547         0.321693   
    176. A(N  12,C  13,C  45)          113.8755         0.367617   
    177. A(C  13,C  14,N  15)          114.2736         0.388888   
    178. A(N  15,C  14,O  44)          123.5823         0.466889   
    179. A(C  13,C  14,O  44)          122.0550         0.423188   
    180. A(C  14,N  15,H  62)          115.1325         0.357062   
    181. A(C  16,N  15,H  62)          115.6579         0.334949   
    182. A(C  14,N  15,C  16)          121.3935         0.400131   
    183. A(H  63,C  16,H  64)          106.8557         0.289012   
    184. A(C  17,C  16,H  64)          111.8533         0.321899   
    185. A(N  15,C  16,H  63)          107.2404         0.327939   
    186. A(C  17,C  16,H  63)          108.8430         0.321881   
    187. A(N  15,C  16,C  17)          113.7306         0.367227   
    188. A(N  15,C  16,H  64)          107.9995         0.327958   
    189. A(O  43,C  17,H  65)          109.0911         0.332427   
    190. A(C  18,C  17,H  65)          107.0798         0.319873   
    191. A(C  16,C  17,H  65)          108.2021         0.320557   
    192. A(C  16,C  17,C  18)          114.4995         0.359372   
    193. A(C  18,C  17,O  43)          106.8372         0.373232   
    194. A(C  16,C  17,O  43)          110.9682         0.374074   
    195. A(C  19,C  18,H  66)          106.1968         0.320159   
    196. A(C  17,C  18,H  66)          106.3696         0.320070   
    197. A(C  17,C  18,C  32)          115.0897         0.356671   
    198. A(C  17,C  18,C  19)          116.2025         0.358678   
    199. A(C  19,C  18,C  32)          107.2098         0.356774   
    200. A(C  32,C  18,H  66)          104.8129         0.318439   
    201. A(C  18,C  19,N  20)          118.0646         0.391090   
    202. A(N  20,C  19,O  31)          122.2415         0.466167   
    203. A(C  18,C  19,O  31)          119.6852         0.425830   
    204. A(C  19,N  20,H  67)          121.4428         0.354657   
    205. A(C  19,N  20,C  21)          121.5432         0.401517   
    206. A(C  21,N  20,H  67)          116.9949         0.334435   
    207. A(C  27,C  21,H  68)          110.8850         0.321503   
    208. A(C  22,C  21,H  68)          104.5505         0.319907   
    209. A(N  20,C  21,H  68)          108.4262         0.328444   
    210. A(N  20,C  21,C  22)          114.2417         0.367433   
    211. A(C  22,C  21,C  27)          108.8145         0.359362   
    212. A(N  20,C  21,C  27)          109.8233         0.369359   
    213. A(C  21,C  22,N  23)          114.8261         0.393362   
    214. A(C  21,C  22,O  26)          121.1644         0.425311   
    215. A(N  23,C  22,O  26)          123.9710         0.470223   
    216. A(C  22,N  23,C  24)          124.4615         0.408751   
    217. A(C  24,N  23,H  69)          115.3208         0.339625   
    218. A(C  22,N  23,H  69)          119.5645         0.359421   
    219. A(C  25,C  24,H  70)          109.2067         0.320015   
    220. A(N  23,C  24,H  70)          108.9946         0.331177   
    221. A(C   7,C  24,H  70)          110.5686         0.322019   
    222. A(N  23,C  24,C  25)          111.4927         0.371684   
    223. A(C   7,C  24,N  23)          105.8659         0.374136   
    224. A(C   7,C  24,C  25)          110.6699         0.360994   
    225. A(H  71,C  25,H  73)          108.7949         0.288645   
    226. A(C  24,C  25,H  73)          109.5503         0.320955   
    227. A(H  71,C  25,H  72)          108.9089         0.288397   
    228. A(C  24,C  25,H  72)          111.9468         0.320667   
    229. A(C  24,C  25,H  71)          108.6013         0.321093   
    230. A(H  72,C  25,H  73)          108.9846         0.288278   
    231. A(C  28,C  27,H  75)          109.1599         0.320597   
    232. A(C  21,C  27,C  28)          115.1130         0.360814   
    233. A(H  74,C  27,H  75)          107.1536         0.286925   
    234. A(C  21,C  27,H  75)          108.2942         0.320953   
    235. A(C  28,C  27,H  74)          109.7328         0.320939   
    236. A(C  21,C  27,H  74)          107.0859         0.321295   
    237. A(C  29,C  28,C  30)          111.2502         0.362378   
    238. A(C  27,C  28,C  30)          112.1232         0.361455   
    239. A(C  27,C  28,C  29)          109.4402         0.361316   
    240. A(C  30,C  28,H  76)          108.1750         0.321332   
    241. A(C  29,C  28,H  76)          107.4494         0.321214   
    242. A(C  27,C  28,H  76)          108.2383         0.320430   
    243. A(C  28,C  29,H  79)          111.2334         0.321906   
    244. A(H  78,C  29,H  79)          107.7289         0.287226   
    245. A(H  77,C  29,H  79)          108.1018         0.287550   
    246. A(H  77,C  29,H  78)          107.9442         0.287249   
    247. A(C  28,C  29,H  78)          110.8044         0.321553   
    248. A(C  28,C  29,H  77)          110.8909         0.321934   
    249. A(H  81,C  30,H  82)          107.8217         0.287280   
    250. A(H  80,C  30,H  82)          107.7400         0.287396   
    251. A(C  28,C  30,H  82)          110.7220         0.321709   
    252. A(H  80,C  30,H  81)          107.4495         0.287688   
    253. A(C  28,C  30,H  81)          110.8803         0.322051   
    254. A(C  28,C  30,H  80)          112.0478         0.322187   
    255. A(C  33,C  32,O  42)          122.2040         0.437291   
    256. A(C  18,C  32,O  42)          120.4764         0.428270   
    257. A(C  18,C  32,C  33)          117.3187         0.361848   
    258. A(C  32,C  33,C  34)          115.5881         0.365374   
    259. A(C  34,C  33,H  84)          107.6154         0.322376   
    260. A(H  83,C  33,H  84)          106.6869         0.287194   
    261. A(C  32,C  33,H  84)          110.8595         0.325524   
    262. A(C  34,C  33,H  83)          109.5365         0.320586   
    263. A(C  32,C  33,H  83)          106.2126         0.323710   
    264. A(C  33,C  34,C  35)          109.0995         0.361658   
    265. A(H  85,C  34,H  86)          106.8329         0.287292   
    266. A(C  35,C  34,H  86)          112.0961         0.321736   
    267. A(C  33,C  34,H  86)          110.5398         0.321769   
    268. A(C  35,C  34,H  85)          110.1066         0.321273   
    269. A(C  33,C  34,H  85)          108.0724         0.321306   
    270. A(C  34,C  35,C  36)          115.9847         0.362216   
    271. A(H  87,C  35,H  88)          105.3674         0.286458   
    272. A(C  36,C  35,H  88)          107.7925         0.321653   
    273. A(C  34,C  35,H  88)          107.5018         0.321145   
    274. A(C  36,C  35,H  87)          109.8698         0.321392   
    275. A(C  34,C  35,H  87)          109.7490         0.320885   
    276. A(C  35,C  36,C  37)          111.3788         0.362743   
    277. A(H  89,C  36,H  90)          105.9114         0.286489   
    278. A(C  37,C  36,H  90)          110.3361         0.321553   
    279. A(C  35,C  36,H  90)          111.0014         0.321613   
    280. A(C  37,C  36,H  89)          108.7578         0.321409   
    281. A(C  35,C  36,H  89)          109.2777         0.321468   
    282. A(C  36,C  37,C  38)          114.8428         0.363372   
    283. A(H  91,C  37,H  92)          105.6491         0.285852   
    284. A(C  38,C  37,H  92)          108.5942         0.321578   
    285. A(C  36,C  37,H  92)          107.9901         0.320987   
    286. A(C  38,C  37,H  91)          109.6208         0.321818   
    287. A(C  36,C  37,H  91)          109.7238         0.321225   
    288. A(C  37,C  38,C  39)          112.8601         0.363674   
    289. A(H  93,C  38,H  94)          105.9435         0.286213   
    290. A(C  39,C  38,H  94)          109.5592         0.321657   
    291. A(C  37,C  38,H  94)          109.8417         0.321994   
    292. A(C  39,C  38,H  93)          109.2398         0.321492   
    293. A(C  37,C  38,H  93)          109.1591         0.321829   
    294. A(C  38,C  39,C  40)          114.1375         0.363291   
    295. A(H  95,C  39,H  96)          105.7403         0.285701   
    296. A(C  40,C  39,H  96)          108.9095         0.321141   
    297. A(C  38,C  39,H  96)          108.9595         0.321129   
    298. A(C  40,C  39,H  95)          109.3202         0.321428   
    299. A(C  38,C  39,H  95)          109.4345         0.321416   
    300. A(C  39,C  40,C  41)          112.9964         0.363394   
    301. A(H  97,C  40,H  98)          105.9574         0.286500   
    302. A(C  41,C  40,H  98)          109.7010         0.321857   
    303. A(C  39,C  40,H  98)          109.1252         0.321781   
    304. A(C  41,C  40,H  97)          109.6969         0.321806   
    305. A(C  39,C  40,H  97)          109.1186         0.321730   
    306. A(H 100,C  41,H 101)          107.4686         0.287199   
    307. A(H  99,C  41,H 101)          107.6911         0.287519   
    308. A(C  40,C  41,H 101)          111.1164         0.322283   
    309. A(H  99,C  41,H 100)          107.6013         0.287450   
    310. A(C  40,C  41,H 100)          111.0596         0.322202   
    311. A(C  40,C  41,H  99)          111.7084         0.322580   
    312. A(C  17,O  43,H 102)          107.2186         0.350265   
    313. A(C  13,C  45,C  46)          112.7650         0.363934   
    314. A(C  46,C  45,H 104)          111.4414         0.323190   
    315. A(C  13,C  45,H 104)          108.3103         0.322642   
    316. A(C  46,C  45,H 103)          110.5629         0.323141   
    317. A(C  13,C  45,H 103)          107.3178         0.322592   
    318. A(H 103,C  45,H 104)          106.1373         0.287975   
    319. A(H 106,C  46,H 107)          107.6292         0.287343   
    320. A(H 105,C  46,H 107)          107.2490         0.287825   
    321. A(C  45,C  46,H 107)          111.9443         0.322920   
    322. A(H 105,C  46,H 106)          107.5678         0.287611   
    323. A(C  45,C  46,H 106)          111.3927         0.322667   
    324. A(C  45,C  46,H 105)          110.8419         0.323235   
    325. A(C  50,C  48,H 108)          108.5357         0.321446   
    326. A(C  49,C  48,H 108)          108.8757         0.321327   
    327. A(C  10,C  48,H 108)          106.5211         0.317402   
    328. A(C  49,C  48,C  50)          110.8867         0.362924   
    329. A(C  10,C  48,C  50)          111.9766         0.358297   
    330. A(C  10,C  48,C  49)          109.8954         0.358159   
    331. A(H 110,C  49,H 111)          108.1932         0.287623   
    332. A(H 109,C  49,H 111)          107.6935         0.287906   
    333. A(C  48,C  49,H 111)          110.8173         0.322080   
    334. A(H 109,C  49,H 110)          108.2089         0.288103   
    335. A(C  48,C  49,H 110)          110.3855         0.322310   
    336. A(C  48,C  49,H 109)          111.4223         0.322642   
    337. A(H 113,C  50,H 114)          107.1800         0.287318   
    338. A(H 112,C  50,H 114)          107.4754         0.288121   
    339. A(C  48,C  50,H 114)          110.3874         0.322528   
    340. A(H 112,C  50,H 113)          108.4166         0.287451   
    341. A(C  48,C  50,H 113)          110.9776         0.321742   
    342. A(C  48,C  50,H 112)          112.2067         0.322684   
    343. D(H  51,C   2,C   1,N   9)   -130.4420         0.009646   
    344. D(C   3,C   2,C   1,N   9)    107.0164         0.009646   
    345. D(N   6,C   2,C   1,N   9)     -9.6521         0.009646   
    346. D(N   6,C   2,C   1,O   0)    172.7534         0.009646   
    347. D(C   3,C   2,C   1,O   0)    -70.5780         0.009646   
    348. D(H  51,C   2,C   1,O   0)     51.9635         0.009646   
    349. D(C   4,C   3,C   2,N   6)     30.4320         0.010493   
    350. D(H  53,C   3,C   2,H  51)    -88.3597         0.010493   
    351. D(H  53,C   3,C   2,C   1)     29.9749         0.010493   
    352. D(C   4,C   3,C   2,H  51)    148.7284         0.010493   
    353. D(H  53,C   3,C   2,N   6)    153.3438         0.010493   
    354. D(H  52,C   3,C   2,H  51)     31.3310         0.010493   
    355. D(C   4,C   3,C   2,C   1)    -92.9370         0.010493   
    356. D(H  52,C   3,C   2,C   1)    149.6657         0.010493   
    357. D(H  52,C   3,C   2,N   6)    -86.9654         0.010493   
    358. D(H  55,C   4,C   3,H  53)     78.7181         0.010737   
    359. D(H  55,C   4,C   3,H  52)    -43.4548         0.010737   
    360. D(H  54,C   4,C   3,H  52)   -164.7072         0.010737   
    361. D(H  55,C   4,C   3,C   2)   -160.1416         0.010737   
    362. D(H  54,C   4,C   3,H  53)    -42.5342         0.010737   
    363. D(C   5,C   4,C   3,C   2)    -38.8599         0.010737   
    364. D(H  54,C   4,C   3,C   2)     78.6060         0.010737   
    365. D(C   5,C   4,C   3,H  53)   -160.0001         0.010737   
    366. D(C   5,C   4,C   3,H  52)     77.8269         0.010737   
    367. D(N   6,C   5,C   4,C   3)     31.7638         0.010935   
    368. D(H  57,C   5,C   4,C   3)    -86.2166         0.010935   
    369. D(H  56,C   5,C   4,H  55)    -85.9619         0.010935   
    370. D(H  56,C   5,C   4,C   3)    151.9622         0.010935   
    371. D(H  57,C   5,C   4,H  54)    156.0941         0.010935   
    372. D(H  56,C   5,C   4,H  54)     34.2729         0.010935   
    373. D(H  57,C   5,C   4,H  55)     35.8592         0.010935   
    374. D(N   6,C   5,C   4,H  54)    -85.9255         0.010935   
    375. D(N   6,C   5,C   4,H  55)    153.8396         0.010935   
    376. D(C   5,N   6,C   2,C   3)    -10.8892         0.014642   
    377. D(C   7,N   6,C   5,H  57)    -70.4400         0.014413   
    378. D(C   7,N   6,C   5,H  56)     49.4279         0.014413   
    379. D(C   7,N   6,C   5,C   4)    171.0887         0.014413   
    380. D(C   2,N   6,C   5,H  57)    105.3080         0.014413   
    381. D(C   2,N   6,C   5,H  56)   -134.8241         0.014413   
    382. D(C   7,N   6,C   2,H  51)     45.0689         0.014642   
    383. D(C   2,N   6,C   5,C   4)    -13.1633         0.014413   
    384. D(C   7,N   6,C   2,C   3)    165.2381         0.014642   
    385. D(C   5,N   6,C   2,C   1)    110.6671         0.014642   
    386. D(C   7,N   6,C   2,C   1)    -73.2057         0.014642   
    387. D(C   5,N   6,C   2,H  51)   -131.0584         0.014642   
    388. D(C  24,C   7,N   6,C   5)     -0.5872         0.032035   
    389. D(C  24,C   7,N   6,C   2)   -176.0671         0.032035   
    390. D(O   8,C   7,N   6,C   5)    178.8827         0.032035   
    391. D(O   8,C   7,N   6,C   2)      3.4028         0.032035   
    392. D(H  58,N   9,C   1,O   0)   -165.8440         0.031179   
    393. D(C  10,N   9,C   1,C   2)    168.9879         0.031179   
    394. D(H  58,N   9,C   1,C   2)     16.6703         0.031179   
    395. D(C  10,N   9,C   1,O   0)    -13.5263         0.031179   
    396. D(H  59,C  10,N   9,C   1)     -2.0354         0.016857   
    397. D(C  48,C  10,N   9,H  58)    -89.4867         0.016857   
    398. D(C  48,C  10,N   9,C   1)    117.1213         0.016857   
    399. D(C  11,C  10,N   9,C   1)   -120.6520         0.016857   
    400. D(H  59,C  10,N   9,H  58)    151.3566         0.016857   
    401. D(C  11,C  10,N   9,H  58)     32.7401         0.016857   
    402. D(O  47,C  11,C  10,N   9)    -33.6845         0.009847   
    403. D(N  12,C  11,C  10,H  59)     28.5557         0.009847   
    404. D(N  12,C  11,C  10,C  48)    -94.0395         0.009847   
    405. D(N  12,C  11,C  10,N   9)    144.3970         0.009847   
    406. D(O  47,C  11,C  10,H  59)   -149.5258         0.009847   
    407. D(O  47,C  11,C  10,C  48)     87.8791         0.009847   
    408. D(H  60,N  12,C  11,O  47)   -174.4987         0.030065   
    409. D(H  60,N  12,C  11,C  10)      7.4415         0.030065   
    410. D(C  13,N  12,C  11,O  47)     -3.2329         0.030065   
    411. D(C  13,N  12,C  11,C  10)    178.7073         0.030065   
    412. D(H  61,C  13,N  12,C  11)    170.3989         0.014688   
    413. D(H  61,C  13,N  12,H  60)    -18.3978         0.014688   
    414. D(C  45,C  13,N  12,H  60)    101.1227         0.014688   
    415. D(C  45,C  13,N  12,C  11)    -70.0806         0.014688   
    416. D(C  14,C  13,N  12,C  11)     55.8932         0.014688   
    417. D(C  14,C  13,N  12,H  60)   -132.9035         0.014688   
    418. D(O  44,C  14,C  13,C  45)     -6.6309         0.009095   
    419. D(O  44,C  14,C  13,N  12)   -133.8039         0.009095   
    420. D(N  15,C  14,C  13,H  61)    -64.3475         0.009095   
    421. D(N  15,C  14,C  13,C  45)    176.6886         0.009095   
    422. D(O  44,C  14,C  13,H  61)    112.3330         0.009095   
    423. D(N  15,C  14,C  13,N  12)     49.5156         0.009095   
    424. D(H  62,N  15,C  14,O  44)    169.0021         0.030993   
    425. D(H  62,N  15,C  14,C  13)    -14.3750         0.030993   
    426. D(C  16,N  15,C  14,O  44)     21.1604         0.030993   
    427. D(C  16,N  15,C  14,C  13)   -162.2167         0.030993   
    428. D(H  64,C  16,N  15,H  62)    -94.3274         0.015255   
    429. D(H  64,C  16,N  15,C  14)     53.3571         0.015255   
    430. D(H  63,C  16,N  15,H  62)     20.5106         0.015255   
    431. D(H  63,C  16,N  15,C  14)    168.1951         0.015255   
    432. D(C  17,C  16,N  15,C  14)    -71.4188         0.015255   
    433. D(C  17,C  16,N  15,H  62)    140.8967         0.015255   
    434. D(H  65,C  17,C  16,H  64)    -85.6061         0.010618   
    435. D(H  65,C  17,C  16,H  63)    156.5562         0.010618   
    436. D(H  65,C  17,C  16,N  15)     37.0768         0.010618   
    437. D(O  43,C  17,C  16,H  64)    154.7420         0.010618   
    438. D(O  43,C  17,C  16,H  63)     36.9043         0.010618   
    439. D(O  43,C  17,C  16,N  15)    -82.5751         0.010618   
    440. D(C  18,C  17,C  16,H  64)     33.7092         0.010618   
    441. D(C  18,C  17,C  16,H  63)    -84.1285         0.010618   
    442. D(C  18,C  17,C  16,N  15)    156.3921         0.010618   
    443. D(H  66,C  18,C  17,H  65)    -57.2771         0.010363   
    444. D(H  66,C  18,C  17,O  43)     59.4966         0.010363   
    445. D(H  66,C  18,C  17,C  16)   -177.2199         0.010363   
    446. D(C  32,C  18,C  17,O  43)    -56.0827         0.010363   
    447. D(C  32,C  18,C  17,C  16)     67.2008         0.010363   
    448. D(C  32,C  18,C  17,H  65)   -172.8564         0.010363   
    449. D(C  19,C  18,C  17,H  65)     60.6645         0.010363   
    450. D(C  19,C  18,C  17,O  43)    177.4383         0.010363   
    451. D(C  19,C  18,C  17,C  16)    -59.2783         0.010363   
    452. D(O  31,C  19,C  18,H  66)    -80.7920         0.009744   
    453. D(O  31,C  19,C  18,C  32)     30.8421         0.009744   
    454. D(O  31,C  19,C  18,C  17)    161.1714         0.009744   
    455. D(N  20,C  19,C  18,H  66)     98.1626         0.009744   
    456. D(N  20,C  19,C  18,C  17)    -19.8740         0.009744   
    457. D(N  20,C  19,C  18,C  32)   -150.2033         0.009744   
    458. D(H  67,N  20,C  19,O  31)   -175.7081         0.030630   
    459. D(H  67,N  20,C  19,C  18)      5.3657         0.030630   
    460. D(C  21,N  20,C  19,O  31)      2.6551         0.030630   
    461. D(C  21,N  20,C  19,C  18)   -176.2711         0.030630   
    462. D(H  68,C  21,N  20,H  67)   -138.3520         0.016040   
    463. D(H  68,C  21,N  20,C  19)     43.2153         0.016040   
    464. D(C  27,C  21,N  20,H  67)    -17.0515         0.016040   
    465. D(C  27,C  21,N  20,C  19)    164.5158         0.016040   
    466. D(C  22,C  21,N  20,H  67)    105.5162         0.016040   
    467. D(C  22,C  21,N  20,C  19)    -72.9166         0.016040   
    468. D(N  23,C  22,C  21,C  27)    108.5469         0.009558   
    469. D(N  23,C  22,C  21,N  20)    -14.5687         0.009558   
    470. D(O  26,C  22,C  21,H  68)     49.2420         0.009558   
    471. D(O  26,C  22,C  21,C  27)    -69.2823         0.009558   
    472. D(O  26,C  22,C  21,N  20)    167.6022         0.009558   
    473. D(N  23,C  22,C  21,H  68)   -132.9289         0.009558   
    474. D(H  69,N  23,C  22,O  26)   -177.2928         0.033657   
    475. D(H  69,N  23,C  22,C  21)      4.9472         0.033657   
    476. D(C  24,N  23,C  22,O  26)     -7.0037         0.033657   
    477. D(C  24,N  23,C  22,C  21)    175.2362         0.033657   
    478. D(H  70,C  24,N  23,H  69)   -136.9855         0.018017   
    479. D(H  70,C  24,N  23,C  22)     52.3554         0.018017   
    480. D(C  25,C  24,N  23,H  69)    102.3863         0.018017   
    481. D(C  25,C  24,N  23,C  22)    -68.2727         0.018017   
    482. D(C   7,C  24,N  23,H  69)    -18.0315         0.018017   
    483. D(C   7,C  24,N  23,C  22)    171.3095         0.018017   
    484. D(H  70,C  24,C   7,O   8)    140.0334         0.010437   
    485. D(H  70,C  24,C   7,N   6)    -40.4991         0.010437   
    486. D(C  25,C  24,C   7,O   8)    -98.8273         0.010437   
    487. D(C  25,C  24,C   7,N   6)     80.6402         0.010437   
    488. D(N  23,C  24,C   7,O   8)     22.1249         0.010437   
    489. D(N  23,C  24,C   7,N   6)   -158.4075         0.010437   
    490. D(H  73,C  25,C  24,H  70)   -178.1539         0.010376   
    491. D(H  73,C  25,C  24,N  23)    -57.6501         0.010376   
    492. D(H  73,C  25,C  24,C   7)     59.9041         0.010376   
    493. D(H  72,C  25,C  24,H  70)     60.8300         0.010376   
    494. D(H  72,C  25,C  24,N  23)   -178.6661         0.010376   
    495. D(H  72,C  25,C  24,C   7)    -61.1119         0.010376   
    496. D(H  71,C  25,C  24,H  70)    -59.4521         0.010376   
    497. D(H  71,C  25,C  24,N  23)     61.0518         0.010376   
    498. D(H  71,C  25,C  24,C   7)    178.6059         0.010376   
    499. D(H  75,C  27,C  21,H  68)   -178.9802         0.010791   
    500. D(H  75,C  27,C  21,C  22)    -64.5186         0.010791   
    501. D(H  75,C  27,C  21,N  20)     61.2071         0.010791   
    502. D(H  74,C  27,C  21,H  68)    -63.7284         0.010791   
    503. D(H  74,C  27,C  21,C  22)     50.7331         0.010791   
    504. D(H  74,C  27,C  21,N  20)    176.4589         0.010791   
    505. D(C  28,C  27,C  21,H  68)     58.5590         0.010791   
    506. D(C  28,C  27,C  21,C  22)    173.0205         0.010791   
    507. D(C  28,C  27,C  21,N  20)    -61.2538         0.010791   
    508. D(H  76,C  28,C  27,H  75)    -64.3253         0.010654   
    509. D(H  76,C  28,C  27,H  74)    178.5235         0.010654   
    510. D(H  76,C  28,C  27,C  21)     57.6700         0.010654   
    511. D(C  30,C  28,C  27,H  75)    176.4339         0.010654   
    512. D(C  30,C  28,C  27,H  74)     59.2828         0.010654   
    513. D(C  30,C  28,C  27,C  21)    -61.5707         0.010654   
    514. D(C  29,C  28,C  27,H  75)     52.4900         0.010654   
    515. D(C  29,C  28,C  27,H  74)    -64.6612         0.010654   
    516. D(C  29,C  28,C  27,C  21)    174.4853         0.010654   
    517. D(H  79,C  29,C  28,C  30)     57.5986         0.010957   
    518. D(H  79,C  29,C  28,C  27)   -177.9465         0.010957   
    519. D(H  78,C  29,C  28,H  76)    179.5570         0.010957   
    520. D(H  78,C  29,C  28,C  30)    -62.2101         0.010957   
    521. D(H  78,C  29,C  28,C  27)     62.2447         0.010957   
    522. D(H  77,C  29,C  28,H  76)     59.7031         0.010957   
    523. D(H  77,C  29,C  28,C  30)    177.9359         0.010957   
    524. D(H  79,C  29,C  28,H  76)    -60.6342         0.010957   
    525. D(H  77,C  29,C  28,C  27)    -57.6093         0.010957   
    526. D(H  82,C  30,C  28,H  76)   -178.0786         0.011003   
    527. D(H  82,C  30,C  28,C  29)     64.1267         0.011003   
    528. D(H  82,C  30,C  28,C  27)    -58.8007         0.011003   
    529. D(H  81,C  30,C  28,H  76)     62.2822         0.011003   
    530. D(H  81,C  30,C  28,C  29)    -55.5125         0.011003   
    531. D(H  81,C  30,C  28,C  27)   -178.4399         0.011003   
    532. D(H  80,C  30,C  28,H  76)    -57.7679         0.011003   
    533. D(H  80,C  30,C  28,C  29)   -175.5626         0.011003   
    534. D(H  80,C  30,C  28,C  27)     61.5100         0.011003   
    535. D(O  42,C  32,C  18,H  66)     -0.8472         0.009174   
    536. D(O  42,C  32,C  18,C  19)   -113.4264         0.009174   
    537. D(O  42,C  32,C  18,C  17)    115.6218         0.009174   
    538. D(C  33,C  32,C  18,H  66)    179.5014         0.009174   
    539. D(C  33,C  32,C  18,C  19)     66.9222         0.009174   
    540. D(C  33,C  32,C  18,C  17)    -64.0296         0.009174   
    541. D(H  84,C  33,C  32,O  42)    172.8309         0.011376   
    542. D(H  84,C  33,C  32,C  18)     -7.5241         0.011376   
    543. D(H  83,C  33,C  32,O  42)    -71.6505         0.011376   
    544. D(H  83,C  33,C  32,C  18)    107.9945         0.011376   
    545. D(C  34,C  33,C  32,O  42)     50.0423         0.011376   
    546. D(C  34,C  33,C  32,C  18)   -130.3127         0.011376   
    547. D(H  86,C  34,C  33,H  84)    178.5573         0.010867   
    548. D(H  86,C  34,C  33,H  83)     62.9413         0.010867   
    549. D(H  86,C  34,C  33,C  32)    -56.9523         0.010867   
    550. D(H  85,C  34,C  33,H  84)    -64.8559         0.010867   
    551. D(H  85,C  34,C  33,H  83)    179.5281         0.010867   
    552. D(H  85,C  34,C  33,C  32)     59.6344         0.010867   
    553. D(C  35,C  34,C  33,H  84)     54.8578         0.010867   
    554. D(C  35,C  34,C  33,H  83)    -60.7582         0.010867   
    555. D(C  35,C  34,C  33,C  32)    179.3481         0.010867   
    556. D(H  88,C  35,C  34,H  86)   -163.9437         0.010855   
    557. D(H  88,C  35,C  34,H  85)     77.2769         0.010855   
    558. D(H  88,C  35,C  34,C  33)    -41.1710         0.010855   
    559. D(H  87,C  35,C  34,H  86)    -49.8365         0.010855   
    560. D(H  87,C  35,C  34,H  85)   -168.6159         0.010855   
    561. D(H  87,C  35,C  34,C  33)     72.9362         0.010855   
    562. D(C  36,C  35,C  34,H  86)     75.3839         0.010855   
    563. D(C  36,C  35,C  34,H  85)    -43.3956         0.010855   
    564. D(C  36,C  35,C  34,C  33)   -161.8434         0.010855   
    565. D(H  90,C  36,C  35,H  87)     49.7962         0.011053   
    566. D(H  90,C  36,C  35,C  34)    -75.3624         0.011053   
    567. D(H  89,C  36,C  35,H  88)    -79.4314         0.011053   
    568. D(H  89,C  36,C  35,H  87)    166.2432         0.011053   
    569. D(H  89,C  36,C  35,C  34)     41.0846         0.011053   
    570. D(C  37,C  36,C  35,H  88)     40.7515         0.011053   
    571. D(C  37,C  36,C  35,H  87)    -73.5738         0.011053   
    572. D(H  90,C  36,C  35,H  88)    164.1216         0.011053   
    573. D(C  37,C  36,C  35,C  34)    161.2676         0.011053   
    574. D(H  92,C  37,C  36,H  90)   -176.2417         0.011030   
    575. D(H  92,C  37,C  36,H  89)     67.9958         0.011030   
    576. D(H  92,C  37,C  36,C  35)    -52.4934         0.011030   
    577. D(H  91,C  37,C  36,H  90)    -61.5517         0.011030   
    578. D(H  91,C  37,C  36,H  89)   -177.3141         0.011030   
    579. D(H  91,C  37,C  36,C  35)     62.1967         0.011030   
    580. D(C  38,C  37,C  36,H  90)     62.4407         0.011030   
    581. D(C  38,C  37,C  36,H  89)    -53.3218         0.011030   
    582. D(C  38,C  37,C  36,C  35)   -173.8109         0.011030   
    583. D(H  94,C  38,C  37,H  92)    175.9736         0.011266   
    584. D(H  94,C  38,C  37,H  91)     61.0078         0.011266   
    585. D(H  94,C  38,C  37,C  36)    -63.0392         0.011266   
    586. D(H  93,C  38,C  37,H  92)    -68.2717         0.011266   
    587. D(H  93,C  38,C  37,H  91)    176.7625         0.011266   
    588. D(H  93,C  38,C  37,C  36)     52.7155         0.011266   
    589. D(C  39,C  38,C  37,H  92)     53.4004         0.011266   
    590. D(C  39,C  38,C  37,H  91)    -61.5654         0.011266   
    591. D(C  39,C  38,C  37,C  36)    174.3876         0.011266   
    592. D(H  95,C  39,C  38,H  94)    -64.7981         0.011131   
    593. D(H  95,C  39,C  38,H  93)    179.5594         0.011131   
    594. D(H  95,C  39,C  38,C  37)     57.9329         0.011131   
    595. D(C  40,C  39,C  38,H  94)     58.0597         0.011131   
    596. D(C  40,C  39,C  38,H  93)    -57.5828         0.011131   
    597. D(C  40,C  39,C  38,C  37)   -179.2093         0.011131   
    598. D(H  96,C  39,C  38,H  94)   -179.9729         0.011131   
    599. D(H  96,C  39,C  38,H  93)     64.3846         0.011131   
    600. D(H  96,C  39,C  38,C  37)    -57.2419         0.011131   
    601. D(H  98,C  40,C  39,H  95)     63.9542         0.011136   
    602. D(H  98,C  40,C  39,C  38)    -58.9659         0.011136   
    603. D(H  97,C  40,C  39,H  96)    -65.6087         0.011136   
    604. D(H  97,C  40,C  39,H  95)    179.3061         0.011136   
    605. D(H  97,C  40,C  39,C  38)     56.3861         0.011136   
    606. D(C  41,C  40,C  39,H  96)     56.7103         0.011136   
    607. D(C  41,C  40,C  39,H  95)    -58.3748         0.011136   
    608. D(H  98,C  40,C  39,H  96)    179.0393         0.011136   
    609. D(C  41,C  40,C  39,C  38)    178.7051         0.011136   
    610. D(H 101,C  41,C  40,H  98)    -62.3913         0.011166   
    611. D(H 101,C  41,C  40,H  97)   -178.3899         0.011166   
    612. D(H 101,C  41,C  40,C  39)     59.6151         0.011166   
    613. D(H 100,C  41,C  40,H  98)    178.0358         0.011166   
    614. D(H 100,C  41,C  40,H  97)     62.0372         0.011166   
    615. D(H 100,C  41,C  40,C  39)    -59.9578         0.011166   
    616. D(H  99,C  41,C  40,H  98)     57.8989         0.011166   
    617. D(H  99,C  41,C  40,H  97)    -58.0998         0.011166   
    618. D(H  99,C  41,C  40,C  39)    179.9053         0.011166   
    619. D(H 102,O  43,C  17,H  65)    -54.6264         0.017484   
    620. D(H 102,O  43,C  17,C  18)   -170.0596         0.017484   
    621. D(H 102,O  43,C  17,C  16)     64.4928         0.017484   
    622. D(H 104,C  45,C  13,H  61)    172.8897         0.011133   
    623. D(H 104,C  45,C  13,C  14)    -69.5327         0.011133   
    624. D(H 104,C  45,C  13,N  12)     55.2679         0.011133   
    625. D(H 103,C  45,C  13,H  61)    -72.9151         0.011133   
    626. D(H 103,C  45,C  13,C  14)     44.6625         0.011133   
    627. D(H 103,C  45,C  13,N  12)    169.4631         0.011133   
    628. D(C  46,C  45,C  13,H  61)     49.0797         0.011133   
    629. D(C  46,C  45,C  13,C  14)    166.6573         0.011133   
    630. D(C  46,C  45,C  13,N  12)    -68.5421         0.011133   
    631. D(H 107,C  46,C  45,H 104)    -62.6018         0.011353   
    632. D(H 107,C  46,C  45,H 103)    179.6069         0.011353   
    633. D(H 107,C  46,C  45,C  13)     59.4605         0.011353   
    634. D(H 106,C  46,C  45,H 104)    176.8338         0.011353   
    635. D(H 106,C  46,C  45,H 103)     59.0424         0.011353   
    636. D(H 106,C  46,C  45,C  13)    -61.1039         0.011353   
    637. D(H 105,C  46,C  45,H 104)     57.0977         0.011353   
    638. D(H 105,C  46,C  45,H 103)    -60.6936         0.011353   
    639. D(H 105,C  46,C  45,C  13)    179.1601         0.011353   
    640. D(H 108,C  48,C  10,H  59)    177.4740         0.009608   
    641. D(H 108,C  48,C  10,C  11)    -58.7601         0.009608   
    642. D(H 108,C  48,C  10,N   9)     59.5354         0.009608   
    643. D(C  50,C  48,C  10,H  59)    -64.0190         0.009608   
    644. D(C  50,C  48,C  10,C  11)     59.7469         0.009608   
    645. D(C  50,C  48,C  10,N   9)    178.0424         0.009608   
    646. D(C  49,C  48,C  10,H  59)     59.6853         0.009608   
    647. D(C  49,C  48,C  10,C  11)   -176.5488         0.009608   
    648. D(C  49,C  48,C  10,N   9)    -58.2532         0.009608   
    649. D(H 111,C  49,C  48,C  50)     60.5839         0.011048   
    650. D(H 111,C  49,C  48,C  10)    -63.7542         0.011048   
    651. D(H 110,C  49,C  48,H 108)     60.0847         0.011048   
    652. D(H 110,C  49,C  48,C  50)    -59.2599         0.011048   
    653. D(H 110,C  49,C  48,C  10)    176.4020         0.011048   
    654. D(H 109,C  49,C  48,H 108)    -60.1736         0.011048   
    655. D(H 109,C  49,C  48,C  50)   -179.5183         0.011048   
    656. D(H 111,C  49,C  48,H 108)    179.9285         0.011048   
    657. D(H 109,C  49,C  48,C  10)     56.1436         0.011048   
    658. D(H 114,C  50,C  48,H 108)    -65.5268         0.011095   
    659. D(H 114,C  50,C  48,C  49)     54.0217         0.011095   
    660. D(H 114,C  50,C  48,C  10)    177.1677         0.011095   
    661. D(H 113,C  50,C  48,H 108)    175.7893         0.011095   
    662. D(H 113,C  50,C  48,C  49)    -64.6622         0.011095   
    663. D(H 113,C  50,C  48,C  10)     58.4839         0.011095   
    664. D(H 112,C  50,C  48,H 108)     54.3243         0.011095   
    665. D(H 112,C  50,C  48,C  49)    173.8728         0.011095   
    666. D(H 112,C  50,C  48,C  10)    -62.9811         0.011095   
    -----------------------------------------------------------------

Number of atoms                         .... 115
Number of degrees of freedom            .... 666

         *************************************************************
         *                GEOMETRY OPTIMIZATION CYCLE   1            *
         *************************************************************
---------------------------------
CARTESIAN COORDINATES (ANGSTROEM)
---------------------------------
  O      4.183301    2.296772   -1.732799
  C      3.347544    2.149811   -0.842357
  C      2.004199    2.902649   -0.914467
  C      2.182805    4.411750   -0.672763
  C      1.951508    4.557350    0.838101
  C      0.804652    3.578091    1.112037
  N      1.031260    2.512834    0.118811
  C      0.400593    1.312915    0.029925
  O      0.682572    0.516476   -0.878467
  N      3.542423    1.384649    0.267276
  C      4.638917    0.438577    0.380285
  C      3.982146   -0.934499    0.604809
  N      4.590762   -2.017414    0.035458
  C      4.055693   -3.376125    0.215871
  C      2.577555   -3.417731   -0.250038
  N      2.363176   -2.876935   -1.482258
  C      1.020979   -2.480509   -1.919354
  C      0.089749   -3.667870   -2.211537
  C     -1.412454   -3.341724   -2.109792
  C     -1.905148   -2.824566   -0.745348
  N     -1.133831   -3.073461    0.351907
  C     -1.565817   -2.689246    1.691857
  C     -1.504121   -1.172229    1.966727
  N     -0.784650   -0.461379    1.069138
  C     -0.671001    0.977836    1.069298
  C     -2.008939    1.649655    0.706860
  O     -2.043959   -0.681649    2.959835
  C     -0.715523   -3.417428    2.741592
  C     -0.808455   -4.950727    2.706589
  C      0.187971   -5.545073    3.707723
  C     -2.231519   -5.448755    2.977449
  O     -2.979180   -2.223017   -0.671825
  C     -1.947891   -2.368366   -3.189396
  C     -1.395457   -0.954966   -3.188390
  C     -2.441838    0.165224   -3.236498
  C     -1.726332    1.521711   -3.212926
  C     -2.586650    2.727305   -2.824456
  C     -1.721438    3.912628   -2.386422
  C     -2.500264    5.108937   -1.840203
  C     -1.590533    6.209692   -1.290541
  C     -2.341080    7.414046   -0.718335
  C     -1.408100    8.483750   -0.147983
  O     -2.772598   -2.740979   -4.000919
  O      0.314842   -4.184794   -3.533255
  O      1.695117   -3.955944    0.421108
  C      4.218478   -3.922354    1.635887
  C      5.676121   -4.196903    2.000007
  O      2.932805   -1.036873    1.241549
  C      5.602320    0.827092    1.533017
  C      6.156937    2.234642    1.296552
  C      6.737602   -0.186378    1.696850
  H      1.599301    2.680650   -1.910718
  H      1.412375    4.962486   -1.231165
  H      3.166376    4.757819   -1.009969
  H      2.849776    4.249479    1.393391
  H      1.698897    5.581260    1.139804
  H      0.812521    3.175212    2.133639
  H     -0.172553    4.057945    0.940259
  H      2.730402    1.145007    0.835312
  H      5.189548    0.465615   -0.574776
  H      5.496022   -1.892124   -0.405718
  H      4.624626   -4.014742   -0.481190
  H      3.128481   -2.315495   -1.846482
  H      1.138769   -1.889711   -2.834362
  H      0.601925   -1.810751   -1.160560
  H      0.299795   -4.459837   -1.474039
  H     -1.948248   -4.286569   -2.291900
  H     -0.212482   -3.517195    0.268969
  H     -2.629396   -2.946881    1.801451
  H     -0.402501   -0.927555    0.250675
  H     -0.356890    1.312655    2.070913
  H     -2.756422    1.367749    1.457518
  H     -1.925006    2.744584    0.681809
  H     -2.343552    1.294838   -0.275686
  H     -1.034030   -3.048179    3.728590
  H      0.336166   -3.115399    2.605241
  H     -0.510019   -5.291942    1.700462
  H      1.212563   -5.212766    3.485544
  H     -0.055397   -5.231056    4.735379
  H      0.171881   -6.644576    3.680776
  H     -2.944306   -5.092865    2.220269
  H     -2.269252   -6.547922    2.975067
  H     -2.585428   -5.101394    3.961100
  H     -0.734196   -0.881371   -4.071364
  H     -0.765302   -0.782754   -2.307943
  H     -3.091554    0.064267   -2.352319
  H     -3.086675    0.053069   -4.119916
  H     -1.242008    1.704942   -4.187805
  H     -0.900859    1.448573   -2.485738
  H     -3.252127    2.446322   -1.990279
  H     -3.250174    3.023073   -3.654077
  H     -1.082544    4.238263   -3.226384
  H     -1.026416    3.557167   -1.603425
  H     -3.179228    4.764675   -1.040126
  H     -3.148887    5.525694   -2.629727
  H     -0.904412    6.550994   -2.086315
  H     -0.944885    5.781421   -0.500916
  H     -3.034146    7.067998    0.067136
  H     -2.972998    7.854414   -1.507780
  H     -1.968604    9.338965    0.255384
  H     -0.790353    8.076089    0.667335
  H     -0.724286    8.866561   -0.920949
  H      1.220743   -4.539921   -3.553296
  H      3.624030   -4.844017    1.701923
  H      3.757284   -3.210897    2.334287
  H      5.757757   -4.572997    3.028605
  H      6.121170   -4.952187    1.333656
  H      6.294066   -3.289405    1.934563
  H      4.999473    0.831437    2.458052
  H      5.350003    2.970095    1.186298
  H      6.790097    2.543375    2.140194
  H      6.765672    2.266283    0.380583
  H      6.368015   -1.182191    1.974019
  H      7.322047   -0.278265    0.766404
  H      7.430644    0.139310    2.484536

----------------------------
CARTESIAN COORDINATES (A.U.)
----------------------------
  NO LB      ZA    FRAG     MASS         X           Y           Z
   0 O     8.0000    0    15.999    7.905293    4.340271   -3.274515
   1 C     6.0000    0    12.011    6.325941    4.062554   -1.591824
   2 C     6.0000    0    12.011    3.787388    5.485212   -1.728093
   3 C     6.0000    0    12.011    4.124903    8.336999   -1.271338
   4 C     6.0000    0    12.011    3.687816    8.612144    1.583781
   5 C     6.0000    0    12.011    1.520572    6.761613    2.101444
   6 N     7.0000    0    14.007    1.948799    4.748568    0.224521
   7 C     6.0000    0    12.011    0.757011    2.481050    0.056551
   8 O     8.0000    0    15.999    1.289875    0.975998   -1.660061
   9 N     7.0000    0    14.007    6.694210    2.616608    0.505078
  10 C     6.0000    0    12.011    8.766282    0.828791    0.718635
  11 C     6.0000    0    12.011    7.525165   -1.765947    1.142923
  12 N     7.0000    0    14.007    8.675283   -3.812359    0.067006
  13 C     6.0000    0    12.011    7.664149   -6.379952    0.407937
  14 C     6.0000    0    12.011    4.870873   -6.458576   -0.472503
  15 N     7.0000    0    14.007    4.465755   -5.436619   -2.801062
  16 C     6.0000    0    12.011    1.929372   -4.687483   -3.627054
  17 C     6.0000    0    12.011    0.169602   -6.931270   -4.179199
  18 C     6.0000    0    12.011   -2.669152   -6.314943   -3.986929
  19 C     6.0000    0    12.011   -3.600208   -5.337656   -1.408504
  20 N     7.0000    0    14.007   -2.142629   -5.807999    0.665008
  21 C     6.0000    0    12.011   -2.958966   -5.081939    3.197146
  22 C     6.0000    0    12.011   -2.842377   -2.215191    3.716576
  23 N     7.0000    0    14.007   -1.482774   -0.871880    2.020377
  24 C     6.0000    0    12.011   -1.268009    1.847842    2.020680
  25 C     6.0000    0    12.011   -3.796345    3.117396    1.335772
  26 O     8.0000    0    15.999   -3.862522   -1.288130    5.593277
  27 C     6.0000    0    12.011   -1.352143   -6.458003    5.180858
  28 C     6.0000    0    12.011   -1.527758   -9.355518    5.114713
  29 C     6.0000    0    12.011    0.355214  -10.478670    7.006582
  30 C     6.0000    0    12.011   -4.216959  -10.296655    5.626564
  31 O     8.0000    0    15.999   -5.629835   -4.200894   -1.269565
  32 C     6.0000    0    12.011   -3.680981   -4.475564   -6.027084
  33 C     6.0000    0    12.011   -2.637032   -1.804625   -6.025184
  34 C     6.0000    0    12.011   -4.614404    0.312227   -6.116094
  35 C     6.0000    0    12.011   -3.262294    2.875616   -6.071550
  36 C     6.0000    0    12.011   -4.888060    5.153859   -5.337448
  37 C     6.0000    0    12.011   -3.253046    7.393795   -4.509684
  38 C     6.0000    0    12.011   -4.724814    9.654491   -3.477481
  39 C     6.0000    0    12.011   -3.005672   11.734617   -2.438769
  40 C     6.0000    0    12.011   -4.424000   14.010517   -1.357456
  41 C     6.0000    0    12.011   -2.660923   16.031963   -0.279647
  42 O     8.0000    0    15.999   -5.239451   -5.179700   -7.560640
  43 O     8.0000    0    15.999    0.594966   -7.908115   -6.676884
  44 O     8.0000    0    15.999    3.203306   -7.475651    0.795779
  45 C     6.0000    0    12.011    7.971767   -7.412174    3.091378
  46 C     6.0000    0    12.011   10.726314   -7.930997    3.779466
  47 O     8.0000    0    15.999    5.542198   -1.959406    2.346187
  48 C     6.0000    0    12.011   10.586851    1.562978    2.896983
  49 C     6.0000    0    12.011   11.634925    4.222862    2.450128
  50 C     6.0000    0    12.011   12.732223   -0.352203    3.206582
  51 H     1.0000    0     1.008    3.022241    5.065695   -3.610733
  52 H     1.0000    0     1.008    2.669002    9.377740   -2.326566
  53 H     1.0000    0     1.008    5.983584    8.990975   -1.908566
  54 H     1.0000    0     1.008    5.385297    8.030351    2.633128
  55 H     1.0000    0     1.008    3.210451   10.547052    2.153917
  56 H     1.0000    0     1.008    1.535442    6.000281    4.031994
  57 H     1.0000    0     1.008   -0.326078    7.668405    1.776831
  58 H     1.0000    0     1.008    5.159712    2.163751    1.578511
  59 H     1.0000    0     1.008    9.806825    0.879884   -1.086169
  60 H     1.0000    0     1.008   10.385977   -3.575596   -0.766696
  61 H     1.0000    0     1.008    8.739276   -7.586762   -0.909317
  62 H     1.0000    0     1.008    5.911972   -4.375651   -3.489346
  63 H     1.0000    0     1.008    2.151962   -3.571036   -5.356168
  64 H     1.0000    0     1.008    1.137473   -3.421823   -2.193141
  65 H     1.0000    0     1.008    0.566530   -8.427871   -2.785530
  66 H     1.0000    0     1.008   -3.681655   -8.100442   -4.331064
  67 H     1.0000    0     1.008   -0.401532   -6.646535    0.508278
  68 H     1.0000    0     1.008   -4.968839   -5.568798    3.404248
  69 H     1.0000    0     1.008   -0.760617   -1.752824    0.473707
  70 H     1.0000    0     1.008   -0.674425    2.480559    3.913458
  71 H     1.0000    0     1.008   -5.208883    2.584670    2.754309
  72 H     1.0000    0     1.008   -3.637734    5.186511    1.288433
  73 H     1.0000    0     1.008   -4.428671    2.446889   -0.520971
  74 H     1.0000    0     1.008   -1.954034   -5.760223    7.046014
  75 H     1.0000    0     1.008    0.635262   -5.887250    4.923192
  76 H     1.0000    0     1.008   -0.963797  -10.000321    3.213408
  77 H     1.0000    0     1.008    2.291412   -9.850701    6.586723
  78 H     1.0000    0     1.008   -0.104686   -9.885264    8.948570
  79 H     1.0000    0     1.008    0.324807  -12.556430    6.955658
  80 H     1.0000    0     1.008   -5.563932   -9.624119    4.195701
  81 H     1.0000    0     1.008   -4.288265  -12.373779    5.622061
  82 H     1.0000    0     1.008   -4.885750   -9.640238    7.485395
  83 H     1.0000    0     1.008   -1.387429   -1.665550   -7.693763
  84 H     1.0000    0     1.008   -1.446211   -1.479191   -4.361379
  85 H     1.0000    0     1.008   -5.842190    0.121448   -4.445239
  86 H     1.0000    0     1.008   -5.832971    0.100287   -7.785514
  87 H     1.0000    0     1.008   -2.347055    3.221873   -7.913804
  88 H     1.0000    0     1.008   -1.702377    2.737406   -4.697365
  89 H     1.0000    0     1.008   -6.145630    4.622878   -3.761083
  90 H     1.0000    0     1.008   -6.141938    5.712780   -6.905205
  91 H     1.0000    0     1.008   -2.045711    8.009157   -6.096982
  92 H     1.0000    0     1.008   -1.939645    6.722071   -3.030033
  93 H     1.0000    0     1.008   -6.007871    9.003931   -1.965553
  94 H     1.0000    0     1.008   -5.950534   10.442049   -4.969465
  95 H     1.0000    0     1.008   -1.709091   12.379585   -3.942564
  96 H     1.0000    0     1.008   -1.785574   10.925302   -0.946593
  97 H     1.0000    0     1.008   -5.733704   13.356581    0.126869
  98 H     1.0000    0     1.008   -5.618153   14.842692   -2.849292
  99 H     1.0000    0     1.008   -3.720123   17.648086    0.482607
 100 H     1.0000    0     1.008   -1.493551   15.261597    1.261080
 101 H     1.0000    0     1.008   -1.368703   16.755371   -1.740341
 102 H     1.0000    0     1.008    2.306870   -8.579208   -6.714756
 103 H     1.0000    0     1.008    6.848424   -9.153866    3.216168
 104 H     1.0000    0     1.008    7.100239   -6.067716    4.411162
 105 H     1.0000    0     1.008   10.880584   -8.641711    5.723235
 106 H     1.0000    0     1.008   11.567335   -9.358278    2.520245
 107 H     1.0000    0     1.008   11.894062   -6.216075    3.655794
 108 H     1.0000    0     1.008    9.447634    1.571189    4.645045
 109 H     1.0000    0     1.008   10.110041    5.612667    2.241778
 110 H     1.0000    0     1.008   12.831424    4.806283    4.044381
 111 H     1.0000    0     1.008   12.785266    4.282654    0.719197
 112 H     1.0000    0     1.008   12.033804   -2.234018    3.730356
 113 H     1.0000    0     1.008   13.836664   -0.525844    1.448293
 114 H     1.0000    0     1.008   14.041882    0.263257    4.695093

--------------------------------
INTERNAL COORDINATES (ANGSTROEM)
--------------------------------
 O      0   0   0     0.000000000000     0.00000000     0.00000000
 C      1   0   0     1.230029871271     0.00000000     0.00000000
 C      2   1   0     1.541603161779   119.99137397     0.00000000
 C      3   2   1     1.538735118664   111.74335026   289.42195392
 C      4   3   2     1.535384952335   103.30231548   267.06304010
 C      5   4   3     1.532732314722   103.17941689   321.14011409
 N      3   2   1     1.471812025854   114.44718412   172.75339226
 C      7   3   2     1.358472203247   119.66291791   286.79431110
 O      8   7   3     1.240566011465   120.62748995     3.40283182
 N      2   1   3     1.361886523837   124.03723532   182.61091169
 C     10   2   1     1.452625995012   122.50119517   346.47367869
 C     11  10   2     1.538537234713   105.68633266   239.34802713
 N     12  11  10     1.366483766213   117.15018149   144.39696728
 C     13  12  11     1.471375112168   121.24828154   178.70728712
 C     14  13  12     1.550384917240   109.55066731    55.89316594
 N     15  14  13     1.362639893846   114.27356909    49.51559367
 C     16  15  14     1.466184719843   121.39354105   197.78326016
 C     17  16  15     1.537005927493   113.73060238   288.58116317
 C     18  17  16     1.540564550652   114.49950643   156.39207010
 C     19  18  17     1.540099153686   116.20252996   300.72171778
 N     20  19  18     1.364129237273   118.06463245   340.12599468
 C     21  20  19     1.459348842137   121.54323015   183.72888745
 C     22  21  20     1.542952377158   114.24171133   287.08340305
 N     23  22  21     1.352261975132   114.82608264   345.43133197
 C     24  23  22     1.443695474244   124.46153070   175.23622952
 C     25  24  23     1.540382964073   111.49272611   291.72725286
 O     23  22  21     1.232215625038   121.16438642   167.60221560
 C     22  21  20     1.534663771721   109.82331026   164.51577762
 C     28  22  21     1.536511060396   115.11299468   298.74623701
 C     29  28  22     1.532442994901   109.44017998   174.48532056
 C     29  28  22     1.531831403603   112.12318848   298.42925462
 O     20  19  18     1.233212006082   119.68522021   161.17142424
 C     19  18  17     1.549084192406   115.08968404    67.20076032
 C     33  19  18     1.517525623502   117.31872898   295.97037948
 C     34  33  19     1.533640015240   115.58806048   229.68727492
 C     35  34  33     1.533806053939   109.09952007   179.34810383
 C     36  35  34     1.531180515787   115.98473705   198.15656907
 C     37  36  35     1.531488068600   111.37882709   161.26755417
 C     38  37  36     1.528423730114   114.84280548   186.18907558
 C     39  38  37     1.530163664919   112.86007300   174.38763881
 C     40  39  38     1.530101620776   114.13747968   180.79073498
 C     41  40  39     1.529711575801   112.99639902   178.70513927
 O     33  19  18     1.215545604477   120.47635119   115.62183574
 O     18  17  16     1.436946788594   110.96819411   277.42485433
 O     15  14  13     1.232398982596   122.05495253   226.19612833
 C     14  13  12     1.530134063330   113.87547136   289.91943778
 C     46  14  13     1.527313079717   112.76499125   291.45794956
 O     12  11  10     1.231679777580   120.88430995   326.31554410
 C     11  10   2     1.551734943435   111.30739171   117.12129056
 C     49  11  10     1.531245148740   109.89541886   301.74678314
 C     49  11  10     1.530629708732   111.97662037   178.04244293
 H      3   2   1     1.098062413845   105.36844249    51.96352160
 H      4   3   2     1.099402360317   109.27912119   149.66567079
 H      4   3   2     1.095849107889   111.44224667    29.97490854
 H      5   4   3     1.100008226056   110.31534538    78.60601037
 H      5   4   3     1.096917244152   113.19515524   199.85837633
 H      6   5   4     1.098201408651   113.28338805   151.96220933
 H      6   5   4     1.102133380959   110.94094117   273.78339062
 H     10   2   1     1.019544901877   118.16684541   194.15604736
 H     11  10   2     1.102754390299   107.07131810   357.96457083
 H     13  12  11     1.014805429899   118.72491023     7.44151030
 H     14  13  12     1.103362561959   105.63438945   170.39887604
 H     16  15  14     1.016644115760   115.13251627   345.62504284
 H     17  16  15     1.095516334008   107.24038437   168.19509578
 H     17  16  15     1.095423086612   107.99952582    53.35706024
 H     18  17  16     1.102376528334   108.20208120    37.07677581
 H     19  18  17     1.101349307277   106.36958775   182.78008527
 H     21  20  19     1.025993606257   121.44281942     5.36573310
 H     22  21  20     1.099812133107   108.42616260    43.21528137
 H     24  23  22     1.016483390413   119.56451053     4.94716280
 H     25  24  23     1.101817488383   108.99460381    52.35543071
 H     26  25  24     1.096215793088   108.60130577    61.05175001
 H     26  25  24     1.098426544414   111.94675970   181.33387403
 H     26  25  24     1.096930926391   109.55031565   302.34990708
 H     28  22  21     1.100889439233   107.08586050   176.45886137
 H     28  22  21     1.102662292513   108.29420882    61.20711421
 H     29  28  22     1.103532488276   108.23827007    57.67002830
 H     30  29  28     1.099809096138   110.89085591   302.39074381
 H     30  29  28     1.101776765047   110.80440742    62.24470890
 H     30  29  28     1.099950898671   111.23339283   182.05345689
 H     31  29  28     1.099111180493   112.04776549    61.50998627
 H     31  29  28     1.099817018922   110.88031815   181.56010582
 H     31  29  28     1.101580769169   110.72197168   301.19929474
 H     34  33  19     1.105588723512   106.21261283   107.99453801
 H     34  33  19     1.096330075069   110.85947860   352.47590423
 H     35  34  33     1.101859860569   108.07238254    59.63438898
 H     35  34  33     1.099464637701   110.53980096   303.04766118
 H     36  35  34     1.103871431766   109.74900649    72.93624478
 H     36  35  34     1.102522602208   107.50179433   318.82901257
 H     37  36  35     1.103476952833   109.27767719    41.08461449
 H     37  36  35     1.102730083608   111.00136201   284.63760869
 H     38  37  36     1.104427692327   109.72382487    62.19670890
 H     38  37  36     1.105664236629   107.99011819   307.50661978
 H     39  38  37     1.104369881905   109.15905815    52.71551995
 H     39  38  37     1.103515928732   109.84165829   296.96079806
 H     40  39  38     1.104764957005   109.43449486    57.93286661
 H     40  39  38     1.106248356941   108.95950591   302.75806506
 H     41  40  39     1.103201301797   109.11861581    56.38608251
 H     41  40  39     1.102936744701   109.12524363   301.03414440
 H     42  41  40     1.099210408494   111.70838374   179.90526906
 H     42  41  40     1.101154647413   111.05958269   300.04219191
 H     42  41  40     1.100736839160   111.11642811    59.61508613
 H     44  18  17     0.973228068570   107.21856774    64.49282436
 H     46  14  13     1.098723223604   107.31782619   169.46313842
 H     46  14  13     1.098467886016   108.31026939    55.26793904
 H     47  46  14     1.098237220801   110.84190177   179.16011874
 H     47  46  14     1.101156960961   111.39267660   298.89612888
 H     47  46  14     1.099859843057   111.94431518    59.46052953
 H     49  11  10     1.104143769534   106.52110546    59.53544959
 H     50  49  11     1.097355651510   111.42232287    56.14363125
 H     50  49  11     1.099063510054   110.38553959   176.40201792
 H     50  49  11     1.100253586398   110.81731936   296.24577898
 H     51  49  11     1.097753280537   112.20672508   297.01886679
 H     51  49  11     1.102610465352   110.97757303    58.48386623
 H     51  49  11     1.098557326258   110.38741738   177.16771744

---------------------------
INTERNAL COORDINATES (A.U.)
---------------------------
 O      0   0   0     0.000000000000     0.00000000     0.00000000
 C      1   0   0     2.324419593244     0.00000000     0.00000000
 C      2   1   0     2.913207782950   119.99137397     0.00000000
 C      3   2   1     2.907787966921   111.74335026   289.42195392
 C      4   3   2     2.901457070057   103.30231548   267.06304010
 C      5   4   3     2.896444311435   103.17941689   321.14011409
 N      3   2   1     2.781321649476   114.44718412   172.75339226
 C      7   3   2     2.567140424682   119.66291791   286.79431110
 O      8   7   3     2.344330012719   120.62748995     3.40283182
 N      2   1   3     2.573592555529   124.03723532   182.61091169
 C     10   2   1     2.745065305587   122.50119517   346.47367869
 C     11  10   2     2.907414020448   105.68633266   239.34802713
 N     12  11  10     2.582280084592   117.15018149   144.39696728
 C     13  12  11     2.780496002265   121.24828154   178.70728712
 C     14  13  12     2.929802895746   109.55066731    55.89316594
 N     15  14  13     2.575016218524   114.27356909    49.51559367
 C     16  15  14     2.770687582243   121.39354105   197.78326016
 C     17  16  15     2.904520269175   113.73060238   288.58116317
 C     18  17  16     2.911245092360   114.49950643   156.39207010
 C     19  18  17     2.910365619550   116.20252996   300.72171778
 N     20  19  18     2.577830669722   118.06463245   340.12599468
 C     21  20  19     2.757769645493   121.54323015   183.72888745
 C     22  21  20     2.915757430512   114.24171133   287.08340305
 N     23  22  21     2.555404794314   114.82608264   345.43133197
 C     24  23  22     2.728189067104   124.46153070   175.23622952
 C     25  24  23     2.910901943456   111.49272611   291.72725286
 O     23  22  21     2.328550069260   121.16438642   167.60221560
 C     22  21  20     2.900094236204   109.82331026   164.51577762
 C     28  22  21     2.903585105889   115.11299468   298.74623701
 C     29  28  22     2.895897576208   109.44017998   174.48532056
 C     29  28  22     2.894741836151   112.12318848   298.42925462
 O     20  19  18     2.330432956559   119.68522021   161.17142424
 C     19  18  17     2.927344882034   115.08968404    67.20076032
 C     33  19  18     2.867707829626   117.31872898   295.97037948
 C     34  33  19     2.898159616827   115.58806048   229.68727492
 C     35  34  33     2.898473384496   109.09952007   179.34810383
 C     36  35  34     2.893511836435   115.98473705   198.15656907
 C     37  36  35     2.894093027023   111.37882709   161.26755417
 C     38  37  36     2.888302266501   114.84280548   186.18907558
 C     39  38  37     2.891590266774   112.86007300   174.38763881
 C     40  39  38     2.891473020336   114.13747968   180.79073498
 C     41  40  39     2.890735942154   112.99639902   178.70513927
 O     33  19  18     2.297048295752   120.47635119   115.62183574
 O     18  17  16     2.715435899460   110.96819411   277.42485433
 O     15  14  13     2.328896564830   122.05495253   226.19612833
 C     14  13  12     2.891534327878   113.87547136   289.91943778
 C     46  14  13     2.886203441421   112.76499125   291.45794956
 O     12  11  10     2.327537464315   120.88430995   326.31554410
 C     11  10   2     2.932354075528   111.30739171   117.12129056
 C     49  11  10     2.893633975015   109.89541886   301.74678314
 C     49  11  10     2.892470961947   111.97662037   178.04244293
 H      3   2   1     2.075037240119   105.36844249    51.96352160
 H      4   3   2     2.077569371985   109.27912119   149.66567079
 H      4   3   2     2.070854698012   111.44224667    29.97490854
 H      5   4   3     2.078714292306   110.31534538    78.60601037
 H      5   4   3     2.072873183022   113.19515524   199.85837633
 H      6   5   4     2.075299902236   113.28338805   151.96220933
[...]
freq.      86.61  E(vib)   ...       0.48 
freq.      90.41  E(vib)   ...       0.47 
freq.      95.59  E(vib)   ...       0.47 
freq.      99.46  E(vib)   ...       0.46 
freq.     106.00  E(vib)   ...       0.45 
freq.     109.88  E(vib)   ...       0.45 
freq.     114.89  E(vib)   ...       0.44 
freq.     118.11  E(vib)   ...       0.44 
freq.     122.61  E(vib)   ...       0.43 
freq.     123.16  E(vib)   ...       0.43 
freq.     128.27  E(vib)   ...       0.43 
freq.     134.92  E(vib)   ...       0.42 
freq.     136.03  E(vib)   ...       0.42 
freq.     138.78  E(vib)   ...       0.42 
freq.     142.04  E(vib)   ...       0.41 
freq.     149.95  E(vib)   ...       0.40 
freq.     152.79  E(vib)   ...       0.40 
freq.     156.49  E(vib)   ...       0.40 
freq.     163.75  E(vib)   ...       0.39 
freq.     164.58  E(vib)   ...       0.39 
freq.     171.12  E(vib)   ...       0.38 
freq.     185.69  E(vib)   ...       0.37 
freq.     193.27  E(vib)   ...       0.36 
freq.     206.91  E(vib)   ...       0.35 
freq.     208.07  E(vib)   ...       0.34 
freq.     212.79  E(vib)   ...       0.34 
freq.     216.30  E(vib)   ...       0.34 
freq.     221.83  E(vib)   ...       0.33 
freq.     223.49  E(vib)   ...       0.33 
freq.     227.81  E(vib)   ...       0.33 
freq.     233.69  E(vib)   ...       0.32 
freq.     234.58  E(vib)   ...       0.32 
freq.     236.65  E(vib)   ...       0.32 
freq.     242.90  E(vib)   ...       0.31 
freq.     245.72  E(vib)   ...       0.31 
freq.     258.17  E(vib)   ...       0.30 
freq.     258.89  E(vib)   ...       0.30 
freq.     270.11  E(vib)   ...       0.29 
freq.     281.01  E(vib)   ...       0.28 
freq.     283.92  E(vib)   ...       0.28 
freq.     290.27  E(vib)   ...       0.27 
freq.     297.73  E(vib)   ...       0.27 
freq.     304.14  E(vib)   ...       0.26 
freq.     310.28  E(vib)   ...       0.26 
freq.     312.07  E(vib)   ...       0.25 
freq.     326.35  E(vib)   ...       0.24 
freq.     333.97  E(vib)   ...       0.24 
freq.     343.34  E(vib)   ...       0.23 
freq.     353.87  E(vib)   ...       0.22 
freq.     373.50  E(vib)   ...       0.21 
freq.     378.87  E(vib)   ...       0.21 
freq.     380.88  E(vib)   ...       0.21 
freq.     388.68  E(vib)   ...       0.20 
freq.     399.40  E(vib)   ...       0.19 
freq.     405.16  E(vib)   ...       0.19 
freq.     408.02  E(vib)   ...       0.19 
freq.     435.34  E(vib)   ...       0.17 
freq.     439.76  E(vib)   ...       0.17 
freq.     443.02  E(vib)   ...       0.17 
freq.     446.99  E(vib)   ...       0.17 
freq.     457.36  E(vib)   ...       0.16 
freq.     466.21  E(vib)   ...       0.16 
freq.     468.21  E(vib)   ...       0.16 
freq.     477.17  E(vib)   ...       0.15 
freq.     488.01  E(vib)   ...       0.15 
freq.     494.59  E(vib)   ...       0.14 
freq.     503.90  E(vib)   ...       0.14 
freq.     521.05  E(vib)   ...       0.13 
freq.     536.31  E(vib)   ...       0.12 
freq.     551.94  E(vib)   ...       0.12 
freq.     562.15  E(vib)   ...       0.11 
freq.     568.69  E(vib)   ...       0.11 
freq.     574.54  E(vib)   ...       0.11 
freq.     610.91  E(vib)   ...       0.10 
freq.     614.30  E(vib)   ...       0.10 
freq.     620.97  E(vib)   ...       0.09 
freq.     645.82  E(vib)   ...       0.09 
freq.     660.43  E(vib)   ...       0.08 
freq.     680.33  E(vib)   ...       0.08 
freq.     695.23  E(vib)   ...       0.07 
freq.     700.02  E(vib)   ...       0.07 
freq.     706.84  E(vib)   ...       0.07 
freq.     711.62  E(vib)   ...       0.07 
freq.     716.74  E(vib)   ...       0.07 
freq.     722.97  E(vib)   ...       0.07 
freq.     726.33  E(vib)   ...       0.06 
freq.     730.26  E(vib)   ...       0.06 
freq.     740.25  E(vib)   ...       0.06 
freq.     745.36  E(vib)   ...       0.06 
freq.     750.22  E(vib)   ...       0.06 
freq.     755.41  E(vib)   ...       0.06 
freq.     768.69  E(vib)   ...       0.06 
freq.     800.51  E(vib)   ...       0.05 
freq.     807.33  E(vib)   ...       0.05 
freq.     813.92  E(vib)   ...       0.05 
freq.     821.33  E(vib)   ...       0.05 
freq.     826.98  E(vib)   ...       0.04 
freq.     832.94  E(vib)   ...       0.04 
freq.     842.25  E(vib)   ...       0.04 
freq.     844.85  E(vib)   ...       0.04 
freq.     859.08  E(vib)   ...       0.04 
freq.     860.77  E(vib)   ...       0.04 
freq.     869.03  E(vib)   ...       0.04 
freq.     870.77  E(vib)   ...       0.04 
freq.     878.08  E(vib)   ...       0.04 
freq.     881.64  E(vib)   ...       0.04 
freq.     899.01  E(vib)   ...       0.03 
freq.     900.12  E(vib)   ...       0.03 
freq.     903.45  E(vib)   ...       0.03 
freq.     907.39  E(vib)   ...       0.03 
freq.     912.07  E(vib)   ...       0.03 
freq.     917.55  E(vib)   ...       0.03 
freq.     926.96  E(vib)   ...       0.03 
freq.     933.64  E(vib)   ...       0.03 
freq.     938.83  E(vib)   ...       0.03 
freq.     940.77  E(vib)   ...       0.03 
freq.     947.40  E(vib)   ...       0.03 
freq.     949.15  E(vib)   ...       0.03 
freq.     962.19  E(vib)   ...       0.03 
freq.     965.67  E(vib)   ...       0.03 
freq.     968.94  E(vib)   ...       0.03 
freq.     974.88  E(vib)   ...       0.03 
freq.     976.80  E(vib)   ...       0.03 
freq.     978.04  E(vib)   ...       0.03 
freq.     991.50  E(vib)   ...       0.02 
freq.    1000.66  E(vib)   ...       0.02 
freq.    1003.86  E(vib)   ...       0.02 
freq.    1010.31  E(vib)   ...       0.02 
freq.    1027.75  E(vib)   ...       0.02 
freq.    1031.44  E(vib)   ...       0.02 
freq.    1035.21  E(vib)   ...       0.02 
freq.    1041.11  E(vib)   ...       0.02 
freq.    1043.16  E(vib)   ...       0.02 
freq.    1044.08  E(vib)   ...       0.02 
freq.    1051.26  E(vib)   ...       0.02 
freq.    1052.17  E(vib)   ...       0.02 
freq.    1054.84  E(vib)   ...       0.02 
freq.    1064.18  E(vib)   ...       0.02 
freq.    1072.01  E(vib)   ...       0.02 
freq.    1076.17  E(vib)   ...       0.02 
freq.    1077.83  E(vib)   ...       0.02 
freq.    1082.83  E(vib)   ...       0.02 
freq.    1092.15  E(vib)   ...       0.02 
freq.    1094.02  E(vib)   ...       0.02 
freq.    1107.20  E(vib)   ...       0.02 
freq.    1109.18  E(vib)   ...       0.02 
freq.    1113.74  E(vib)   ...       0.01 
freq.    1117.74  E(vib)   ...       0.01 
freq.    1123.92  E(vib)   ...       0.01 
freq.    1129.01  E(vib)   ...       0.01 
freq.    1138.58  E(vib)   ...       0.01 
freq.    1142.96  E(vib)   ...       0.01 
freq.    1149.66  E(vib)   ...       0.01 
freq.    1150.16  E(vib)   ...       0.01 
freq.    1156.48  E(vib)   ...       0.01 
freq.    1159.52  E(vib)   ...       0.01 
freq.    1165.28  E(vib)   ...       0.01 
freq.    1169.55  E(vib)   ...       0.01 
freq.    1178.60  E(vib)   ...       0.01 
freq.    1186.79  E(vib)   ...       0.01 
freq.    1189.50  E(vib)   ...       0.01 
freq.    1198.24  E(vib)   ...       0.01 
freq.    1200.11  E(vib)   ...       0.01 
freq.    1200.68  E(vib)   ...       0.01 
freq.    1201.48  E(vib)   ...       0.01 
freq.    1205.05  E(vib)   ...       0.01 
freq.    1225.20  E(vib)   ...       0.01 
freq.    1229.46  E(vib)   ...       0.01 
freq.    1229.96  E(vib)   ...       0.01 
freq.    1237.68  E(vib)   ...       0.01 
freq.    1240.89  E(vib)   ...       0.01 
freq.    1243.34  E(vib)   ...       0.01 
freq.    1244.09  E(vib)   ...       0.01 
freq.    1249.42  E(vib)   ...       0.01 
freq.    1251.92  E(vib)   ...       0.01 
freq.    1257.31  E(vib)   ...       0.01 
freq.    1258.48  E(vib)   ...       0.01 
freq.    1260.27  E(vib)   ...       0.01 
freq.    1266.22  E(vib)   ...       0.01 
freq.    1274.65  E(vib)   ...       0.01 
freq.    1279.09  E(vib)   ...       0.01 
freq.    1282.24  E(vib)   ...       0.01 
freq.    1283.13  E(vib)   ...       0.01 
freq.    1286.11  E(vib)   ...       0.01 
freq.    1292.01  E(vib)   ...       0.01 
freq.    1293.56  E(vib)   ...       0.01 
freq.    1293.64  E(vib)   ...       0.01 
freq.    1299.23  E(vib)   ...       0.01 
freq.    1299.88  E(vib)   ...       0.01 
freq.    1300.85  E(vib)   ...       0.01 
freq.    1304.30  E(vib)   ...       0.01 
freq.    1306.19  E(vib)   ...       0.01 
freq.    1309.50  E(vib)   ...       0.01 
freq.    1313.27  E(vib)   ...       0.01 
freq.    1313.77  E(vib)   ...       0.01 
freq.    1314.32  E(vib)   ...       0.01 
freq.    1319.80  E(vib)   ...       0.01 
freq.    1321.37  E(vib)   ...       0.01 
freq.    1331.61  E(vib)   ...       0.01 
freq.    1333.25  E(vib)   ...       0.01 
freq.    1339.02  E(vib)   ...       0.01 
freq.    1343.59  E(vib)   ...       0.01 
freq.    1343.88  E(vib)   ...       0.01 
freq.    1345.26  E(vib)   ...       0.01 
freq.    1348.79  E(vib)   ...       0.01 
freq.    1349.27  E(vib)   ...       0.01 
freq.    1350.25  E(vib)   ...       0.01 
freq.    1357.80  E(vib)   ...       0.01 
freq.    1360.00  E(vib)   ...       0.01 
freq.    1363.44  E(vib)   ...       0.01 
freq.    1365.38  E(vib)   ...       0.01 
freq.    1370.66  E(vib)   ...       0.01 
freq.    1370.95  E(vib)   ...       0.01 
freq.    1380.37  E(vib)   ...       0.01 
freq.    1408.09  E(vib)   ...       0.00 
freq.    1410.36  E(vib)   ...       0.00 
freq.    1424.86  E(vib)   ...       0.00 
freq.    1429.44  E(vib)   ...       0.00 
freq.    1430.72  E(vib)   ...       0.00 
freq.    1432.22  E(vib)   ...       0.00 
freq.    1435.71  E(vib)   ...       0.00 
freq.    1436.02  E(vib)   ...       0.00 
freq.    1438.66  E(vib)   ...       0.00 
freq.    1440.63  E(vib)   ...       0.00 
freq.    1440.93  E(vib)   ...       0.00 
freq.    1441.72  E(vib)   ...       0.00 
freq.    1442.64  E(vib)   ...       0.00 
freq.    1443.76  E(vib)   ...       0.00 
freq.    1445.65  E(vib)   ...       0.00 
freq.    1448.69  E(vib)   ...       0.00 
freq.    1450.55  E(vib)   ...       0.00 
freq.    1451.37  E(vib)   ...       0.00 
freq.    1452.09  E(vib)   ...       0.00 
freq.    1453.05  E(vib)   ...       0.00 
freq.    1454.85  E(vib)   ...       0.00 
freq.    1455.52  E(vib)   ...       0.00 
freq.    1456.47  E(vib)   ...       0.00 
freq.    1456.85  E(vib)   ...       0.00 
freq.    1461.21  E(vib)   ...       0.00 
freq.    1462.21  E(vib)   ...       0.00 
freq.    1462.25  E(vib)   ...       0.00 
freq.    1465.11  E(vib)   ...       0.00 
freq.    1466.80  E(vib)   ...       0.00 
freq.    1469.22  E(vib)   ...       0.00 
freq.    1474.64  E(vib)   ...       0.00 
freq.    1477.16  E(vib)   ...       0.00 
freq.    1489.08  E(vib)   ...       0.00 
freq.    1511.64  E(vib)   ...       0.00 
freq.    1628.95  E(vib)   ...       0.00 
freq.    1653.18  E(vib)   ...       0.00 
freq.    1665.52  E(vib)   ...       0.00 
freq.    1681.25  E(vib)   ...       0.00 
freq.    1683.95  E(vib)   ...       0.00 
freq.    1690.12  E(vib)   ...       0.00 
freq.    1731.11  E(vib)   ...       0.00 
freq.    2913.31  E(vib)   ...       0.00 
freq.    2920.96  E(vib)   ...       0.00 
freq.    2933.83  E(vib)   ...       0.00 
freq.    2936.44  E(vib)   ...       0.00 
freq.    2937.93  E(vib)   ...       0.00 
freq.    2940.63  E(vib)   ...       0.00 
freq.    2940.82  E(vib)   ...       0.00 
freq.    2943.51  E(vib)   ...       0.00 
freq.    2945.37  E(vib)   ...       0.00 
freq.    2947.19  E(vib)   ...       0.00 
freq.    2949.53  E(vib)   ...       0.00 
freq.    2950.89  E(vib)   ...       0.00 
freq.    2952.58  E(vib)   ...       0.00 
freq.    2954.97  E(vib)   ...       0.00 
freq.    2955.61  E(vib)   ...       0.00 
freq.    2955.71  E(vib)   ...       0.00 
freq.    2956.29  E(vib)   ...       0.00 
freq.    2958.69  E(vib)   ...       0.00 
freq.    2959.64  E(vib)   ...       0.00 
freq.    2960.61  E(vib)   ...       0.00 
freq.    2966.15  E(vib)   ...       0.00 
freq.    2968.23  E(vib)   ...       0.00 
freq.    2969.21  E(vib)   ...       0.00 
freq.    2970.06  E(vib)   ...       0.00 
freq.    2973.18  E(vib)   ...       0.00 
freq.    2973.96  E(vib)   ...       0.00 
freq.    2982.48  E(vib)   ...       0.00 
freq.    2982.82  E(vib)   ...       0.00 
freq.    2983.20  E(vib)   ...       0.00 
freq.    2988.98  E(vib)   ...       0.00 
freq.    2991.51  E(vib)   ...       0.00 
freq.    2994.58  E(vib)   ...       0.00 
freq.    2996.77  E(vib)   ...       0.00 
freq.    2999.29  E(vib)   ...       0.00 
freq.    3010.94  E(vib)   ...       0.00 
freq.    3014.46  E(vib)   ...       0.00 
freq.    3015.58  E(vib)   ...       0.00 
freq.    3015.69  E(vib)   ...       0.00 
freq.    3017.16  E(vib)   ...       0.00 
freq.    3017.99  E(vib)   ...       0.00 
freq.    3019.87  E(vib)   ...       0.00 
freq.    3022.67  E(vib)   ...       0.00 
freq.    3023.02  E(vib)   ...       0.00 
freq.    3024.55  E(vib)   ...       0.00 
freq.    3027.58  E(vib)   ...       0.00 
freq.    3029.39  E(vib)   ...       0.00 
freq.    3031.32  E(vib)   ...       0.00 
freq.    3034.67  E(vib)   ...       0.00 
freq.    3040.58  E(vib)   ...       0.00 
freq.    3045.35  E(vib)   ...       0.00 
freq.    3045.43  E(vib)   ...       0.00 
freq.    3048.16  E(vib)   ...       0.00 
freq.    3048.95  E(vib)   ...       0.00 
freq.    3050.60  E(vib)   ...       0.00 
freq.    3058.13  E(vib)   ...       0.00 
freq.    3060.72  E(vib)   ...       0.00 
freq.    3071.08  E(vib)   ...       0.00 
freq.    3074.81  E(vib)   ...       0.00 
freq.    3324.71  E(vib)   ...       0.00 
freq.    3458.55  E(vib)   ...       0.00 
freq.    3488.61  E(vib)   ...       0.00 
freq.    3495.33  E(vib)   ...       0.00 
freq.    3522.03  E(vib)   ...       0.00 
freq.    3675.56  E(vib)   ...       0.00 

------------
INNER ENERGY
------------

The inner energy is: U= E(el) + E(ZPE) + E(vib) + E(rot) + E(trans)
    E(el)   - is the total energy from the electronic structure calculation
              = E(kin-el) + E(nuc-el) + E(el-el) + E(nuc-nuc)
    E(ZPE)  - the the zero temperature vibrational energy from the frequency calculation
    E(vib)  - the the finite temperature correction to E(ZPE) due to population
              of excited vibrational states
    E(rot)  - is the rotational thermal energy
    E(trans)- is the translational thermal energy

Summary of contributions to the inner energy U:
Electronic energy                ...  -2380.06981969 Eh
Zero point energy                ...      0.97638579 Eh     612.69 kcal/mol
Thermal vibrational correction   ...      0.05646184 Eh      35.43 kcal/mol
Thermal rotational correction    ...      0.00141627 Eh       0.89 kcal/mol
Thermal translational correction ...      0.00141627 Eh       0.89 kcal/mol
-----------------------------------------------------------------------
Total thermal energy                  -2379.03413951 Eh


Summary of corrections to the electronic energy:
(perhaps to be used in another calculation)
Total thermal correction                  0.05929438 Eh      37.21 kcal/mol
Non-thermal (ZPE) correction              0.97638579 Eh     612.69 kcal/mol
-----------------------------------------------------------------------
Total correction                          1.03568017 Eh     649.90 kcal/mol


--------
ENTHALPY
--------

The enthalpy is H = U + kB*T
                kB is Boltzmann's constant
Total free energy                 ...  -2379.03413951 Eh 
Thermal Enthalpy correction       ...      0.00094421 Eh       0.59 kcal/mol
-----------------------------------------------------------------------
Total Enthalpy                    ...  -2379.03319531 Eh


Note: Only C1 symmetry has been detected, increase convergence thresholds 
      if your molecule has a higher symmetry. Symmetry factor of 1.0 is   
      used for the rotational entropy correction. 
 

Note: Rotational entropy computed according to Herzberg 
Infrared and Raman Spectra, Chapter V,1, Van Nostrand Reinhold, 1945 
Point Group:  C1, Symmetry Number:   1  
Rotational constants in cm-1:     0.002130     0.001546     0.001170 

Vibrational entropy computed according to the QRRHO of S. Grimme
Chem.Eur.J. 2012 18 9955


-------
ENTROPY
-------

The entropy contributions are T*S = T*(S(el)+S(vib)+S(rot)+S(trans))
     S(el)   - electronic entropy
     S(vib)  - vibrational entropy
     S(rot)  - rotational entropy
     S(trans)- translational entropy
The entropies will be listed as mutliplied by the temperature to get
units of energy

Electronic entropy                ...      0.00000000 Eh      0.00 kcal/mol
Vibrational entropy               ...      0.10406477 Eh     65.30 kcal/mol
Rotational entropy                ...      0.01865733 Eh     11.71 kcal/mol
Translational entropy             ...      0.02166895 Eh     13.60 kcal/mol
-----------------------------------------------------------------------
Final entropy term                ...      0.14439105 Eh     90.61 kcal/mol

In case the symmetry of your molecule has not been determined correctly
or in case you have a reason to use a different symmetry number we print 
out the resulting rotational entropy values for sn=1,12 :
 --------------------------------------------------------
|  sn= 1 | S(rot)=       0.01865733 Eh     11.71 kcal/mol|
|  sn= 2 | S(rot)=       0.01800288 Eh     11.30 kcal/mol|
|  sn= 3 | S(rot)=       0.01762004 Eh     11.06 kcal/mol|
|  sn= 4 | S(rot)=       0.01734842 Eh     10.89 kcal/mol|
|  sn= 5 | S(rot)=       0.01713773 Eh     10.75 kcal/mol|
|  sn= 6 | S(rot)=       0.01696559 Eh     10.65 kcal/mol|
|  sn= 7 | S(rot)=       0.01682004 Eh     10.55 kcal/mol|
|  sn= 8 | S(rot)=       0.01669396 Eh     10.48 kcal/mol|
|  sn= 9 | S(rot)=       0.01658276 Eh     10.41 kcal/mol|
|  sn=10 | S(rot)=       0.01648328 Eh     10.34 kcal/mol|
|  sn=11 | S(rot)=       0.01639329 Eh     10.29 kcal/mol|
|  sn=12 | S(rot)=       0.01631113 Eh     10.24 kcal/mol|
 --------------------------------------------------------


-------------------
GIBBS FREE ENERGY
-------------------

The Gibbs free energy is G = H - T*S

Total enthalpy                    ...  -2379.03319531 Eh 
Total entropy correction          ...     -0.14439105 Eh    -90.61 kcal/mol
-----------------------------------------------------------------------
Final Gibbs free energy         ...  -2379.17758635 Eh

For completeness - the Gibbs free energy minus the electronic energy
G-E(el)                           ...      0.89223333 Eh    559.88 kcal/mol

--------------------------------------------------------------------------
WARNING: No preset parameters were found for the device that Open MPI
detected:

  Local host:            eu-g1-015-4
  Device name:           mlx5_0
  Device vendor ID:      0x02c9
  Device vendor part ID: 4123

Default device parameters will be used, which may result in lower
performance.  You can edit any of the files specified by the
btl_openib_device_param_files MCA parameter to set values for your
device.

NOTE: You can turn off this warning by setting the MCA parameter
      btl_openib_warn_no_device_params_found to 0.
--------------------------------------------------------------------------
--------------------------------------------------------------------------
WARNING: There was an error initializing an OpenFabrics device.

  Local host:   eu-g1-015-4
  Local device: mlx5_0
--------------------------------------------------------------------------

Timings for individual modules:

Sum of individual times         ...    25924.436 sec (= 432.074 min)
GTO integral calculation        ...       11.967 sec (=   0.199 min)   0.0 %
SCF iterations                  ...      365.594 sec (=   6.093 min)   1.4 %
SCF Gradient evaluation         ...       68.817 sec (=   1.147 min)   0.3 %
Geometry relaxation             ...        3.841 sec (=   0.064 min)   0.0 %
Analytical frequency calculation...    25474.217 sec (= 424.570 min)  98.3 %
                             ****ORCA TERMINATED NORMALLY****
TOTAL RUN TIME: 0 days 7 hours 12 minutes 21 seconds 543 msec
