
                                 *****************
                                 * O   R   C   A *
                                 *****************

           --- An Ab Initio, DFT and Semiempirical electronic structure package ---

                  #######################################################
                  #                        -***-                        #
                  #          Department of theory and spectroscopy      #
                  #               Directorship: Frank Neese             #
                  #        Max Planck Institute fuer Kohlenforschung    #
                  #                Kaiser Wilhelm Platz 1               #
                  #                 D-45470 Muelheim/Ruhr               #
                  #                      Germany                        #
                  #                                                     #
                  #                  All rights reserved                #
                  #                        -***-                        #
                  #######################################################


                         Program Version 4.2.0 -  RELEASE  -


 With contributions from (in alphabetic order):
   Daniel Aravena         : Magnetic Suceptibility
   Michael Atanasov       : Ab Initio Ligand Field Theory (pilot matlab implementation)
   Alexander A. Auer      : GIAO ZORA, VPT2
   Ute Becker             : Parallelization
   Giovanni Bistoni       : ED, misc. LED, open-shell LED, HFLED
   Martin Brehm           : Molecular dynamics
   Dmytro Bykov           : SCF Hessian
   Vijay G. Chilkuri      : MRCI spin determinant printing, contributions to CSF-ICE
   Dipayan Datta          : RHF DLPNO-CCSD density
   Achintya Kumar Dutta   : EOM-CC, STEOM-CC
   Dmitry Ganyushin       : Spin-Orbit,Spin-Spin,Magnetic field MRCI
   Miquel Garcia          : C-PCM Hessian, Gaussian charge scheme
   Yang Guo               : DLPNO-NEVPT2, CIM, IAO-localization
   Andreas Hansen         : Spin unrestricted coupled pair/coupled cluster methods
   Benjamin Helmich-Paris : CASSCF linear response (MC-RPA)
   Lee Huntington         : MR-EOM, pCC
   Robert Izsak           : Overlap fitted RIJCOSX, COSX-SCS-MP3, EOM
   Christian Kollmar      : KDIIS, OOCD, Brueckner-CCSD(T), CCSD density
   Simone Kossmann        : Meta GGA functionals, TD-DFT gradient, OOMP2, MP2 Hessian
   Martin Krupicka        : AUTO-CI
   Lucas Lang             : DCDCAS
   Dagmar Lenk            : GEPOL surface, SMD
   Dimitrios Liakos       : Extrapolation schemes; Compound Job, initial MDCI parallelization
   Dimitrios Manganas     : Further ROCIS development; embedding schemes
   Dimitrios Pantazis     : SARC Basis sets
   Taras Petrenko         : DFT Hessian,TD-DFT gradient, ASA, ECA, R-Raman, ABS, FL, XAS/XES, NRVS
   Peter Pinski           : DLPNO-MP2, DLPNO-MP2 Gradient
   Christoph Reimann      : Effective Core Potentials
   Marius Retegan         : Local ZFS, SOC
   Christoph Riplinger    : Optimizer, TS searches, QM/MM, DLPNO-CCSD(T), (RO)-DLPNO pert. Triples
   Tobias Risthaus        : Range-separated hybrids, TD-DFT gradient, RPA, STAB
   Michael Roemelt        : Original ROCIS implementation
   Masaaki Saitow         : Open-shell DLPNO-CCSD energy and density
   Barbara Sandhoefer     : DKH picture change effects
   Avijit Sen             : IP-ROCIS
   Kantharuban Sivalingam : CASSCF convergence, NEVPT2, FIC-MRCI
   Bernardo de Souza      : ESD, SOC TD-DFT
   Georgi Stoychev        : AutoAux, RI-MP2 NMR
   Willem Van den Heuvel  : Paramagnetic NMR
   Boris Wezisla          : Elementary symmetry handling
   Frank Wennmohs         : Technical directorship


 We gratefully acknowledge several colleagues who have allowed us to
 interface, adapt or use parts of their codes:
   Stefan Grimme, W. Hujo, H. Kruse,             : VdW corrections, initial TS optimization,
                  C. Bannwarth                     DFT functionals, gCP, sTDA/sTD-DF
   Ed Valeev, F. Pavosevic, A. Kumar             : LibInt (2-el integral package), F12 methods
   Garnet Chan, S. Sharma, J. Yang, R. Olivares  : DMRG
   Ulf Ekstrom                                   : XCFun DFT Library
   Mihaly Kallay                                 : mrcc  (arbitrary order and MRCC methods)
   Andreas Klamt, Michael Diedenhofen            : otool_cosmo (COSMO solvation model)
   Jiri Pittner, Ondrej Demel                    : Mk-CCSD
   Frank Weinhold                                : gennbo (NPA and NBO analysis)
   Christopher J. Cramer and Donald G. Truhlar   : smd solvation model
   Lars Goerigk                                  : TD-DFT with DH, B97 family of functionals
   V. Asgeirsson, H. Jonsson                     : NEB implementation
   FAccTs GmbH                                   : IRC, NEB, NEB-TS, Multilevel, MM, QM/MM, CI optimization
   S Lehtola, MJT Oliveira, MAL Marques          : LibXC Library


 Your calculation uses the libint2 library for the computation of 2-el integrals
 For citations please refer to: http://libint.valeyev.net

 Your ORCA version has been built with support for libXC version: 4.2.3
 For citations please refer to: https://tddft.org/programs/libxc/

 This ORCA versions uses:
   CBLAS   interface :  Fast vector & matrix operations
   LAPACKE interface :  Fast linear algebra routines
   SCALAPACK package :  Parallel linear algebra routines




***************************************
The coordinates will be read from file: 16.xyz
***************************************


Your calculation utilizes the atom-pairwise dispersion correction
with the Becke-Johnson damping scheme (D3BJ)
Cite in your paper:
S.Grimme, S.Ehrlich, L.Goerigk, J Comput Chem, (2011), 32, 1456–1465 
S.Grimme, J.Antony, S.Ehrlich and H.Krieg, J.Chem.Phys., 132, (2010), 154104 
   

----- Orbital basis set information -----
Your calculation utilizes the basis: def2-TZVP
   F. Weigend and R. Ahlrichs, Phys. Chem. Chem. Phys. 7, 3297 (2005).

----- AuxJ basis set information -----
Your calculation utilizes the auxiliary basis: def2/J
   F. Weigend, Phys. Chem. Chem. Phys. 8, 1057 (2006).

================================================================================
                                        WARNINGS
                       Please study these warnings very carefully!
================================================================================


WARNING: Geometry Optimization
  ===> : Switching off AutoStart
         For restart on a previous wavefunction, please use MOREAD

INFO   : the flag for use of LIBINT has been found!

================================================================================
                                       INPUT FILE
================================================================================
NAME = 16.inp
|  1> !RI BP86 def2-tzvp def2/J D3BJ TIGHTSCF TightOpt Grid5 FinalGrid6 freq
|  2> %maxcore 4000
|  3> %pal nprocs 24
|  4> end
|  5> * xyzfile 0 1 16.xyz 
|  6> 
|  7>                          ****END OF INPUT****
================================================================================

                       *****************************
                       * Geometry Optimization Run *
                       *****************************

Geometry optimization settings:
Update method            Update   .... BFGS
Choice of coordinates    CoordSys .... Z-matrix Internals
Initial Hessian          InHess   .... Almoef's Model

Convergence Tolerances:
Energy Change            TolE     ....  1.0000e-06 Eh
Max. Gradient            TolMAXG  ....  1.0000e-04 Eh/bohr
RMS Gradient             TolRMSG  ....  3.0000e-05 Eh/bohr
Max. Displacement        TolMAXD  ....  1.0000e-03 bohr
RMS Displacement         TolRMSD  ....  6.0000e-04 bohr
Strict Convergence                ....  False
------------------------------------------------------------------------------
                        ORCA OPTIMIZATION COORDINATE SETUP
------------------------------------------------------------------------------

The optimization will be done in new redundant internal coordinates
Making redundant internal coordinates   ...  (new redundants) done
Evaluating the initial hessian          ...  (Almloef) done
Evaluating the coordinates              ...  done
Calculating the B-matrix                .... done
Calculating the G-matrix                .... done
Diagonalizing the G-matrix              .... done
Small eigenvalue found = 4.178e-04
Small eigenvalue found = 6.192e-04
Small eigenvalue found = 1.482e-03
Small eigenvalue found = 1.848e-03
Small eigenvalue found = 3.668e-03
Small eigenvalue found = 4.215e-03
Small eigenvalue found = 5.476e-03
Small eigenvalue found = 6.807e-03
Small eigenvalue found = 7.919e-03
Small eigenvalue found = 8.536e-03
Small eigenvalue found = 1.206e-02
Small eigenvalue found = 1.386e-02
Small eigenvalue found = 1.572e-02
Small eigenvalue found = 1.879e-02
Small eigenvalue found = 2.157e-02
Small eigenvalue found = 2.229e-02
Small eigenvalue found = 2.401e-02
Small eigenvalue found = 2.532e-02
Small eigenvalue found = 2.994e-02
The first mode is                       ....  325
The number of degrees of freedom        ....  339

    -----------------------------------------------------------------
                    Redundant Internal Coordinates


    -----------------------------------------------------------------
         Definition                    Initial Value    Approx d2E/dq
    -----------------------------------------------------------------
      1. B(C   1,O   0)                  1.2294         1.009317   
      2. B(C   2,C   1)                  1.5560         0.339557   
      3. B(C   3,C   2)                  1.5298         0.373888   
      4. B(C   4,C   3)                  1.5344         0.367604   
      5. B(C   5,C   4)                  1.5303         0.373153   
      6. B(N   6,C   5)                  1.4814         0.399945   
      7. B(N   6,C   2)                  1.4836         0.396777   
      8. B(C   7,N   6)                  1.3513         0.645123   
      9. B(O   8,C   7)                  1.2487         0.940419   
     10. B(N   9,C   1)                  1.3584         0.628432   
     11. B(C  10,N   9)                  1.4681         0.420098   
     12. B(C  11,C  10)                  1.5417         0.357920   
     13. B(N  12,C  11)                  1.3640         0.615650   
     14. B(C  13,N  12)                  1.4475         0.453010   
     15. B(C  14,C  13)                  1.5290         0.374890   
     16. B(N  15,C  14)                  1.3422         0.667072   
     17. B(C  16,N  15)                  1.4613         0.430675   
     18. B(C  17,C  16)                  1.5418         0.357785   
     19. B(C  18,C  17)                  1.5498         0.347332   
     20. B(C  19,C  18)                  1.5563         0.339173   
     21. B(N  20,C  19)                  1.3637         0.616248   
     22. B(C  21,N  20)                  1.4635         0.427236   
     23. B(C  22,C  21)                  1.5428         0.356366   
     24. B(N  23,C  22)                  1.3624         0.619298   
     25. B(C  24,N  23)                  1.4571         0.437332   
     26. B(C  24,C   7)                  1.5330         0.369499   
     27. B(C  25,C  24)                  1.5296         0.374108   
     28. B(O  26,C  22)                  1.2306         1.005027   
     29. B(C  27,C  21)                  1.5404         0.359574   
     30. B(C  28,C  27)                  1.5354         0.366193   
     31. B(C  29,C  28)                  1.5319         0.370959   
     32. B(C  30,C  28)                  1.5323         0.370444   
     33. B(O  31,C  19)                  1.2296         1.008692   
     34. B(C  32,C  18)                  1.5339         0.368226   
     35. B(C  33,C  32)                  1.5047         0.409899   
     36. B(C  34,C  33)                  1.5373         0.363681   
     37. B(C  35,C  34)                  1.5352         0.366468   
     38. B(C  36,C  35)                  1.5351         0.366591   
     39. B(C  37,C  36)                  1.5307         0.372628   
     40. B(C  38,C  37)                  1.5303         0.373211   
     41. B(C  39,C  38)                  1.5301         0.373493   
     42. B(C  40,C  39)                  1.5310         0.372252   
     43. B(C  41,C  40)                  1.5298         0.373811   
     44. B(O  42,C  32)                  1.2310         1.003436   
     45. B(O  43,C  17)                  1.4238         0.494300   
     46. B(O  44,C  14)                  1.2510         0.932491   
     47. B(C  45,C  13)                  1.5482         0.349466   
     48. B(C  46,C  45)                  1.5284         0.375761   
     49. B(O  47,C  11)                  1.2278         1.015445   
     50. B(C  48,C  10)                  1.5472         0.350742   
     51. B(C  49,C  48)                  1.5322         0.370632   
     52. B(C  50,C  48)                  1.5301         0.373389   
     53. B(H  51,C   2)                  1.1017         0.344936   
     54. B(H  52,C   3)                  1.0998         0.347371   
     55. B(H  53,C   3)                  1.0954         0.353008   
     56. B(H  54,C   4)                  1.1002         0.346864   
     57. B(H  55,C   4)                  1.0968         0.351202   
     58. B(H  56,C   5)                  1.0976         0.350163   
     59. B(H  57,C   5)                  1.1020         0.344510   
     60. B(H  58,N   9)                  1.0319         0.399286   
     61. B(H  59,C  10)                  1.1000         0.347170   
     62. B(H  60,N  12)                  1.0203         0.416681   
     63. B(H  61,C  13)                  1.1029         0.343488   
     64. B(H  62,N  15)                  1.0143         0.425930   
     65. B(H  63,C  16)                  1.0951         0.353430   
     66. B(H  64,C  16)                  1.0987         0.348725   
     67. B(H  65,C  17)                  1.0991         0.348247   
     68. B(H  66,C  18)                  1.1058         0.339845   
     69. B(H  67,N  20)                  1.0198         0.417398   
     70. B(H  68,C  21)                  1.0970         0.350922   
     71. B(H  69,O  44)                  1.9156         0.015539   
     72. B(H  69,N  23)                  1.0255         0.408688   
     73. B(H  70,C  24)                  1.0967         0.351298   
     74. B(H  71,C  25)                  1.0976         0.350169   
     75. B(H  72,C  25)                  1.0992         0.348079   
     76. B(H  73,C  25)                  1.0976         0.350131   
     77. B(H  74,C  27)                  1.1024         0.344103   
     78. B(H  75,C  27)                  1.1034         0.342774   
     79. B(H  76,H  54)                  3.7436         0.000004   
     80. B(H  76,C  28)                  1.1045         0.341463   
     81. B(H  77,C  29)                  1.0979         0.349848   
     82. B(H  78,C  29)                  1.1021         0.344498   
     83. B(H  79,C  29)                  1.0996         0.347599   
     84. B(H  80,C  30)                  1.1000         0.347053   
     85. B(H  81,C  30)                  1.0992         0.348105   
     86. B(H  82,C  30)                  1.1016         0.345106   
     87. B(H  83,C  33)                  1.0983         0.349269   
     88. B(H  84,C  33)                  1.1034         0.342795   
     89. B(H  85,C  34)                  1.0999         0.347192   
     90. B(H  86,C  34)                  1.1025         0.343999   
     91. B(H  87,C  35)                  1.1024         0.344064   
     92. B(H  88,C  35)                  1.1029         0.343401   
     93. B(H  89,C  36)                  1.1031         0.343219   
     94. B(H  90,C  36)                  1.1028         0.343618   
     95. B(H  91,C  37)                  1.1048         0.341047   
     96. B(H  92,C  37)                  1.1034         0.342795   
     97. B(H  93,C  38)                  1.1044         0.341593   
     98. B(H  94,C  38)                  1.1043         0.341708   
     99. B(H  95,C  39)                  1.1046         0.341307   
    100. B(H  96,C  39)                  1.1046         0.341353   
    101. B(H  97,C  40)                  1.1034         0.342842   
    102. B(H  98,C  40)                  1.1034         0.342812   
    103. B(H  99,C  41)                  1.0994         0.347871   
    104. B(H 100,C  41)                  1.1007         0.346190   
    105. B(H 101,C  41)                  1.1007         0.346161   
    106. B(H 102,O  43)                  0.9820         0.479503   
    107. B(H 103,C  45)                  1.1014         0.345336   
    108. B(H 104,C  45)                  1.0995         0.347753   
    109. B(H 105,C  46)                  1.0983         0.349240   
    110. B(H 106,H  67)                  4.8898         0.000000   
    111. B(H 106,C  46)                  1.0994         0.347922   
    112. B(H 107,C  46)                  1.1018         0.344800   
    113. B(H 108,H  80)                  2.4612         0.000447   
    114. B(H 108,C  48)                  1.1062         0.339326   
    115. B(H 109,C  49)                  1.0992         0.348086   
    116. B(H 110,C  49)                  1.1006         0.346354   
    117. B(H 111,C  49)                  1.0989         0.348522   
    118. B(H 112,C  50)                  1.0972         0.350715   
    119. B(H 113,C  50)                  1.0998         0.347312   
    120. B(H 114,C  50)                  1.0987         0.348725   
    121. A(O   0,C   1,N   9)          124.9868         0.469149   
    122. A(C   2,C   1,N   9)          113.7970         0.388543   
    123. A(O   0,C   1,C   2)          121.1669         0.422451   
    124. A(C   1,C   2,H  51)          105.8226         0.317057   
    125. A(N   6,C   2,H  51)          108.0270         0.323295   
    126. A(C   1,C   2,N   6)          115.8014         0.358934   
    127. A(C   1,C   2,C   3)          111.1220         0.357537   
    128. A(C   3,C   2,H  51)          113.3024         0.322083   
    129. A(C   3,C   2,N   6)          102.9641         0.364883   
    130. A(C   4,C   3,H  53)          113.6007         0.322409   
    131. A(C   4,C   3,H  52)          110.7067         0.321560   
    132. A(C   2,C   3,C   4)          102.6182         0.362405   
    133. A(C   2,C   3,H  53)          110.3353         0.323306   
    134. A(C   2,C   3,H  52)          110.1331         0.322454   
    135. A(H  52,C   3,H  53)          109.2844         0.288303   
    136. A(H  54,C   4,H  55)          108.0472         0.288006   
    137. A(C   3,C   4,H  55)          113.6095         0.322138   
    138. A(C   3,C   4,C   5)          103.1327         0.362283   
    139. A(C   3,C   4,H  54)          109.7114         0.321483   
    140. A(C   5,C   4,H  55)          112.0094         0.322930   
    141. A(C   5,C   4,H  54)          110.2758         0.322273   
    142. A(H  56,C   5,H  57)          107.9828         0.287566   
    143. A(C   4,C   5,N   6)          103.1294         0.365256   
    144. A(C   4,C   5,H  56)          113.9056         0.322773   
    145. A(N   6,C   5,H  57)          110.1187         0.323651   
    146. A(N   6,C   5,H  56)          110.8842         0.324517   
    147. A(C   4,C   5,H  57)          110.7728         0.321914   
    148. A(C   5,N   6,C   7)          125.4379         0.399125   
    149. A(C   2,N   6,C   7)          122.6293         0.398568   
    150. A(C   2,N   6,C   5)          111.5321         0.366817   
    151. A(O   8,C   7,C  24)          119.6585         0.423495   
    152. A(N   6,C   7,O   8)          122.3064         0.465341   
    153. A(N   6,C   7,C  24)          118.0134         0.396144   
    154. A(C   1,N   9,C  10)          122.9914         0.400740   
    155. A(C  10,N   9,H  58)          117.2679         0.331476   
    156. A(C   1,N   9,H  58)          114.2836         0.354617   
    157. A(C  48,C  10,H  59)          109.0576         0.319072   
    158. A(C  11,C  10,H  59)          107.5135         0.320129   
    159. A(N   9,C  10,C  11)          105.3069         0.365725   
    160. A(N   9,C  10,C  48)          113.2951         0.364459   
    161. A(N   9,C  10,H  59)          108.6107         0.326690   
    162. A(C  11,C  10,C  48)          112.8076         0.356855   
    163. A(N  12,C  11,O  47)          123.6396         0.467904   
    164. A(C  10,C  11,O  47)          124.1335         0.426913   
    165. A(C  10,C  11,N  12)          112.1543         0.390728   
    166. A(C  13,N  12,H  60)          113.4064         0.338043   
    167. A(C  11,N  12,C  13)          124.5707         0.404636   
    168. A(C  11,N  12,H  60)          119.9309         0.355949   
    169. A(C  14,C  13,C  45)          111.8796         0.359455   
    170. A(N  12,C  13,H  61)          108.8020         0.330200   
    171. A(C  14,C  13,H  61)          110.4550         0.322002   
    172. A(N  12,C  13,C  14)          105.0367         0.373456   
    173. A(C  45,C  13,H  61)          108.9127         0.318328   
    174. A(N  12,C  13,C  45)          111.6819         0.368971   
    175. A(C  13,C  14,N  15)          118.7448         0.399495   
    176. A(N  15,C  14,O  44)          121.3735         0.467475   
    177. A(C  13,C  14,O  44)          119.8666         0.423951   
    178. A(C  14,N  15,H  62)          118.9336         0.362194   
    179. A(C  16,N  15,H  62)          119.6090         0.336436   
    180. A(C  14,N  15,C  16)          121.0234         0.406762   
    181. A(H  63,C  16,H  64)          107.6834         0.288532   
    182. A(C  17,C  16,H  64)          110.6470         0.320343   
    183. A(N  15,C  16,H  63)          108.6283         0.329000   
    184. A(C  17,C  16,H  63)          109.6818         0.321046   
    185. A(N  15,C  16,C  17)          111.5204         0.367263   
    186. A(N  15,C  16,H  64)          108.5767         0.328273   
    187. A(O  43,C  17,H  65)          104.1408         0.335777   
    188. A(C  18,C  17,H  65)          108.0280         0.318724   
    189. A(C  16,C  17,H  65)          107.7503         0.320271   
    190. A(C  16,C  17,C  18)          112.6156         0.356241   
    191. A(C  18,C  17,O  43)          112.3164         0.374158   
    192. A(C  16,C  17,O  43)          111.4679         0.376078   
    193. A(C  19,C  18,H  66)          104.9637         0.316232   
    194. A(C  17,C  18,H  66)          106.2657         0.317458   
    195. A(C  17,C  18,C  32)          112.0659         0.357986   
    196. A(C  17,C  18,C  19)          114.4771         0.353029   
    197. A(C  19,C  18,C  32)          112.9213         0.356543   
    198. A(C  32,C  18,H  66)          105.1848         0.320499   
    199. A(C  18,C  19,N  20)          114.7701         0.387142   
    200. A(N  20,C  19,O  31)          122.0677         0.467416   
    201. A(C  18,C  19,O  31)          123.1089         0.422319   
    202. A(C  19,N  20,H  67)          119.2082         0.356112   
    203. A(C  19,N  20,C  21)          121.2420         0.400548   
    204. A(C  21,N  20,H  67)          115.7638         0.334859   
    205. A(C  27,C  21,H  68)          111.3383         0.320934   
    206. A(C  22,C  21,H  68)          104.8923         0.320464   
    207. A(N  20,C  21,H  68)          108.2440         0.328179   
    208. A(N  20,C  21,C  22)          113.6343         0.366509   
    209. A(C  22,C  21,C  27)          110.6296         0.358102   
    210. A(N  20,C  21,C  27)          108.0973         0.367072   
    211. A(C  21,C  22,N  23)          114.5161         0.390835   
    212. A(C  21,C  22,O  26)          121.4948         0.425793   
    213. A(N  23,C  22,O  26)          123.9320         0.467527   
    214. A(C  22,N  23,C  24)          122.1103         0.402549   
    215. A(C  24,N  23,H  69)          118.4897         0.334985   
    216. A(C  22,N  23,H  69)          119.2341         0.355137   
    217. A(C  25,C  24,H  70)          109.8827         0.323080   
    218. A(N  23,C  24,H  70)          105.3567         0.329505   
    219. A(C   7,C  24,H  70)          111.6961         0.322424   
    220. A(N  23,C  24,C  25)          111.7834         0.371064   
    221. A(C   7,C  24,N  23)          107.6897         0.370274   
    222. A(C   7,C  24,C  25)          110.3336         0.362760   
    223. A(H  71,C  25,H  73)          109.7543         0.288295   
    224. A(C  24,C  25,H  73)          110.3325         0.322904   
    225. A(H  71,C  25,H  72)          108.7490         0.288030   
    226. A(C  24,C  25,H  72)          110.6859         0.322593   
    227. A(C  24,C  25,H  71)          109.3925         0.322910   
    228. A(H  72,C  25,H  73)          107.8954         0.288026   
    229. A(C  28,C  27,H  75)          109.3608         0.320658   
    230. A(C  21,C  27,C  28)          115.7465         0.359764   
    231. A(H  74,C  27,H  75)          106.7688         0.286557   
    232. A(C  21,C  27,H  75)          107.9393         0.319704   
    233. A(C  28,C  27,H  74)          108.6064         0.320861   
    234. A(C  21,C  27,H  74)          108.0568         0.319906   
    235. A(C  29,C  28,C  30)          111.4900         0.362394   
    236. A(C  27,C  28,C  30)          109.4670         0.361595   
    237. A(C  27,C  28,C  29)          112.2881         0.361681   
    238. A(C  30,C  28,H  76)          107.7065         0.321063   
    239. A(C  29,C  28,H  76)          107.9280         0.321136   
    240. A(C  27,C  28,H  76)          107.7748         0.320457   
    241. A(C  28,C  29,H  79)          110.7014         0.322074   
    242. A(H  78,C  29,H  79)          107.6232         0.287234   
    243. A(H  77,C  29,H  79)          107.6788         0.287927   
    244. A(H  77,C  29,H  78)          108.6785         0.287524   
    245. A(C  28,C  29,H  78)          110.6186         0.321601   
    246. A(C  28,C  29,H  77)          111.4075         0.322414   
    247. A(H  81,C  30,H  82)          107.6774         0.287379   
    248. A(H  80,C  30,H  82)          107.8401         0.287243   
    249. A(C  28,C  30,H  82)          110.8937         0.321621   
    250. A(H  80,C  30,H  81)          107.7795         0.287632   
    251. A(C  28,C  30,H  81)          111.0919         0.322077   
    252. A(C  28,C  30,H  80)          111.3951         0.321917   
    253. A(C  33,C  32,O  42)          120.8937         0.436508   
    254. A(C  18,C  32,O  42)          119.6957         0.428176   
    255. A(C  18,C  32,C  33)          119.3554         0.368261   
    256. A(C  32,C  33,C  34)          115.1516         0.367477   
    257. A(C  34,C  33,H  84)          108.2266         0.320301   
    258. A(H  83,C  33,H  84)          108.7008         0.287227   
    259. A(C  32,C  33,H  84)          106.0842         0.326649   
    260. A(C  34,C  33,H  83)          111.8324         0.321282   
    261. A(C  32,C  33,H  83)          106.5514         0.327658   
    262. A(C  33,C  34,C  35)          112.7565         0.360507   
    263. A(H  85,C  34,H  86)          106.8964         0.287117   
    264. A(C  35,C  34,H  86)          109.8744         0.320885   
    265. A(C  33,C  34,H  86)          109.6664         0.320484   
    266. A(C  35,C  34,H  85)          108.1702         0.321370   
    267. A(C  33,C  34,H  85)          109.2940         0.320969   
    268. A(C  34,C  35,C  36)          115.3752         0.360997   
    269. A(H  87,C  35,H  88)          106.2982         0.286634   
    270. A(C  36,C  35,H  88)          108.8658         0.320811   
    271. A(C  34,C  35,H  88)          108.1457         0.320793   
    272. A(C  36,C  35,H  87)          109.1774         0.320912   
    273. A(C  34,C  35,H  87)          108.5982         0.320895   
    274. A(C  35,C  36,C  37)          114.3360         0.362025   
    275. A(H  89,C  36,H  90)          105.5138         0.286552   
    276. A(C  37,C  36,H  90)          109.0079         0.321703   
    277. A(C  35,C  36,H  90)          108.3664         0.320844   
    278. A(C  37,C  36,H  89)          109.2115         0.321642   
    279. A(C  35,C  36,H  89)          110.0257         0.320783   
    280. A(C  36,C  37,C  38)          113.2000         0.363134   
    281. A(H  91,C  37,H  92)          105.9212         0.286161   
    282. A(C  38,C  37,H  92)          108.7683         0.321659   
    283. A(C  36,C  37,H  92)          109.9620         0.321577   
    284. A(C  38,C  37,H  91)          109.4024         0.321390   
    285. A(C  36,C  37,H  91)          109.3273         0.321308   
    286. A(C  37,C  38,C  39)          113.4957         0.363277   
    287. A(H  93,C  38,H  94)          105.9105         0.286091   
    288. A(C  39,C  38,H  94)          109.3611         0.321532   
    289. A(C  37,C  38,H  94)          109.3045         0.321492   
    290. A(C  39,C  38,H  93)          109.2940         0.321514   
    291. A(C  37,C  38,H  93)          109.1959         0.321474   
    292. A(C  38,C  39,C  40)          113.5899         0.363118   
    293. A(H  95,C  39,H  96)          105.8800         0.286007   
    294. A(C  40,C  39,H  96)          109.2282         0.321302   
    295. A(C  38,C  39,H  96)          109.2996         0.321477   
    296. A(C  40,C  39,H  95)          109.2413         0.321295   
    297. A(C  38,C  39,H  95)          109.3141         0.321470   
    298. A(C  39,C  40,C  41)          113.1192         0.363171   
    299. A(H  97,C  40,H  98)          105.9476         0.286398   
    300. A(C  41,C  40,H  98)          109.6378         0.321746   
    301. A(C  39,C  40,H  98)          109.1286         0.321526   
    302. A(C  41,C  40,H  97)          109.6413         0.321751   
    303. A(C  39,C  40,H  97)          109.1129         0.321531   
    304. A(H 100,C  41,H 101)          107.4498         0.287268   
    305. A(H  99,C  41,H 101)          107.6860         0.287486   
    306. A(C  40,C  41,H 101)          111.0903         0.322259   
    307. A(H  99,C  41,H 100)          107.6860         0.287489   
    308. A(C  40,C  41,H 100)          111.0905         0.322263   
    309. A(C  40,C  41,H  99)          111.6464         0.322519   
    310. A(C  17,O  43,H 102)          104.3734         0.351212   
    311. A(C  13,C  45,C  46)          114.9464         0.359597   
    312. A(C  46,C  45,H 104)          110.1557         0.322776   
    313. A(C  13,C  45,H 104)          105.3783         0.318969   
    314. A(C  46,C  45,H 103)          110.7386         0.322408   
    315. A(C  13,C  45,H 103)          108.1874         0.318606   
    316. A(H 103,C  45,H 104)          107.0229         0.287363   
    317. A(H 106,C  46,H 107)          108.5748         0.287315   
    318. A(H 105,C  46,H 107)          107.0102         0.287485   
    319. A(C  45,C  46,H 107)          111.1481         0.322326   
    320. A(H 105,C  46,H 106)          107.0844         0.287891   
    321. A(C  45,C  46,H 106)          112.4815         0.322802   
    322. A(C  45,C  46,H 105)          110.3086         0.323002   
    323. A(C  50,C  48,H 108)          107.5177         0.321149   
    324. A(C  49,C  48,H 108)          108.3830         0.320760   
    325. A(C  10,C  48,H 108)          107.6821         0.317885   
    326. A(C  49,C  48,C  50)          111.3494         0.362830   
    327. A(C  10,C  48,C  50)          111.8497         0.359433   
    328. A(C  10,C  48,C  49)          109.9002         0.358979   
    329. A(H 110,C  49,H 111)          107.8102         0.287595   
    330. A(H 109,C  49,H 111)          108.0104         0.287819   
    331. A(C  48,C  49,H 111)          110.5871         0.322167   
    332. A(H 109,C  49,H 110)          107.7722         0.287539   
    333. A(C  48,C  49,H 110)          110.5356         0.321838   
    334. A(C  48,C  49,H 109)          111.9738         0.322101   
    335. A(H 113,C  50,H 114)          108.5370         0.287745   
    336. A(H 112,C  50,H 114)          107.4454         0.288184   
    337. A(C  48,C  50,H 114)          110.9576         0.322589   
    338. A(H 112,C  50,H 113)          108.1028         0.288001   
    339. A(C  48,C  50,H 113)          110.0794         0.322375   
    340. A(C  48,C  50,H 112)          111.6021         0.322890   
    341. D(H  51,C   2,C   1,N   9)    -80.3605         0.008763   
    342. D(C   3,C   2,C   1,N   9)    156.2550         0.008763   
    343. D(N   6,C   2,C   1,N   9)     39.2615         0.008763   
    344. D(N   6,C   2,C   1,O   0)   -143.1690         0.008763   
    345. D(C   3,C   2,C   1,O   0)    -26.1755         0.008763   
    346. D(H  51,C   2,C   1,O   0)     97.2089         0.008763   
    347. D(C   4,C   3,C   2,N   6)     33.8400         0.011161   
    348. D(H  53,C   3,C   2,H  51)    -88.3759         0.011161   
    349. D(H  53,C   3,C   2,C   1)     30.6135         0.011161   
    350. D(C   4,C   3,C   2,H  51)    150.2580         0.011161   
    351. D(H  53,C   3,C   2,N   6)    155.2061         0.011161   
    352. D(H  52,C   3,C   2,H  51)     32.3544         0.011161   
    353. D(C   4,C   3,C   2,C   1)    -90.7526         0.011161   
    354. D(H  52,C   3,C   2,C   1)    151.3438         0.011161   
    355. D(H  52,C   3,C   2,N   6)    -84.0636         0.011161   
    356. D(H  55,C   4,C   3,H  53)     78.3177         0.010811   
    357. D(H  55,C   4,C   3,H  52)    -45.0796         0.010811   
    358. D(H  54,C   4,C   3,H  52)   -166.1267         0.010811   
    359. D(H  55,C   4,C   3,C   2)   -162.5764         0.010811   
    360. D(H  54,C   4,C   3,H  53)    -42.7294         0.010811   
    361. D(C   5,C   4,C   3,C   2)    -41.1130         0.010811   
    362. D(H  54,C   4,C   3,C   2)     76.3764         0.010811   
    363. D(C   5,C   4,C   3,H  53)   -160.2189         0.010811   
    364. D(C   5,C   4,C   3,H  52)     76.3838         0.010811   
    365. D(N   6,C   5,C   4,C   3)     31.8388         0.011120   
    366. D(H  57,C   5,C   4,C   3)    -85.9511         0.011120   
    367. D(H  56,C   5,C   4,H  55)    -85.3701         0.011120   
    368. D(H  56,C   5,C   4,C   3)    152.0896         0.011120   
    369. D(H  57,C   5,C   4,H  54)    156.9574         0.011120   
    370. D(H  56,C   5,C   4,H  54)     34.9982         0.011120   
    371. D(H  57,C   5,C   4,H  55)     36.5891         0.011120   
    372. D(N   6,C   5,C   4,H  54)    -85.2526         0.011120   
    373. D(N   6,C   5,C   4,H  55)    154.3791         0.011120   
    374. D(C   5,N   6,C   2,C   3)    -14.5171         0.013446   
    375. D(C   7,N   6,C   5,H  57)    -65.5073         0.013657   
    376. D(C   7,N   6,C   5,H  56)     53.9438         0.013657   
    377. D(C   7,N   6,C   5,C   4)    176.2445         0.013657   
    378. D(C   2,N   6,C   5,H  57)    107.3529         0.013657   
    379. D(C   2,N   6,C   5,H  56)   -133.1960         0.013657   
    380. D(C   7,N   6,C   2,H  51)     38.4573         0.013446   
    381. D(C   2,N   6,C   5,C   4)    -10.8953         0.013657   
    382. D(C   7,N   6,C   2,C   3)    158.5767         0.013446   
    383. D(C   5,N   6,C   2,C   1)    106.9507         0.013446   
    384. D(C   7,N   6,C   2,C   1)    -79.9554         0.013446   
    385. D(C   5,N   6,C   2,H  51)   -134.6366         0.013446   
    386. D(C  24,C   7,N   6,C   5)      3.1102         0.033920   
    387. D(C  24,C   7,N   6,C   2)   -168.9991         0.033920   
    388. D(O   8,C   7,N   6,C   5)   -175.1884         0.033920   
    389. D(O   8,C   7,N   6,C   2)     12.7023         0.033920   
    390. D(H  58,N   9,C   1,O   0)   -164.1870         0.032048   
    391. D(C  10,N   9,C   1,C   2)    166.4194         0.032048   
    392. D(H  58,N   9,C   1,C   2)     13.2745         0.032048   
    393. D(C  10,N   9,C   1,O   0)    -11.0421         0.032048   
    394. D(H  59,C  10,N   9,C   1)    -25.3991         0.015048   
    395. D(C  48,C  10,N   9,H  58)   -111.6565         0.015048   
    396. D(C  48,C  10,N   9,C   1)     95.9402         0.015048   
    397. D(C  11,C  10,N   9,C   1)   -140.3207         0.015048   
    398. D(H  59,C  10,N   9,H  58)    127.0042         0.015048   
    399. D(C  11,C  10,N   9,H  58)     12.0825         0.015048   
    400. D(O  47,C  11,C  10,N   9)    110.2655         0.009642   
    401. D(N  12,C  11,C  10,H  59)    177.5921         0.009642   
    402. D(N  12,C  11,C  10,C  48)     57.3185         0.009642   
    403. D(N  12,C  11,C  10,N   9)    -66.7293         0.009642   
    404. D(O  47,C  11,C  10,H  59)     -5.4132         0.009642   
    405. D(O  47,C  11,C  10,C  48)   -125.6867         0.009642   
    406. D(H  60,N  12,C  11,O  47)   -176.4502         0.030658   
    407. D(H  60,N  12,C  11,C  10)      0.5619         0.030658   
    408. D(C  13,N  12,C  11,O  47)    -14.0055         0.030658   
    409. D(C  13,N  12,C  11,C  10)    163.0067         0.030658   
    410. D(H  61,C  13,N  12,C  11)    -28.7177         0.017510   
    411. D(H  61,C  13,N  12,H  60)    134.7332         0.017510   
    412. D(C  45,C  13,N  12,H  60)   -105.0130         0.017510   
    413. D(C  45,C  13,N  12,C  11)     91.5361         0.017510   
    414. D(C  14,C  13,N  12,C  11)   -146.9938         0.017510   
    415. D(C  14,C  13,N  12,H  60)     16.4571         0.017510   
    416. D(O  44,C  14,C  13,C  45)     97.8763         0.010506   
    417. D(O  44,C  14,C  13,N  12)    -23.4643         0.010506   
    418. D(N  15,C  14,C  13,H  61)     40.7772         0.010506   
    419. D(N  15,C  14,C  13,C  45)    -80.7282         0.010506   
    420. D(O  44,C  14,C  13,H  61)   -140.6182         0.010506   
    421. D(N  15,C  14,C  13,N  12)    157.9311         0.010506   
    422. D(H  62,N  15,C  14,O  44)   -177.1984         0.036484   
    423. D(H  62,N  15,C  14,C  13)      1.3843         0.036484   
    424. D(C  16,N  15,C  14,O  44)     -4.7886         0.036484   
    425. D(C  16,N  15,C  14,C  13)    173.7941         0.036484   
    426. D(H  64,C  16,N  15,H  62)   -133.9859         0.015814   
    427. D(H  64,C  16,N  15,C  14)     53.6549         0.015814   
    428. D(H  63,C  16,N  15,H  62)    -17.1486         0.015814   
    429. D(H  63,C  16,N  15,C  14)    170.4922         0.015814   
    430. D(C  17,C  16,N  15,C  14)    -68.5123         0.015814   
    431. D(C  17,C  16,N  15,H  62)    103.8469         0.015814   
    432. D(H  65,C  17,C  16,H  64)    -81.6517         0.010279   
    433. D(H  65,C  17,C  16,H  63)    159.6936         0.010279   
    434. D(H  65,C  17,C  16,N  15)     39.3148         0.010279   
    435. D(O  43,C  17,C  16,H  64)    164.6745         0.010279   
    436. D(O  43,C  17,C  16,H  63)     46.0198         0.010279   
    437. D(O  43,C  17,C  16,N  15)    -74.3590         0.010279   
    438. D(C  18,C  17,C  16,H  64)     37.3850         0.010279   
    439. D(C  18,C  17,C  16,H  63)    -81.2697         0.010279   
    440. D(C  18,C  17,C  16,N  15)    158.3515         0.010279   
    441. D(H  66,C  18,C  17,H  65)    -54.1067         0.009732   
    442. D(H  66,C  18,C  17,O  43)     60.1804         0.009732   
    443. D(H  66,C  18,C  17,C  16)   -172.9814         0.009732   
    444. D(C  32,C  18,C  17,O  43)    -54.1938         0.009732   
    445. D(C  32,C  18,C  17,C  16)     72.6444         0.009732   
    446. D(C  32,C  18,C  17,H  65)   -168.4809         0.009732   
    447. D(C  19,C  18,C  17,H  65)     61.2569         0.009732   
    448. D(C  19,C  18,C  17,O  43)    175.5440         0.009732   
    449. D(C  19,C  18,C  17,C  16)    -57.6179         0.009732   
    450. D(O  31,C  19,C  18,H  66)   -102.7766         0.008746   
    451. D(O  31,C  19,C  18,C  32)     11.2642         0.008746   
    452. D(O  31,C  19,C  18,C  17)    141.1051         0.008746   
    453. D(N  20,C  19,C  18,H  66)     74.6150         0.008746   
    454. D(N  20,C  19,C  18,C  17)    -41.5033         0.008746   
    455. D(N  20,C  19,C  18,C  32)   -171.3442         0.008746   
    456. D(H  67,N  20,C  19,O  31)   -162.9688         0.030722   
    457. D(H  67,N  20,C  19,C  18)     19.6094         0.030722   
    458. D(C  21,N  20,C  19,O  31)     -5.8094         0.030722   
    459. D(C  21,N  20,C  19,C  18)    176.7688         0.030722   
    460. D(H  68,C  21,N  20,H  67)   -151.1632         0.015562   
    461. D(H  68,C  21,N  20,C  19)     50.9360         0.015562   
    462. D(C  27,C  21,N  20,H  67)    -30.4463         0.015562   
    463. D(C  27,C  21,N  20,C  19)    171.6530         0.015562   
    464. D(C  22,C  21,N  20,H  67)     92.7566         0.015562   
    465. D(C  22,C  21,N  20,C  19)    -65.1442         0.015562   
    466. D(N  23,C  22,C  21,C  27)     79.3654         0.009566   
    467. D(N  23,C  22,C  21,N  20)    -42.4406         0.009566   
    468. D(O  26,C  22,C  21,H  68)     22.1715         0.009566   
    469. D(O  26,C  22,C  21,C  27)    -97.9897         0.009566   
    470. D(O  26,C  22,C  21,N  20)    140.2043         0.009566   
    471. D(N  23,C  22,C  21,H  68)   -160.4735         0.009566   
    472. D(H  69,N  23,C  22,O  26)    172.3120         0.031051   
    473. D(H  69,N  23,C  22,C  21)     -4.9696         0.031051   
    474. D(C  24,N  23,C  22,O  26)     -2.9343         0.031051   
    475. D(C  24,N  23,C  22,C  21)    179.7840         0.031051   
    476. D(H  70,C  24,N  23,H  69)   -168.7294         0.016308   
    477. D(H  70,C  24,N  23,C  22)      6.5509         0.016308   
    478. D(C  25,C  24,N  23,H  69)     71.9588         0.016308   
    479. D(C  25,C  24,N  23,C  22)   -112.7609         0.016308   
    480. D(C   7,C  24,N  23,H  69)    -49.3895         0.016308   
    481. D(C   7,C  24,N  23,C  22)    125.8908         0.016308   
    482. D(H  70,C  24,C   7,O   8)   -167.4375         0.010226   
    483. D(H  70,C  24,C   7,N   6)     14.2173         0.010226   
    484. D(C  25,C  24,C   7,O   8)    -44.9040         0.010226   
    485. D(C  25,C  24,C   7,N   6)    136.7508         0.010226   
    486. D(N  23,C  24,C   7,O   8)     77.3446         0.010226   
    487. D(N  23,C  24,C   7,N   6)   -101.0006         0.010226   
    488. D(H  73,C  25,C  24,H  70)    178.4428         0.011174   
    489. D(H  73,C  25,C  24,N  23)    -64.9547         0.011174   
    490. D(H  73,C  25,C  24,C   7)     54.8517         0.011174   
    491. D(H  72,C  25,C  24,H  70)     59.0892         0.011174   
    492. D(H  72,C  25,C  24,N  23)    175.6918         0.011174   
    493. D(H  72,C  25,C  24,C   7)    -64.5019         0.011174   
    494. D(H  71,C  25,C  24,H  70)    -60.7225         0.011174   
    495. D(H  71,C  25,C  24,N  23)     55.8801         0.011174   
    496. D(H  71,C  25,C  24,C   7)    175.6864         0.011174   
    497. D(H  75,C  27,C  21,H  68)     54.3280         0.010375   
    498. D(H  75,C  27,C  21,C  22)    170.5525         0.010375   
    499. D(H  75,C  27,C  21,N  20)    -64.4398         0.010375   
    500. D(H  74,C  27,C  21,H  68)    169.4477         0.010375   
    501. D(H  74,C  27,C  21,C  22)    -74.3278         0.010375   
    502. D(H  74,C  27,C  21,N  20)     50.6799         0.010375   
    503. D(C  28,C  27,C  21,H  68)    -68.5598         0.010375   
    504. D(C  28,C  27,C  21,C  22)     47.6647         0.010375   
    505. D(C  28,C  27,C  21,N  20)    172.6724         0.010375   
    506. D(H  76,C  28,C  27,H  75)   -179.8836         0.010734   
    507. D(H  76,C  28,C  27,H  74)     63.9508         0.010734   
    508. D(H  76,C  28,C  27,C  21)    -57.7486         0.010734   
    509. D(C  30,C  28,C  27,H  75)     63.2399         0.010734   
    510. D(C  30,C  28,C  27,H  74)    -52.9257         0.010734   
    511. D(C  30,C  28,C  27,C  21)   -174.6251         0.010734   
    512. D(C  29,C  28,C  27,H  75)    -61.1489         0.010734   
    513. D(C  29,C  28,C  27,H  74)   -177.3145         0.010734   
    514. D(C  29,C  28,C  27,C  21)     60.9861         0.010734   
    515. D(H  79,C  29,C  28,C  30)     53.8145         0.010997   
    516. D(H  79,C  29,C  28,C  27)    177.0758         0.010997   
    517. D(H  78,C  29,C  28,H  76)    176.5122         0.010997   
    518. D(H  78,C  29,C  28,C  30)    -65.3936         0.010997   
    519. D(H  78,C  29,C  28,C  27)     57.8677         0.010997   
    520. D(H  77,C  29,C  28,H  76)     55.5123         0.010997   
    521. D(H  77,C  29,C  28,C  30)    173.6065         0.010997   
    522. D(H  79,C  29,C  28,H  76)    -64.2797         0.010997   
    523. D(H  77,C  29,C  28,C  27)    -63.1322         0.010997   
    524. D(H  82,C  30,C  28,H  76)   -179.8861         0.010968   
    525. D(H  82,C  30,C  28,C  29)     61.8867         0.010968   
    526. D(H  82,C  30,C  28,C  27)    -62.9666         0.010968   
    527. D(H  81,C  30,C  28,H  76)     60.4040         0.010968   
    528. D(H  81,C  30,C  28,C  29)    -57.8231         0.010968   
    529. D(H  81,C  30,C  28,C  27)    177.3236         0.010968   
    530. D(H  80,C  30,C  28,H  76)    -59.7697         0.010968   
    531. D(H  80,C  30,C  28,C  29)   -177.9968         0.010968   
    532. D(H  80,C  30,C  28,C  27)     57.1499         0.010968   
    533. D(O  42,C  32,C  18,H  66)   -117.8990         0.010161   
    534. D(O  42,C  32,C  18,C  19)    128.1942         0.010161   
    535. D(O  42,C  32,C  18,C  17)     -2.8632         0.010161   
    536. D(C  33,C  32,C  18,H  66)     59.4240         0.010161   
    537. D(C  33,C  32,C  18,C  19)    -54.4829         0.010161   
    538. D(C  33,C  32,C  18,C  17)    174.4597         0.010161   
    539. D(H  84,C  33,C  32,O  42)   -106.2149         0.012444   
    540. D(H  84,C  33,C  32,C  18)     76.4951         0.012444   
    541. D(H  83,C  33,C  32,O  42)      9.4943         0.012444   
    542. D(H  83,C  33,C  32,C  18)   -167.7958         0.012444   
    543. D(C  34,C  33,C  32,O  42)    134.1154         0.012444   
    544. D(C  34,C  33,C  32,C  18)    -43.1746         0.012444   
    545. D(H  86,C  34,C  33,H  84)   -174.1975         0.010596   
    546. D(H  86,C  34,C  33,H  83)     66.0951         0.010596   
    547. D(H  86,C  34,C  33,C  32)    -55.7174         0.010596   
    548. D(H  85,C  34,C  33,H  84)    -57.3173         0.010596   
    549. D(H  85,C  34,C  33,H  83)   -177.0248         0.010596   
    550. D(H  85,C  34,C  33,C  32)     61.1628         0.010596   
    551. D(C  35,C  34,C  33,H  84)     63.0230         0.010596   
    552. D(C  35,C  34,C  33,H  83)    -56.6844         0.010596   
    553. D(C  35,C  34,C  33,C  32)   -178.4969         0.010596   
    554. D(H  88,C  35,C  34,H  86)     59.2019         0.010749   
    555. D(H  88,C  35,C  34,H  85)    -57.1518         0.010749   
    556. D(H  88,C  35,C  34,C  33)   -178.1349         0.010749   
    557. D(H  87,C  35,C  34,H  86)    174.1552         0.010749   
    558. D(H  87,C  35,C  34,H  85)     57.8015         0.010749   
    559. D(H  87,C  35,C  34,C  33)    -63.1817         0.010749   
    560. D(C  36,C  35,C  34,H  86)    -62.9425         0.010749   
    561. D(C  36,C  35,C  34,H  85)   -179.2962         0.010749   
    562. D(C  36,C  35,C  34,C  33)     59.7207         0.010749   
    563. D(H  90,C  36,C  35,H  87)    -57.8324         0.010756   
    564. D(H  90,C  36,C  35,C  34)    179.5733         0.010756   
    565. D(H  89,C  36,C  35,H  88)    172.7113         0.010756   
    566. D(H  89,C  36,C  35,H  87)     57.0635         0.010756   
    567. D(H  89,C  36,C  35,C  34)    -65.5308         0.010756   
    568. D(C  37,C  36,C  35,H  88)    -63.9745         0.010756   
    569. D(C  37,C  36,C  35,H  87)   -179.6222         0.010756   
    570. D(H  90,C  36,C  35,H  88)     57.8154         0.010756   
    571. D(C  37,C  36,C  35,C  34)     57.7835         0.010756   
    572. D(H  92,C  37,C  36,H  90)    176.7058         0.011090   
    573. D(H  92,C  37,C  36,H  89)     61.8953         0.011090   
    574. D(H  92,C  37,C  36,C  35)    -61.8568         0.011090   
    575. D(H  91,C  37,C  36,H  90)    -67.4024         0.011090   
    576. D(H  91,C  37,C  36,H  89)    177.7870         0.011090   
    577. D(H  91,C  37,C  36,C  35)     54.0349         0.011090   
    578. D(C  38,C  37,C  36,H  90)     54.8287         0.011090   
    579. D(C  38,C  37,C  36,H  89)    -59.9818         0.011090   
    580. D(C  38,C  37,C  36,C  35)    176.2660         0.011090   
    581. D(H  94,C  38,C  37,H  92)    179.3602         0.011123   
    582. D(H  94,C  38,C  37,H  91)     64.0926         0.011123   
    583. D(H  94,C  38,C  37,C  36)    -58.0966         0.011123   
    584. D(H  93,C  38,C  37,H  92)    -65.2025         0.011123   
    585. D(H  93,C  38,C  37,H  91)    179.5298         0.011123   
    586. D(H  93,C  38,C  37,C  36)     57.3406         0.011123   
    587. D(C  39,C  38,C  37,H  92)     56.9957         0.011123   
    588. D(C  39,C  38,C  37,H  91)    -58.2719         0.011123   
    589. D(C  39,C  38,C  37,C  36)    179.5388         0.011123   
    590. D(H  95,C  39,C  38,H  94)    -64.4816         0.011139   
    591. D(H  95,C  39,C  38,H  93)    179.9954         0.011139   
    592. D(H  95,C  39,C  38,C  37)     57.8517         0.011139   
    593. D(C  40,C  39,C  38,H  94)     57.8005         0.011139   
    594. D(C  40,C  39,C  38,H  93)    -57.7226         0.011139   
    595. D(C  40,C  39,C  38,C  37)   -179.8663         0.011139   
    596. D(H  96,C  39,C  38,H  94)   -179.9451         0.011139   
    597. D(H  96,C  39,C  38,H  93)     64.5319         0.011139   
    598. D(H  96,C  39,C  38,C  37)    -57.6119         0.011139   
    599. D(H  98,C  40,C  39,H  95)     64.7127         0.011069   
    600. D(H  98,C  40,C  39,C  38)    -57.6096         0.011069   
    601. D(H  97,C  40,C  39,H  96)    -64.5645         0.011069   
    602. D(H  97,C  40,C  39,H  95)   -179.9482         0.011069   
    603. D(H  97,C  40,C  39,C  38)     57.7295         0.011069   
    604. D(C  41,C  40,C  39,H  96)     57.7625         0.011069   
    605. D(C  41,C  40,C  39,H  95)    -57.6213         0.011069   
    606. D(H  98,C  40,C  39,H  96)   -179.9035         0.011069   
    607. D(C  41,C  40,C  39,C  38)   -179.9435         0.011069   
    608. D(H 101,C  41,C  40,H  98)    -62.2431         0.011157   
    609. D(H 101,C  41,C  40,H  97)   -178.1621         0.011157   
    610. D(H 101,C  41,C  40,C  39)     59.8063         0.011157   
    611. D(H 100,C  41,C  40,H  98)    178.2044         0.011157   
    612. D(H 100,C  41,C  40,H  97)     62.2854         0.011157   
    613. D(H 100,C  41,C  40,C  39)    -59.7462         0.011157   
    614. D(H  99,C  41,C  40,H  98)     57.9805         0.011157   
    615. D(H  99,C  41,C  40,H  97)    -57.9385         0.011157   
    616. D(H  99,C  41,C  40,C  39)   -179.9701         0.011157   
    617. D(H 102,O  43,C  17,H  65)    175.8627         0.019303   
    618. D(H 102,O  43,C  17,C  18)     59.2214         0.019303   
    619. D(H 102,O  43,C  17,C  16)    -68.2301         0.019303   
    620. D(H 104,C  45,C  13,H  61)     65.9298         0.009842   
    621. D(H 104,C  45,C  13,C  14)   -171.6800         0.009842   
    622. D(H 104,C  45,C  13,N  12)    -54.2591         0.009842   
    623. D(H 103,C  45,C  13,H  61)   -179.8683         0.009842   
    624. D(H 103,C  45,C  13,C  14)    -57.4782         0.009842   
    625. D(H 103,C  45,C  13,N  12)     59.9428         0.009842   
    626. D(C  46,C  45,C  13,H  61)    -55.5420         0.009842   
    627. D(C  46,C  45,C  13,C  14)     66.8482         0.009842   
    628. D(C  46,C  45,C  13,N  12)   -175.7309         0.009842   
    629. D(H 107,C  46,C  45,H 104)    -64.9850         0.011267   
    630. D(H 107,C  46,C  45,H 103)    176.8223         0.011267   
    631. D(H 107,C  46,C  45,C  13)     53.8506         0.011267   
    632. D(H 106,C  46,C  45,H 104)    173.0283         0.011267   
    633. D(H 106,C  46,C  45,H 103)     54.8356         0.011267   
    634. D(H 106,C  46,C  45,C  13)    -68.1361         0.011267   
    635. D(H 105,C  46,C  45,H 104)     53.5450         0.011267   
    636. D(H 105,C  46,C  45,H 103)    -64.6477         0.011267   
    637. D(H 105,C  46,C  45,C  13)    172.3806         0.011267   
    638. D(H 108,C  48,C  10,H  59)   -179.8310         0.009908   
    639. D(H 108,C  48,C  10,C  11)    -60.4474         0.009908   
    640. D(H 108,C  48,C  10,N   9)     59.0813         0.009908   
    641. D(C  50,C  48,C  10,H  59)     62.2511         0.009908   
    642. D(C  50,C  48,C  10,C  11)   -178.3654         0.009908   
    643. D(C  50,C  48,C  10,N   9)    -58.8366         0.009908   
    644. D(C  49,C  48,C  10,H  59)    -61.9634         0.009908   
    645. D(C  49,C  48,C  10,C  11)     57.4202         0.009908   
    646. D(C  49,C  48,C  10,N   9)    176.9489         0.009908   
    647. D(H 111,C  49,C  48,C  50)     56.6220         0.010979   
    648. D(H 111,C  49,C  48,C  10)   -178.8738         0.010979   
    649. D(H 110,C  49,C  48,H 108)    179.2436         0.010979   
    650. D(H 110,C  49,C  48,C  50)    -62.6926         0.010979   
    651. D(H 110,C  49,C  48,C  10)     61.8116         0.010979   
    652. D(H 109,C  49,C  48,H 108)     59.0699         0.010979   
    653. D(H 109,C  49,C  48,C  50)    177.1336         0.010979   
    654. D(H 111,C  49,C  48,H 108)    -61.4418         0.010979   
    655. D(H 109,C  49,C  48,C  10)    -58.3622         0.010979   
    656. D(H 114,C  50,C  48,H 108)   -178.2810         0.011133   
    657. D(H 114,C  50,C  48,C  49)     63.1352         0.011133   
    658. D(H 114,C  50,C  48,C  10)    -60.2648         0.011133   
    659. D(H 113,C  50,C  48,H 108)     61.5549         0.011133   
    660. D(H 113,C  50,C  48,C  49)    -57.0289         0.011133   
    661. D(H 113,C  50,C  48,C  10)    179.5712         0.011133   
    662. D(H 112,C  50,C  48,H 108)    -58.4826         0.011133   
    663. D(H 112,C  50,C  48,C  49)   -177.0665         0.011133   
    664. D(H 112,C  50,C  48,C  10)     59.5336         0.011133   
    -----------------------------------------------------------------

Number of atoms                         .... 115
Number of degrees of freedom            .... 664

         *************************************************************
         *                GEOMETRY OPTIMIZATION CYCLE   1            *
         *************************************************************
---------------------------------
CARTESIAN COORDINATES (ANGSTROEM)
---------------------------------
  O      7.181606   -0.779635    3.605995
  C      6.361925   -0.348956    2.797182
  C      6.238577    1.175270    2.509741
  C      6.704837    2.001996    3.709461
  C      5.409730    2.190275    4.510455
  C      4.366749    2.466470    3.425214
  N      4.863155    1.678533    2.273094
  C      4.232668    1.544852    1.085412
  O      4.660594    0.794898    0.183368
  N      5.533047   -1.117627    2.043914
  C      5.675732   -2.574429    1.931931
  C      5.384546   -2.899412    0.453319
  N      4.085465   -2.652641    0.118611
  C      3.597490   -2.521320   -1.237835
  C      2.462978   -1.499632   -1.154113
  N      2.109690   -0.834881   -2.265299
  C      0.948067    0.051615   -2.275330
  C     -0.368212   -0.739359   -2.138286
  C     -1.537045    0.134450   -1.616510
  C     -1.271327    0.812190   -0.240965
  N     -0.650334    0.017568    0.677054
  C     -0.269514    0.532661    1.992874
  C      0.810052    1.633484    1.937421
  N      1.823215    1.388026    1.060265
  C      2.927405    2.319926    0.871886
  C      2.905953    2.951289   -0.521180
  O      0.762456    2.618293    2.673816
  C      0.208728   -0.653755    2.851085
  C      0.817047   -0.289381    4.212971
  C     -0.180477    0.439851    5.118468
  C      1.362821   -1.554514    4.883408
  O     -1.633297    1.956853    0.024890
  C     -2.040211    1.118576   -2.680111
  C     -3.253834    1.959977   -2.391301
  C     -4.417291    1.217800   -1.713915
  C     -5.638725    2.117528   -1.478299
  C     -6.253231    2.736652   -2.741515
  C     -6.702795    1.715788   -3.789723
  C     -7.392964    2.355083   -4.996653
  C     -7.835233    1.341489   -6.054060
  C     -8.523119    1.979098   -7.264069
  C     -8.961959    0.956222   -8.313601
  O     -1.478152    1.174350   -3.773927
  O     -0.697218   -1.416863   -3.346539
  O      1.867477   -1.317469   -0.069128
  C      3.111818   -3.877593   -1.804797
  C      2.675432   -3.844996   -3.269224
  O      6.232952   -3.280112   -0.348406
  C      4.764392   -3.355325    2.908347
  C      4.918797   -4.861585    2.674185
  C      5.044357   -2.986727    4.366794
  H      6.829970    1.357906    1.598333
  H      7.097337    2.972066    3.371141
  H      7.486831    1.467253    4.259434
  H      5.165969    1.260487    5.045712
  H      5.462314    3.002069    5.246132
  H      3.348636    2.160826    3.698695
  H      4.343135    3.538182    3.169511
  H      5.101353   -0.622336    1.248233
  H      6.724650   -2.840586    2.128985
  H      3.440192   -2.286058    0.818752
  H      4.413681   -2.139689   -1.873824
  H      2.589207   -1.042454   -3.134654
  H      0.944721    0.613200   -3.215453
  H      1.052641    0.774906   -1.454880
  H     -0.198964   -1.548688   -1.414141
  H     -2.382711   -0.554873   -1.436549
  H     -0.139328   -0.805402    0.358313
  H     -1.146056    1.019552    2.437937
  H      1.852087    0.489257    0.567186
  H      2.786676    3.095052    1.634911
  H      1.935278    3.436237   -0.686616
  H      3.699090    3.706254   -0.617591
  H      3.073897    2.185640   -1.289551
  H      0.958361   -1.215550    2.270004
  H     -0.649124   -1.330914    3.003024
  H      1.669588    0.388746    4.030863
  H     -0.484651    1.402158    4.686329
  H     -1.080671   -0.175353    5.278790
  H      0.264461    0.641882    6.103543
  H      2.105340   -2.057709    4.246572
  H      1.847695   -1.317038    5.840899
  H      0.552105   -2.271748    5.087827
  H     -3.557107    2.409874   -3.346241
  H     -2.915296    2.762448   -1.713852
  H     -4.083491    0.830627   -0.739987
  H     -4.706145    0.345775   -2.323451
  H     -5.352860    2.923282   -0.782362
  H     -6.409823    1.521580   -0.961872
  H     -5.539844    3.440303   -3.202727
  H     -7.119865    3.349246   -2.441953
  H     -7.386526    0.986185   -3.319862
  H     -5.835487    1.133036   -4.144241
  H     -6.709877    3.089706   -5.458539
  H     -8.269800    2.931544   -4.652759
  H     -8.518430    0.606484   -5.592401
  H     -6.957642    0.764818   -6.396588
  H     -7.838617    2.712096   -7.724061
  H     -9.398396    2.556090   -6.919910
  H     -9.451910    1.439561   -9.170936
  H     -8.100822    0.388018   -8.697242
  H     -9.672324    0.231353   -7.887471
  H     -0.915402   -0.697087   -3.977995
  H      2.296257   -4.246280   -1.162923
  H      3.958702   -4.567067   -1.677099
  H      2.476560   -4.862975   -3.630484
  H      1.755178   -3.262961   -3.420789
  H      3.466473   -3.424198   -3.910464
  H      3.717445   -3.073670    2.688812
  H      4.670866   -5.144830    1.641410
  H      5.954383   -5.178595    2.870078
  H      4.260905   -5.426948    3.348807
  H      4.884708   -1.916936    4.550865
  H      4.376842   -3.551618    5.033859
  H      6.084290   -3.215929    4.637405

----------------------------
CARTESIAN COORDINATES (A.U.)
----------------------------
  NO LB      ZA    FRAG     MASS         X           Y           Z
   0 O     8.0000    0    15.999   13.571269   -1.473296    6.814343
   1 C     6.0000    0    12.011   12.022296   -0.659431    5.285908
   2 C     6.0000    0    12.011   11.789202    2.220939    4.742724
   3 C     6.0000    0    12.011   12.670305    3.783224    7.009866
   4 C     6.0000    0    12.011   10.222909    4.139021    8.523525
   5 C     6.0000    0    12.011    8.251960    4.660952    6.472717
   6 N     7.0000    0    14.007    9.190031    3.171968    4.295525
   7 C     6.0000    0    12.011    7.998584    2.919348    2.051131
   8 O     8.0000    0    15.999    8.807246    1.502139    0.346516
   9 N     7.0000    0    14.007   10.455943   -2.112008    3.862438
  10 C     6.0000    0    12.011   10.725579   -4.864966    3.650820
  11 C     6.0000    0    12.011   10.175317   -5.479094    0.856650
  12 N     7.0000    0    14.007    7.720411   -5.012766    0.224142
  13 C     6.0000    0    12.011    6.798270   -4.764604   -2.339170
  14 C     6.0000    0    12.011    4.654353   -2.833894   -2.180957
  15 N     7.0000    0    14.007    3.986736   -1.577697   -4.280795
  16 C     6.0000    0    12.011    1.791587    0.097538   -4.299750
  17 C     6.0000    0    12.011   -0.695820   -1.397185   -4.040775
  18 C     6.0000    0    12.011   -2.904595    0.254074   -3.054762
  19 C     6.0000    0    12.011   -2.402459    1.534817   -0.455357
  20 N     7.0000    0    14.007   -1.228954    0.033199    1.279447
  21 C     6.0000    0    12.011   -0.509307    1.006584    3.765986
  22 C     6.0000    0    12.011    1.530777    3.086837    3.661195
  23 N     7.0000    0    14.007    3.445377    2.622989    2.003611
  24 C     6.0000    0    12.011    5.531993    4.384025    1.647625
  25 C     6.0000    0    12.011    5.491456    5.577129   -0.984887
  26 O     8.0000    0    15.999    1.440833    4.947856    5.052780
  27 C     6.0000    0    12.011    0.394439   -1.235417    5.387770
  28 C     6.0000    0    12.011    1.543995   -0.546850    7.961362
  29 C     6.0000    0    12.011   -0.341052    0.831198    9.672502
  30 C     6.0000    0    12.011    2.575358   -2.937605    9.228303
  31 O     8.0000    0    15.999   -3.086484    3.697916    0.047036
  32 C     6.0000    0    12.011   -3.855440    2.113803   -5.064677
  33 C     6.0000    0    12.011   -6.148855    3.703819   -4.518905
  34 C     6.0000    0    12.011   -8.347470    2.301308   -3.238830
  35 C     6.0000    0    12.011  -10.655645    4.001548   -2.793580
  36 C     6.0000    0    12.011  -11.816894    5.171523   -5.180712
  37 C     6.0000    0    12.011  -12.666446    3.242369   -7.161539
  38 C     6.0000    0    12.011  -13.970677    4.450462   -9.442307
  39 C     6.0000    0    12.011  -14.806444    2.535046  -11.440515
  40 C     6.0000    0    12.011  -16.106362    3.739953  -13.727100
  41 C     6.0000    0    12.011  -16.935648    1.806999  -15.710429
  42 O     8.0000    0    15.999   -2.793302    2.219200   -7.131689
  43 O     8.0000    0    15.999   -1.317551   -2.677482   -6.324043
  44 O     8.0000    0    15.999    3.529020   -2.489655   -0.130634
  45 C     6.0000    0    12.011    5.880484   -7.327588   -3.410572
  46 C     6.0000    0    12.011    5.055834   -7.265988   -6.177938
  47 O     8.0000    0    15.999   11.778573   -6.198514   -0.658392
  48 C     6.0000    0    12.011    9.003395   -6.340645    5.495979
  49 C     6.0000    0    12.011    9.295179   -9.187064    5.053477
  50 C     6.0000    0    12.011    9.532453   -5.644097    8.252045
  51 H     1.0000    0     1.008   12.906772    2.566070    3.020411
  52 H     1.0000    0     1.008   13.412024    5.616390    6.370533
  53 H     1.0000    0     1.008   14.148059    2.772706    8.049164
  54 H     1.0000    0     1.008    9.762266    2.381976    9.535014
  55 H     1.0000    0     1.008   10.322277    5.673088    9.913753
  56 H     1.0000    0     1.008    6.328004    4.083370    6.989521
  57 H     1.0000    0     1.008    8.207335    6.686195    5.989508
  58 H     1.0000    0     1.008    9.640161   -1.176044    2.358818
  59 H     1.0000    0     1.008   12.707747   -5.367929    4.023198
  60 H     1.0000    0     1.008    6.501021   -4.320024    1.547218
  61 H     1.0000    0     1.008    8.340649   -4.043427   -3.541015
  62 H     1.0000    0     1.008    4.892893   -1.969952   -5.923637
  63 H     1.0000    0     1.008    1.785263    1.158779   -6.076325
  64 H     1.0000    0     1.008    1.989203    1.464361   -2.749325
  65 H     1.0000    0     1.008   -0.375988   -2.926595   -2.672338
  66 H     1.0000    0     1.008   -4.502671   -1.048558   -2.714683
  67 H     1.0000    0     1.008   -0.263291   -1.521989    0.677113
  68 H     1.0000    0     1.008   -2.165733    1.926674    4.607033
  69 H     1.0000    0     1.008    3.499937    0.924562    1.071826
  70 H     1.0000    0     1.008    5.266055    5.848801    3.089533
  71 H     1.0000    0     1.008    3.657145    6.493546   -1.297517
  72 H     1.0000    0     1.008    6.990267    7.003805   -1.167078
  73 H     1.0000    0     1.008    5.808824    4.130262   -2.436898
  74 H     1.0000    0     1.008    1.811039   -2.297057    4.289686
  75 H     1.0000    0     1.008   -1.226668   -2.515062    5.674893
  76 H     1.0000    0     1.008    3.155064    0.734624    7.617228
  77 H     1.0000    0     1.008   -0.915858    2.649694    8.855878
  78 H     1.0000    0     1.008   -2.042172   -0.331370    9.975468
  79 H     1.0000    0     1.008    0.499760    1.212981   11.534024
  80 H     1.0000    0     1.008    3.978515   -3.888506    8.024857
  81 H     1.0000    0     1.008    3.491638   -2.488842   11.037700
  82 H     1.0000    0     1.008    1.043328   -4.292982    9.614599
  83 H     1.0000    0     1.008   -6.721957    4.554002   -6.323478
  84 H     1.0000    0     1.008   -5.509111    5.220269   -3.238711
  85 H     1.0000    0     1.008   -7.716680    1.569658   -1.398373
  86 H     1.0000    0     1.008   -8.893326    0.653419   -4.390686
  87 H     1.0000    0     1.008  -10.115440    5.524202   -1.478449
  88 H     1.0000    0     1.008  -12.112810    2.875369   -1.817674
  89 H     1.0000    0     1.008  -10.468787    6.501231   -6.052278
  90 H     1.0000    0     1.008  -13.454596    6.329159   -4.614622
  91 H     1.0000    0     1.008  -13.958512    1.863620   -6.273630
  92 H     1.0000    0     1.008  -11.027472    2.141127   -7.831480
  93 H     1.0000    0     1.008  -12.679831    5.838698  -10.315143
  94 H     1.0000    0     1.008  -15.627658    5.539816   -8.792441
  95 H     1.0000    0     1.008  -16.097499    1.146089  -10.568106
  96 H     1.0000    0     1.008  -13.148038    1.445297  -12.087800
  97 H     1.0000    0     1.008  -14.812840    5.125119  -14.596360
  98 H     1.0000    0     1.008  -17.760394    4.830311  -13.076734
  99 H     1.0000    0     1.008  -17.861522    2.720375  -17.330557
 100 H     1.0000    0     1.008  -15.308336    0.733247  -16.435405
 101 H     1.0000    0     1.008  -18.278044    0.437193  -14.905161
 102 H     1.0000    0     1.008   -1.729859   -1.317304   -7.517322
 103 H     1.0000    0     1.008    4.339297   -8.024306   -2.197606
 104 H     1.0000    0     1.008    7.480863   -8.630505   -3.169257
 105 H     1.0000    0     1.008    4.680020   -9.189691   -6.860620
 106 H     1.0000    0     1.008    3.316806   -6.166103   -6.464354
 107 H     1.0000    0     1.008    6.550685   -6.470797   -7.389705
 108 H     1.0000    0     1.008    7.024953   -5.808394    5.081119
 109 H     1.0000    0     1.008    8.826658   -9.722321    3.101816
 110 H     1.0000    0     1.008   11.252153   -9.786126    5.423661
 111 H     1.0000    0     1.008    8.051943  -10.255446    6.328328
 112 H     1.0000    0     1.008    9.230760   -3.622485    8.599888
 113 H     1.0000    0     1.008    8.271032   -6.711585    9.512615
 114 H     1.0000    0     1.008   11.497641   -6.077224    8.763425

--------------------------------
INTERNAL COORDINATES (ANGSTROEM)
--------------------------------
 O      0   0   0     0.000000000000     0.00000000     0.00000000
 C      1   0   0     1.229447026897     0.00000000     0.00000000
 C      2   1   0     1.555989230206   121.16691997     0.00000000
 C      3   2   1     1.529771752587   111.12198989   333.82448000
 C      4   3   2     1.534386019268   102.61821843   269.24739104
 C      5   4   3     1.530307641433   103.13273668   318.88698248
 N      6   5   4     1.481432987979   103.12940646    31.83882647
 C      7   6   5     1.351285315767   125.43792686   176.24454137
 O      8   7   6     1.248693143618   122.30641690   184.81155167
 N      2   1   3     1.358420781631   124.98682058   177.28539035
 C     10   2   1     1.468050651664   122.99143215   348.95789086
 C     11  10   2     1.541653309330   105.30689322   219.67925433
 N     12  11  10     1.364014402189   112.15425322   293.27072338
 C     13  12  11     1.447518963747   124.57069197   163.00665532
 C     14  13  12     1.529043297587   105.03669130   213.00616652
 N     15  14  13     1.342177995557   118.74480666   157.93109796
 C     16  15  14     1.461281961096   121.02342566   173.79405300
 C     17  16  15     1.541755448036   111.52036025   291.48767832
 C     18  17  16     1.549827066437   112.61559720   158.35145994
 C     19  18  17     1.556297913896   114.47711298   302.38211226
 N     20  19  18     1.363749993859   114.77008990   318.49669849
 C     21  20  19     1.463464089606   121.24203840   176.76878507
 C     22  21  20     1.542837424659   113.63426042   294.85583398
 N     23  22  21     1.362406015117   114.51614038   317.55936591
 C     24  23  22     1.457106757569   122.11031639   179.78404729
 C     25  24  23     1.529611425400   111.78335348   247.23907205
 O     23  22  21     1.230606364802   121.49475546   140.20433905
 C     22  21  20     1.540397538415   108.09727362   171.65297137
 C     28  22  21     1.535432723847   115.74651603   172.67241582
 C     29  28  22     1.531912538987   112.28805006    60.98608641
 C     29  28  22     1.532291193374   109.46702241   185.37494811
 O     20  19  18     1.229615632841   123.10892113   141.10507184
 C     19  18  17     1.533925241118   112.06590619    72.64436095
 C     33  19  18     1.504741052180   119.35539118   174.45974914
 C     34  33  19     1.537306593096   115.15163159   316.82539028
 C     35  34  33     1.535228225428   112.75654450   181.50314422
 C     36  35  34     1.535137088181   115.37524396    59.72066506
 C     37  36  35     1.530690375053   114.33604661    57.78349024
 C     38  37  36     1.530265232147   113.20004740   176.26602523
 C     39  38  37     1.530059785103   113.49573967   179.53883150
 C     40  39  38     1.530965198281   113.58986371   180.13366843
 C     41  40  39     1.529827636579   113.11922678   180.05645811
 O     33  19  18     1.231037690480   119.69574875   357.13677600
 O     18  17  16     1.423774255778   111.46793731   285.64098140
 O     15  14  13     1.250997845346   119.86658567   336.53565171
 C     14  13  12     1.548159374170   111.68189436    91.53609421
 C     46  14  13     1.528411757256   114.94640128   184.26910314
 O     12  11  10     1.227799152086   124.13352592   110.26547257
 C     11  10   2     1.547167544226   113.29513698    95.94024674
 C     49  11  10     1.532152836679   109.90021378   176.94887978
 C     49  11  10     1.530135192040   111.84965107   301.16335698
 H      3   2   1     1.101711124357   105.82257718    97.20894074
 H      4   3   2     1.099796781935   110.13310414   151.34381234
 H      4   3   2     1.095414888207   110.33528924    30.61349087
 H      5   4   3     1.100193624315   109.71142846    76.37642432
 H      5   4   3     1.096811093343   113.60950681   197.42356959
 H      6   5   4     1.097617570262   113.90560503   152.08959783
 H      6   5   4     1.102047464952   110.77279369   274.04885566
 H     10   2   1     1.031881973387   114.28362911   195.81297907
 H     11  10   2     1.099953777532   108.61066815   334.60092441
 H     13  12  11     1.020273975591   119.93088788     0.56191905
 H     14  13  12     1.102856605366   108.80199682   331.28226417
 H     16  15  14     1.014297916864   118.93357630     1.38425891
 H     17  16  15     1.095089134541   108.62832649   170.49222194
 H     17  16  15     1.098737174658   108.57667163    53.65491208
 H     18  17  16     1.099110771385   107.75034296    39.31475951
 H     19  18  17     1.105758955343   106.26574521   187.01856103
 H     21  20  19     1.019805834267   119.20824065    19.60939460
 H     22  21  20     1.097027770281   108.24395264    50.93603425
 H     24  23  22     1.025546555752   119.23414107   355.03035496
 H     25  24  23     1.096736722197   105.35670556     6.55088863
 H     26  25  24     1.097612953923   109.39245834    55.88008543
 H     26  25  24     1.099242017805   110.68591946   175.69178794
 H     26  25  24     1.097641918156   110.33250457   295.04534937
 H     28  22  21     1.102369526545   108.05680675    50.67985994
 H     28  22  21     1.103422519098   107.93930510   295.56022025
 H     29  28  22     1.104466188883   107.77479168   302.25144342
 H     30  29  28     1.097861895207   111.40751658   296.86776335
 H     30  29  28     1.102056777908   110.61857148    57.86772096
 H     30  29  28     1.099617919496   110.70136425   177.07584464
 H     31  29  28     1.100045383642   111.39509024    57.14988983
 H     31  29  28     1.099221461261   111.09192759   177.32359842
 H     31  29  28     1.101577089276   110.89374983   297.03341934
 H     34  33  19     1.098312872504   106.55139794   192.20423636
 H     34  33  19     1.103405811256   106.08419588    76.49507540
 H     35  34  33     1.099936726247   109.29404614    61.16281248
 H     35  34  33     1.102451524879   109.66639360   304.28262567
 H     36  35  34     1.102400467950   108.59822638   296.81830502
 H     36  35  34     1.102925441040   108.14566183   181.86506778
 H     37  36  35     1.103069928070   110.02568395   294.46923213
 H     37  36  35     1.102753160603   108.36640128   179.57332774
 H     38  37  36     1.104798098797   109.32727179    54.03487247
 H     38  37  36     1.103406186430   109.96196676   298.14316252
 H     39  38  37     1.104362274225   109.19586786    57.34059737
 H     39  38  37     1.104270370993   109.30453126   301.90336532
 H     40  39  38     1.104589926856   109.31412636    57.85166383
 H     40  39  38     1.104553868369   109.29964613   302.38808925
 H     41  40  39     1.103368996972   109.11286432    57.72948816
 H     41  40  39     1.103392299316   109.12861079   302.39044656
 H     42  41  40     1.099404727315   111.64643649   180.02989398
 H     42  41  40     1.100723709276   111.09054065   300.25380215
 H     42  41  40     1.100745946457   111.09027612    59.80625251
 H     44  18  17     0.982047559955   104.37336428   291.76988653
 H     46  14  13     1.101395850064   108.18740601    59.94276577
 H     46  14  13     1.099497091363   105.37829823   305.74090716
 H     47  46  14     1.098335822843   110.30860983   172.38061285
 H     47  46  14     1.099364996120   112.48148057   291.86394620
 H     47  46  14     1.101818640440   111.14814698    53.85063498
 H     49  11  10     1.106174815322   107.68212417    59.08131254
 H     50  49  11     1.099236557952   111.97375278   301.63780742
 H     50  49  11     1.100594604226   110.53558907    61.81157323
 H     50  49  11     1.098896158433   110.58705274   181.12616277
 H     51  49  11     1.097188464423   111.60214588    59.53361498
 H     51  49  11     1.099842512711   110.07944694   179.57115646
 H     51  49  11     1.098737205206   110.95764077   299.73524417

---------------------------
INTERNAL COORDINATES (A.U.)
---------------------------
 O      0   0   0     0.000000000000     0.00000000     0.00000000
 C      1   0   0     2.323318176999     0.00000000     0.00000000
 C      2   1   0     2.940393512419   121.16691997     0.00000000
 C      3   2   1     2.890849659798   111.12198989   333.82448000
 C      4   3   2     2.899569360134   102.61821843   269.24739104
 C      5   4   3     2.891862342956   103.13273668   318.88698248
 N      6   5   4     2.799502633037   103.12940646    31.83882647
 C      7   6   5     2.553559175589   125.43792686   176.24454137
 O      8   7   6     2.359688066743   122.30641690   184.81155167
 N      2   1   3     2.567043251910   124.98682058   177.28539035
 C     10   2   1     2.774213682370   122.99143215   348.95789086
 C     11  10   2     2.913302548088   105.30689322   219.67925433
 N     12  11  10     2.577613662862   112.15425322   293.27072338
 C     13  12  11     2.735414415139   124.57069197   163.00665532
 C     14  13  12     2.889473079347   105.03669130   213.00616652
 N     15  14  13     2.536348834578   118.74480666   157.93109796
 C     16  15  14     2.761422710910   121.02342566   173.79405300
 C     17  16  15     2.913495562269   111.52036025   291.48767832
 C     18  17  16     2.928748710505   112.61559720   158.35145994
 C     19  18  17     2.940976840056   114.47711298   302.38211226
 N     20  19  18     2.577114003531   114.77008990   318.49669849
 C     21  20  19     2.765546336183   121.24203840   176.76878507
 C     22  21  20     2.915540201769   113.63426042   294.85583398
 N     23  22  21     2.574574251778   114.51614038   317.55936591
 C     24  23  22     2.753532719691   122.11031639   179.78404729
 C     25  24  23     2.890546685323   111.78335348   247.23907205
 O     23  22  21     2.325509008135   121.49475546   140.20433905
 C     22  21  20     2.910929484971   108.09727362   171.65297137
 C     28  22  21     2.901547345132   115.74651603   172.67241582
 C     29  28  22     2.894895159806   112.28805006    60.98608641
 C     29  28  22     2.895610712897   109.46702241   185.37494811
 O     20  19  18     2.323636796059   123.10892113   141.10507184
 C     19  18  17     2.898698615623   112.06590619    72.64436095
 C     33  19  18     2.843548491090   119.35539118   174.45974914
 C     34  33  19     2.905088444822   115.15163159   316.82539028
 C     35  34  33     2.901160899125   112.75654450   181.50314422
 C     36  35  34     2.900988674688   115.37524396    59.72066506
 C     37  36  35     2.892585604680   114.33604661    57.78349024
 C     38  37  36     2.891782201020   113.20004740   176.26602523
 C     39  38  37     2.891393962371   113.49573967   179.53883150
 C     40  39  38     2.893104945316   113.58986371   180.13366843
 C     41  40  39     2.890955265238   113.11922678   180.05645811
 O     33  19  18     2.326324095542   119.69574875   357.13677600
 O     18  17  16     2.690543419948   111.46793731   285.64098140
 O     15  14  13     2.364043321830   119.86658567   336.53565171
 C     14  13  12     2.925597228844   111.68189436    91.53609421
 C     46  14  13     2.888279641080   114.94640128   184.26910314
 O     12  11  10     2.320204144902   124.13352592   110.26547257
 C     11  10   2     2.923722941879   113.29513698    95.94024674
 C     49  11  10     2.895349256635   109.90021378   176.94887978
 C     49  11  10     2.891536460831   111.84965107   301.16335698
 H      3   2   1     2.081932303730   105.82257718    97.20894074
 H      4   3   2     2.078314720825   110.13310414   151.34381234
 H      4   3   2     2.070034141732   110.33528924    30.61349087
 H      5   4   3     2.079064644242   109.71142846    76.37642432
 H      5   4   3     2.072672587065   113.60950681   197.42356959
 H      6   5   4     2.074196607575   113.90560503   152.08959783
 H      6   5   4     2.082567895342   110.77279369   274.04885566
 H     10   2   1     1.949974332232   114.28362911   195.81297907
[...]
freq.      87.61  E(vib)   ...       0.48 
freq.      93.10  E(vib)   ...       0.47 
freq.      95.85  E(vib)   ...       0.47 
freq.      98.87  E(vib)   ...       0.46 
freq.     103.08  E(vib)   ...       0.46 
freq.     106.05  E(vib)   ...       0.45 
freq.     112.92  E(vib)   ...       0.45 
freq.     114.50  E(vib)   ...       0.44 
freq.     119.41  E(vib)   ...       0.44 
freq.     126.99  E(vib)   ...       0.43 
freq.     134.43  E(vib)   ...       0.42 
freq.     140.52  E(vib)   ...       0.41 
freq.     141.97  E(vib)   ...       0.41 
freq.     148.90  E(vib)   ...       0.40 
freq.     156.88  E(vib)   ...       0.40 
freq.     162.86  E(vib)   ...       0.39 
freq.     167.66  E(vib)   ...       0.38 
freq.     173.26  E(vib)   ...       0.38 
freq.     187.44  E(vib)   ...       0.36 
freq.     188.00  E(vib)   ...       0.36 
freq.     198.21  E(vib)   ...       0.35 
freq.     201.93  E(vib)   ...       0.35 
freq.     210.48  E(vib)   ...       0.34 
freq.     212.43  E(vib)   ...       0.34 
freq.     219.76  E(vib)   ...       0.33 
freq.     223.76  E(vib)   ...       0.33 
freq.     225.78  E(vib)   ...       0.33 
freq.     237.16  E(vib)   ...       0.32 
freq.     244.37  E(vib)   ...       0.31 
freq.     246.80  E(vib)   ...       0.31 
freq.     248.63  E(vib)   ...       0.31 
freq.     251.28  E(vib)   ...       0.30 
freq.     251.40  E(vib)   ...       0.30 
freq.     258.16  E(vib)   ...       0.30 
freq.     260.42  E(vib)   ...       0.30 
freq.     264.56  E(vib)   ...       0.29 
freq.     268.35  E(vib)   ...       0.29 
freq.     277.15  E(vib)   ...       0.28 
freq.     280.23  E(vib)   ...       0.28 
freq.     292.07  E(vib)   ...       0.27 
freq.     295.47  E(vib)   ...       0.27 
freq.     313.02  E(vib)   ...       0.25 
freq.     326.69  E(vib)   ...       0.24 
freq.     329.08  E(vib)   ...       0.24 
freq.     335.99  E(vib)   ...       0.24 
freq.     344.95  E(vib)   ...       0.23 
freq.     348.10  E(vib)   ...       0.23 
freq.     356.45  E(vib)   ...       0.22 
freq.     361.60  E(vib)   ...       0.22 
freq.     374.09  E(vib)   ...       0.21 
freq.     378.91  E(vib)   ...       0.21 
freq.     382.43  E(vib)   ...       0.21 
freq.     395.28  E(vib)   ...       0.20 
freq.     408.14  E(vib)   ...       0.19 
freq.     408.95  E(vib)   ...       0.19 
freq.     414.40  E(vib)   ...       0.19 
freq.     429.65  E(vib)   ...       0.18 
freq.     432.01  E(vib)   ...       0.18 
freq.     450.51  E(vib)   ...       0.17 
freq.     460.01  E(vib)   ...       0.16 
freq.     469.67  E(vib)   ...       0.16 
freq.     480.48  E(vib)   ...       0.15 
freq.     493.64  E(vib)   ...       0.14 
freq.     498.28  E(vib)   ...       0.14 
freq.     500.74  E(vib)   ...       0.14 
freq.     510.00  E(vib)   ...       0.14 
freq.     526.57  E(vib)   ...       0.13 
freq.     530.19  E(vib)   ...       0.13 
freq.     552.42  E(vib)   ...       0.12 
freq.     573.08  E(vib)   ...       0.11 
freq.     576.06  E(vib)   ...       0.11 
freq.     590.52  E(vib)   ...       0.10 
freq.     605.72  E(vib)   ...       0.10 
freq.     619.42  E(vib)   ...       0.09 
freq.     637.10  E(vib)   ...       0.09 
freq.     642.29  E(vib)   ...       0.09 
freq.     647.70  E(vib)   ...       0.09 
freq.     669.74  E(vib)   ...       0.08 
freq.     675.13  E(vib)   ...       0.08 
freq.     696.90  E(vib)   ...       0.07 
freq.     701.23  E(vib)   ...       0.07 
freq.     709.04  E(vib)   ...       0.07 
freq.     713.66  E(vib)   ...       0.07 
freq.     720.21  E(vib)   ...       0.07 
freq.     726.27  E(vib)   ...       0.06 
freq.     733.66  E(vib)   ...       0.06 
freq.     735.61  E(vib)   ...       0.06 
freq.     742.38  E(vib)   ...       0.06 
freq.     748.84  E(vib)   ...       0.06 
freq.     759.24  E(vib)   ...       0.06 
freq.     778.12  E(vib)   ...       0.05 
freq.     783.57  E(vib)   ...       0.05 
freq.     788.73  E(vib)   ...       0.05 
freq.     796.06  E(vib)   ...       0.05 
freq.     816.05  E(vib)   ...       0.05 
freq.     823.59  E(vib)   ...       0.05 
freq.     828.60  E(vib)   ...       0.04 
freq.     838.95  E(vib)   ...       0.04 
freq.     848.74  E(vib)   ...       0.04 
freq.     855.34  E(vib)   ...       0.04 
freq.     859.38  E(vib)   ...       0.04 
freq.     860.36  E(vib)   ...       0.04 
freq.     864.78  E(vib)   ...       0.04 
freq.     872.50  E(vib)   ...       0.04 
freq.     880.79  E(vib)   ...       0.04 
freq.     885.64  E(vib)   ...       0.04 
freq.     886.89  E(vib)   ...       0.04 
freq.     897.53  E(vib)   ...       0.03 
freq.     901.13  E(vib)   ...       0.03 
freq.     904.17  E(vib)   ...       0.03 
freq.     906.84  E(vib)   ...       0.03 
freq.     911.48  E(vib)   ...       0.03 
freq.     916.07  E(vib)   ...       0.03 
freq.     926.43  E(vib)   ...       0.03 
freq.     937.28  E(vib)   ...       0.03 
freq.     942.60  E(vib)   ...       0.03 
freq.     946.82  E(vib)   ...       0.03 
freq.     955.72  E(vib)   ...       0.03 
freq.     958.26  E(vib)   ...       0.03 
freq.     962.59  E(vib)   ...       0.03 
freq.     971.01  E(vib)   ...       0.03 
freq.     973.37  E(vib)   ...       0.03 
freq.     977.56  E(vib)   ...       0.03 
freq.     981.65  E(vib)   ...       0.02 
freq.     990.28  E(vib)   ...       0.02 
freq.    1011.72  E(vib)   ...       0.02 
freq.    1020.03  E(vib)   ...       0.02 
freq.    1027.43  E(vib)   ...       0.02 
freq.    1028.69  E(vib)   ...       0.02 
freq.    1030.61  E(vib)   ...       0.02 
freq.    1034.71  E(vib)   ...       0.02 
freq.    1040.10  E(vib)   ...       0.02 
freq.    1042.23  E(vib)   ...       0.02 
freq.    1049.99  E(vib)   ...       0.02 
freq.    1052.12  E(vib)   ...       0.02 
freq.    1058.19  E(vib)   ...       0.02 
freq.    1061.07  E(vib)   ...       0.02 
freq.    1067.74  E(vib)   ...       0.02 
freq.    1071.55  E(vib)   ...       0.02 
freq.    1077.22  E(vib)   ...       0.02 
freq.    1079.64  E(vib)   ...       0.02 
freq.    1081.15  E(vib)   ...       0.02 
freq.    1087.64  E(vib)   ...       0.02 
freq.    1092.62  E(vib)   ...       0.02 
freq.    1097.74  E(vib)   ...       0.02 
freq.    1103.81  E(vib)   ...       0.02 
freq.    1107.61  E(vib)   ...       0.02 
freq.    1123.30  E(vib)   ...       0.01 
freq.    1125.13  E(vib)   ...       0.01 
freq.    1132.45  E(vib)   ...       0.01 
freq.    1133.26  E(vib)   ...       0.01 
freq.    1140.67  E(vib)   ...       0.01 
freq.    1144.17  E(vib)   ...       0.01 
freq.    1156.95  E(vib)   ...       0.01 
freq.    1157.43  E(vib)   ...       0.01 
freq.    1158.92  E(vib)   ...       0.01 
freq.    1161.71  E(vib)   ...       0.01 
freq.    1166.96  E(vib)   ...       0.01 
freq.    1177.43  E(vib)   ...       0.01 
freq.    1182.59  E(vib)   ...       0.01 
freq.    1193.57  E(vib)   ...       0.01 
freq.    1200.13  E(vib)   ...       0.01 
freq.    1210.03  E(vib)   ...       0.01 
freq.    1213.58  E(vib)   ...       0.01 
freq.    1220.70  E(vib)   ...       0.01 
freq.    1225.97  E(vib)   ...       0.01 
freq.    1227.72  E(vib)   ...       0.01 
freq.    1230.05  E(vib)   ...       0.01 
freq.    1232.11  E(vib)   ...       0.01 
freq.    1233.37  E(vib)   ...       0.01 
freq.    1238.77  E(vib)   ...       0.01 
freq.    1242.81  E(vib)   ...       0.01 
freq.    1246.30  E(vib)   ...       0.01 
freq.    1252.11  E(vib)   ...       0.01 
freq.    1262.06  E(vib)   ...       0.01 
freq.    1263.34  E(vib)   ...       0.01 
freq.    1266.00  E(vib)   ...       0.01 
freq.    1276.17  E(vib)   ...       0.01 
freq.    1277.39  E(vib)   ...       0.01 
freq.    1279.07  E(vib)   ...       0.01 
freq.    1283.69  E(vib)   ...       0.01 
freq.    1285.16  E(vib)   ...       0.01 
freq.    1286.21  E(vib)   ...       0.01 
freq.    1288.31  E(vib)   ...       0.01 
freq.    1292.61  E(vib)   ...       0.01 
freq.    1294.08  E(vib)   ...       0.01 
freq.    1300.56  E(vib)   ...       0.01 
freq.    1300.61  E(vib)   ...       0.01 
freq.    1302.55  E(vib)   ...       0.01 
freq.    1304.41  E(vib)   ...       0.01 
freq.    1308.41  E(vib)   ...       0.01 
freq.    1308.75  E(vib)   ...       0.01 
freq.    1311.35  E(vib)   ...       0.01 
freq.    1313.01  E(vib)   ...       0.01 
freq.    1316.79  E(vib)   ...       0.01 
freq.    1323.62  E(vib)   ...       0.01 
freq.    1325.53  E(vib)   ...       0.01 
freq.    1330.42  E(vib)   ...       0.01 
freq.    1337.08  E(vib)   ...       0.01 
freq.    1337.90  E(vib)   ...       0.01 
freq.    1343.46  E(vib)   ...       0.01 
freq.    1344.13  E(vib)   ...       0.01 
freq.    1345.21  E(vib)   ...       0.01 
freq.    1349.11  E(vib)   ...       0.01 
freq.    1350.23  E(vib)   ...       0.01 
freq.    1350.72  E(vib)   ...       0.01 
freq.    1350.97  E(vib)   ...       0.01 
freq.    1353.93  E(vib)   ...       0.01 
freq.    1354.16  E(vib)   ...       0.01 
freq.    1363.92  E(vib)   ...       0.01 
freq.    1368.67  E(vib)   ...       0.01 
freq.    1372.15  E(vib)   ...       0.01 
freq.    1374.94  E(vib)   ...       0.01 
freq.    1386.77  E(vib)   ...       0.00 
freq.    1412.44  E(vib)   ...       0.00 
freq.    1413.19  E(vib)   ...       0.00 
freq.    1430.29  E(vib)   ...       0.00 
freq.    1431.81  E(vib)   ...       0.00 
freq.    1432.51  E(vib)   ...       0.00 
freq.    1432.59  E(vib)   ...       0.00 
freq.    1433.22  E(vib)   ...       0.00 
freq.    1434.70  E(vib)   ...       0.00 
freq.    1436.96  E(vib)   ...       0.00 
freq.    1438.28  E(vib)   ...       0.00 
freq.    1439.05  E(vib)   ...       0.00 
freq.    1439.39  E(vib)   ...       0.00 
freq.    1442.10  E(vib)   ...       0.00 
freq.    1444.20  E(vib)   ...       0.00 
freq.    1444.60  E(vib)   ...       0.00 
freq.    1447.51  E(vib)   ...       0.00 
freq.    1448.51  E(vib)   ...       0.00 
freq.    1449.45  E(vib)   ...       0.00 
freq.    1451.08  E(vib)   ...       0.00 
freq.    1451.38  E(vib)   ...       0.00 
freq.    1452.74  E(vib)   ...       0.00 
freq.    1455.51  E(vib)   ...       0.00 
freq.    1456.47  E(vib)   ...       0.00 
freq.    1457.56  E(vib)   ...       0.00 
freq.    1459.46  E(vib)   ...       0.00 
freq.    1464.18  E(vib)   ...       0.00 
freq.    1466.62  E(vib)   ...       0.00 
freq.    1466.82  E(vib)   ...       0.00 
freq.    1467.24  E(vib)   ...       0.00 
freq.    1474.27  E(vib)   ...       0.00 
freq.    1491.14  E(vib)   ...       0.00 
freq.    1513.51  E(vib)   ...       0.00 
freq.    1519.55  E(vib)   ...       0.00 
freq.    1538.85  E(vib)   ...       0.00 
freq.    1611.27  E(vib)   ...       0.00 
freq.    1617.94  E(vib)   ...       0.00 
freq.    1665.66  E(vib)   ...       0.00 
freq.    1670.96  E(vib)   ...       0.00 
freq.    1684.57  E(vib)   ...       0.00 
freq.    1692.17  E(vib)   ...       0.00 
freq.    1699.32  E(vib)   ...       0.00 
freq.    2912.90  E(vib)   ...       0.00 
freq.    2925.25  E(vib)   ...       0.00 
freq.    2926.99  E(vib)   ...       0.00 
freq.    2932.42  E(vib)   ...       0.00 
freq.    2934.50  E(vib)   ...       0.00 
freq.    2943.32  E(vib)   ...       0.00 
freq.    2943.61  E(vib)   ...       0.00 
freq.    2944.48  E(vib)   ...       0.00 
freq.    2945.47  E(vib)   ...       0.00 
freq.    2946.29  E(vib)   ...       0.00 
freq.    2948.47  E(vib)   ...       0.00 
freq.    2952.02  E(vib)   ...       0.00 
freq.    2952.61  E(vib)   ...       0.00 
freq.    2954.04  E(vib)   ...       0.00 
freq.    2955.12  E(vib)   ...       0.00 
freq.    2956.48  E(vib)   ...       0.00 
freq.    2956.97  E(vib)   ...       0.00 
freq.    2957.59  E(vib)   ...       0.00 
freq.    2962.52  E(vib)   ...       0.00 
freq.    2962.77  E(vib)   ...       0.00 
freq.    2965.50  E(vib)   ...       0.00 
freq.    2967.82  E(vib)   ...       0.00 
freq.    2970.00  E(vib)   ...       0.00 
freq.    2974.65  E(vib)   ...       0.00 
freq.    2975.50  E(vib)   ...       0.00 
freq.    2976.12  E(vib)   ...       0.00 
freq.    2979.39  E(vib)   ...       0.00 
freq.    2983.92  E(vib)   ...       0.00 
freq.    2985.76  E(vib)   ...       0.00 
freq.    2988.42  E(vib)   ...       0.00 
freq.    2992.47  E(vib)   ...       0.00 
freq.    2993.55  E(vib)   ...       0.00 
freq.    2996.16  E(vib)   ...       0.00 
freq.    3001.96  E(vib)   ...       0.00 
freq.    3002.47  E(vib)   ...       0.00 
freq.    3002.69  E(vib)   ...       0.00 
freq.    3010.94  E(vib)   ...       0.00 
freq.    3017.13  E(vib)   ...       0.00 
freq.    3020.32  E(vib)   ...       0.00 
freq.    3021.16  E(vib)   ...       0.00 
freq.    3026.33  E(vib)   ...       0.00 
freq.    3027.97  E(vib)   ...       0.00 
freq.    3029.16  E(vib)   ...       0.00 
freq.    3029.91  E(vib)   ...       0.00 
freq.    3031.35  E(vib)   ...       0.00 
freq.    3031.86  E(vib)   ...       0.00 
freq.    3032.59  E(vib)   ...       0.00 
freq.    3033.51  E(vib)   ...       0.00 
freq.    3035.99  E(vib)   ...       0.00 
freq.    3037.77  E(vib)   ...       0.00 
freq.    3041.15  E(vib)   ...       0.00 
freq.    3046.70  E(vib)   ...       0.00 
freq.    3047.40  E(vib)   ...       0.00 
freq.    3048.12  E(vib)   ...       0.00 
freq.    3053.20  E(vib)   ...       0.00 
freq.    3063.68  E(vib)   ...       0.00 
freq.    3066.46  E(vib)   ...       0.00 
freq.    3071.13  E(vib)   ...       0.00 
freq.    3220.92  E(vib)   ...       0.00 
freq.    3332.75  E(vib)   ...       0.00 
freq.    3436.97  E(vib)   ...       0.00 
freq.    3442.22  E(vib)   ...       0.00 
freq.    3528.43  E(vib)   ...       0.00 
freq.    3535.56  E(vib)   ...       0.00 

------------
INNER ENERGY
------------

The inner energy is: U= E(el) + E(ZPE) + E(vib) + E(rot) + E(trans)
    E(el)   - is the total energy from the electronic structure calculation
              = E(kin-el) + E(nuc-el) + E(el-el) + E(nuc-nuc)
    E(ZPE)  - the the zero temperature vibrational energy from the frequency calculation
    E(vib)  - the the finite temperature correction to E(ZPE) due to population
              of excited vibrational states
    E(rot)  - is the rotational thermal energy
    E(trans)- is the translational thermal energy

Summary of contributions to the inner energy U:
Electronic energy                ...  -2380.07692946 Eh
Zero point energy                ...      0.97783029 Eh     613.60 kcal/mol
Thermal vibrational correction   ...      0.05557621 Eh      34.87 kcal/mol
Thermal rotational correction    ...      0.00141627 Eh       0.89 kcal/mol
Thermal translational correction ...      0.00141627 Eh       0.89 kcal/mol
-----------------------------------------------------------------------
Total thermal energy                  -2379.04069042 Eh


Summary of corrections to the electronic energy:
(perhaps to be used in another calculation)
Total thermal correction                  0.05840875 Eh      36.65 kcal/mol
Non-thermal (ZPE) correction              0.97783029 Eh     613.60 kcal/mol
-----------------------------------------------------------------------
Total correction                          1.03623903 Eh     650.25 kcal/mol


--------
ENTHALPY
--------

The enthalpy is H = U + kB*T
                kB is Boltzmann's constant
Total free energy                 ...  -2379.04069042 Eh 
Thermal Enthalpy correction       ...      0.00094421 Eh       0.59 kcal/mol
-----------------------------------------------------------------------
Total Enthalpy                    ...  -2379.03974621 Eh


Note: Only C1 symmetry has been detected, increase convergence thresholds 
      if your molecule has a higher symmetry. Symmetry factor of 1.0 is   
      used for the rotational entropy correction. 
 

Note: Rotational entropy computed according to Herzberg 
Infrared and Raman Spectra, Chapter V,1, Van Nostrand Reinhold, 1945 
Point Group:  C1, Symmetry Number:   1  
Rotational constants in cm-1:     0.003253     0.000828     0.000755 

Vibrational entropy computed according to the QRRHO of S. Grimme
Chem.Eur.J. 2012 18 9955


-------
ENTROPY
-------

The entropy contributions are T*S = T*(S(el)+S(vib)+S(rot)+S(trans))
     S(el)   - electronic entropy
     S(vib)  - vibrational entropy
     S(rot)  - rotational entropy
     S(trans)- translational entropy
The entropies will be listed as mutliplied by the temperature to get
units of energy

Electronic entropy                ...      0.00000000 Eh      0.00 kcal/mol
Vibrational entropy               ...      0.10303436 Eh     64.65 kcal/mol
Rotational entropy                ...      0.01895872 Eh     11.90 kcal/mol
Translational entropy             ...      0.02166895 Eh     13.60 kcal/mol
-----------------------------------------------------------------------
Final entropy term                ...      0.14366203 Eh     90.15 kcal/mol

In case the symmetry of your molecule has not been determined correctly
or in case you have a reason to use a different symmetry number we print 
out the resulting rotational entropy values for sn=1,12 :
 --------------------------------------------------------
|  sn= 1 | S(rot)=       0.01895872 Eh     11.90 kcal/mol|
|  sn= 2 | S(rot)=       0.01830426 Eh     11.49 kcal/mol|
|  sn= 3 | S(rot)=       0.01792143 Eh     11.25 kcal/mol|
|  sn= 4 | S(rot)=       0.01764980 Eh     11.08 kcal/mol|
|  sn= 5 | S(rot)=       0.01743911 Eh     10.94 kcal/mol|
|  sn= 6 | S(rot)=       0.01726697 Eh     10.84 kcal/mol|
|  sn= 7 | S(rot)=       0.01712142 Eh     10.74 kcal/mol|
|  sn= 8 | S(rot)=       0.01699535 Eh     10.66 kcal/mol|
|  sn= 9 | S(rot)=       0.01688414 Eh     10.59 kcal/mol|
|  sn=10 | S(rot)=       0.01678466 Eh     10.53 kcal/mol|
|  sn=11 | S(rot)=       0.01669467 Eh     10.48 kcal/mol|
|  sn=12 | S(rot)=       0.01661251 Eh     10.42 kcal/mol|
 --------------------------------------------------------


-------------------
GIBBS FREE ENERGY
-------------------

The Gibbs free energy is G = H - T*S

Total enthalpy                    ...  -2379.03974621 Eh 
Total entropy correction          ...     -0.14366203 Eh    -90.15 kcal/mol
-----------------------------------------------------------------------
Final Gibbs free energy         ...  -2379.18340824 Eh

For completeness - the Gibbs free energy minus the electronic energy
G-E(el)                           ...      0.89352122 Eh    560.69 kcal/mol

--------------------------------------------------------------------------
WARNING: No preset parameters were found for the device that Open MPI
detected:

  Local host:            eu-g1-004-4
  Device name:           mlx5_0
  Device vendor ID:      0x02c9
  Device vendor part ID: 4123

Default device parameters will be used, which may result in lower
performance.  You can edit any of the files specified by the
btl_openib_device_param_files MCA parameter to set values for your
device.

NOTE: You can turn off this warning by setting the MCA parameter
      btl_openib_warn_no_device_params_found to 0.
--------------------------------------------------------------------------
--------------------------------------------------------------------------
WARNING: There was an error initializing an OpenFabrics device.

  Local host:   eu-g1-004-4
  Local device: mlx5_0
--------------------------------------------------------------------------

Timings for individual modules:

Sum of individual times         ...    24291.288 sec (= 404.855 min)
GTO integral calculation        ...       12.306 sec (=   0.205 min)   0.1 %
SCF iterations                  ...      315.387 sec (=   5.256 min)   1.3 %
SCF Gradient evaluation         ...       61.903 sec (=   1.032 min)   0.3 %
Geometry relaxation             ...        3.869 sec (=   0.064 min)   0.0 %
Analytical frequency calculation...    23897.824 sec (= 398.297 min)  98.4 %
                             ****ORCA TERMINATED NORMALLY****
TOTAL RUN TIME: 0 days 6 hours 45 minutes 9 seconds 400 msec
