
                                 *****************
                                 * O   R   C   A *
                                 *****************

           --- An Ab Initio, DFT and Semiempirical electronic structure package ---

                  #######################################################
                  #                        -***-                        #
                  #          Department of theory and spectroscopy      #
                  #               Directorship: Frank Neese             #
                  #        Max Planck Institute fuer Kohlenforschung    #
                  #                Kaiser Wilhelm Platz 1               #
                  #                 D-45470 Muelheim/Ruhr               #
                  #                      Germany                        #
                  #                                                     #
                  #                  All rights reserved                #
                  #                        -***-                        #
                  #######################################################


                         Program Version 4.2.0 -  RELEASE  -


 With contributions from (in alphabetic order):
   Daniel Aravena         : Magnetic Suceptibility
   Michael Atanasov       : Ab Initio Ligand Field Theory (pilot matlab implementation)
   Alexander A. Auer      : GIAO ZORA, VPT2
   Ute Becker             : Parallelization
   Giovanni Bistoni       : ED, misc. LED, open-shell LED, HFLED
   Martin Brehm           : Molecular dynamics
   Dmytro Bykov           : SCF Hessian
   Vijay G. Chilkuri      : MRCI spin determinant printing, contributions to CSF-ICE
   Dipayan Datta          : RHF DLPNO-CCSD density
   Achintya Kumar Dutta   : EOM-CC, STEOM-CC
   Dmitry Ganyushin       : Spin-Orbit,Spin-Spin,Magnetic field MRCI
   Miquel Garcia          : C-PCM Hessian, Gaussian charge scheme
   Yang Guo               : DLPNO-NEVPT2, CIM, IAO-localization
   Andreas Hansen         : Spin unrestricted coupled pair/coupled cluster methods
   Benjamin Helmich-Paris : CASSCF linear response (MC-RPA)
   Lee Huntington         : MR-EOM, pCC
   Robert Izsak           : Overlap fitted RIJCOSX, COSX-SCS-MP3, EOM
   Christian Kollmar      : KDIIS, OOCD, Brueckner-CCSD(T), CCSD density
   Simone Kossmann        : Meta GGA functionals, TD-DFT gradient, OOMP2, MP2 Hessian
   Martin Krupicka        : AUTO-CI
   Lucas Lang             : DCDCAS
   Dagmar Lenk            : GEPOL surface, SMD
   Dimitrios Liakos       : Extrapolation schemes; Compound Job, initial MDCI parallelization
   Dimitrios Manganas     : Further ROCIS development; embedding schemes
   Dimitrios Pantazis     : SARC Basis sets
   Taras Petrenko         : DFT Hessian,TD-DFT gradient, ASA, ECA, R-Raman, ABS, FL, XAS/XES, NRVS
   Peter Pinski           : DLPNO-MP2, DLPNO-MP2 Gradient
   Christoph Reimann      : Effective Core Potentials
   Marius Retegan         : Local ZFS, SOC
   Christoph Riplinger    : Optimizer, TS searches, QM/MM, DLPNO-CCSD(T), (RO)-DLPNO pert. Triples
   Tobias Risthaus        : Range-separated hybrids, TD-DFT gradient, RPA, STAB
   Michael Roemelt        : Original ROCIS implementation
   Masaaki Saitow         : Open-shell DLPNO-CCSD energy and density
   Barbara Sandhoefer     : DKH picture change effects
   Avijit Sen             : IP-ROCIS
   Kantharuban Sivalingam : CASSCF convergence, NEVPT2, FIC-MRCI
   Bernardo de Souza      : ESD, SOC TD-DFT
   Georgi Stoychev        : AutoAux, RI-MP2 NMR
   Willem Van den Heuvel  : Paramagnetic NMR
   Boris Wezisla          : Elementary symmetry handling
   Frank Wennmohs         : Technical directorship


 We gratefully acknowledge several colleagues who have allowed us to
 interface, adapt or use parts of their codes:
   Stefan Grimme, W. Hujo, H. Kruse,             : VdW corrections, initial TS optimization,
                  C. Bannwarth                     DFT functionals, gCP, sTDA/sTD-DF
   Ed Valeev, F. Pavosevic, A. Kumar             : LibInt (2-el integral package), F12 methods
   Garnet Chan, S. Sharma, J. Yang, R. Olivares  : DMRG
   Ulf Ekstrom                                   : XCFun DFT Library
   Mihaly Kallay                                 : mrcc  (arbitrary order and MRCC methods)
   Andreas Klamt, Michael Diedenhofen            : otool_cosmo (COSMO solvation model)
   Jiri Pittner, Ondrej Demel                    : Mk-CCSD
   Frank Weinhold                                : gennbo (NPA and NBO analysis)
   Christopher J. Cramer and Donald G. Truhlar   : smd solvation model
   Lars Goerigk                                  : TD-DFT with DH, B97 family of functionals
   V. Asgeirsson, H. Jonsson                     : NEB implementation
   FAccTs GmbH                                   : IRC, NEB, NEB-TS, Multilevel, MM, QM/MM, CI optimization
   S Lehtola, MJT Oliveira, MAL Marques          : LibXC Library


 Your calculation uses the libint2 library for the computation of 2-el integrals
 For citations please refer to: http://libint.valeyev.net

 Your ORCA version has been built with support for libXC version: 4.2.3
 For citations please refer to: https://tddft.org/programs/libxc/

 This ORCA versions uses:
   CBLAS   interface :  Fast vector & matrix operations
   LAPACKE interface :  Fast linear algebra routines
   SCALAPACK package :  Parallel linear algebra routines




***************************************
The coordinates will be read from file: 19.xyz
***************************************


Your calculation utilizes the atom-pairwise dispersion correction
with the Becke-Johnson damping scheme (D3BJ)
Cite in your paper:
S.Grimme, S.Ehrlich, L.Goerigk, J Comput Chem, (2011), 32, 1456–1465 
S.Grimme, J.Antony, S.Ehrlich and H.Krieg, J.Chem.Phys., 132, (2010), 154104 
   

----- Orbital basis set information -----
Your calculation utilizes the basis: def2-TZVP
   F. Weigend and R. Ahlrichs, Phys. Chem. Chem. Phys. 7, 3297 (2005).

----- AuxJ basis set information -----
Your calculation utilizes the auxiliary basis: def2/J
   F. Weigend, Phys. Chem. Chem. Phys. 8, 1057 (2006).

================================================================================
                                        WARNINGS
                       Please study these warnings very carefully!
================================================================================


WARNING: Geometry Optimization
  ===> : Switching off AutoStart
         For restart on a previous wavefunction, please use MOREAD

INFO   : the flag for use of LIBINT has been found!

================================================================================
                                       INPUT FILE
================================================================================
NAME = 19.inp
|  1> !RI BP86 def2-tzvp def2/J D3BJ VeryTightSCF VeryTightOpt Grid5 FinalGrid6 freq
|  2> %maxcore 4000
|  3> %pal nprocs 24
|  4> end
|  5> * xyzfile 0 1 19.xyz 
|  6> 
|  7>                          ****END OF INPUT****
================================================================================

                       *****************************
                       * Geometry Optimization Run *
                       *****************************

Geometry optimization settings:
Update method            Update   .... BFGS
Choice of coordinates    CoordSys .... Z-matrix Internals
Initial Hessian          InHess   .... Almoef's Model

Convergence Tolerances:
Energy Change            TolE     ....  2.0000e-07 Eh
Max. Gradient            TolMAXG  ....  3.0000e-05 Eh/bohr
RMS Gradient             TolRMSG  ....  8.0000e-06 Eh/bohr
Max. Displacement        TolMAXD  ....  2.0000e-04 bohr
RMS Displacement         TolRMSD  ....  1.0000e-04 bohr
Strict Convergence                ....  False
------------------------------------------------------------------------------
                        ORCA OPTIMIZATION COORDINATE SETUP
------------------------------------------------------------------------------

The optimization will be done in new redundant internal coordinates
Making redundant internal coordinates   ...  (new redundants) done
Evaluating the initial hessian          ...  (Almloef) done
Evaluating the coordinates              ...  done
Calculating the B-matrix                .... done
Calculating the G-matrix                .... done
Diagonalizing the G-matrix              .... done
Small eigenvalue found = 3.682e-04
Small eigenvalue found = 1.308e-03
Small eigenvalue found = 2.529e-03
Small eigenvalue found = 5.019e-03
Small eigenvalue found = 5.327e-03
Small eigenvalue found = 5.931e-03
Small eigenvalue found = 7.503e-03
Small eigenvalue found = 8.962e-03
Small eigenvalue found = 1.101e-02
Small eigenvalue found = 1.211e-02
Small eigenvalue found = 1.379e-02
Small eigenvalue found = 1.621e-02
Small eigenvalue found = 1.667e-02
Small eigenvalue found = 1.912e-02
Small eigenvalue found = 1.921e-02
Small eigenvalue found = 2.204e-02
Small eigenvalue found = 2.656e-02
Small eigenvalue found = 2.905e-02
The first mode is                       ....  327
The number of degrees of freedom        ....  339

    -----------------------------------------------------------------
                    Redundant Internal Coordinates


    -----------------------------------------------------------------
         Definition                    Initial Value    Approx d2E/dq
    -----------------------------------------------------------------
      1. B(C   1,O   0)                  1.2283         1.013659   
      2. B(C   2,C   1)                  1.5411         0.358601   
      3. B(C   3,C   2)                  1.5395         0.360724   
      4. B(C   4,C   3)                  1.5355         0.366082   
      5. B(C   5,C   4)                  1.5339         0.368219   
      6. B(N   6,C   2)                  1.4713         0.415127   
      7. B(N   6,C   5)                  1.4750         0.409510   
      8. B(C   7,N   6)                  1.3602         0.624379   
      9. B(O   8,C   7)                  1.2368         0.982566   
     10. B(N   9,C   1)                  1.3640         0.615755   
     11. B(C  10,N   9)                  1.4499         0.449123   
     12. B(C  11,C  10)                  1.5351         0.366636   
     13. B(N  12,C  11)                  1.3469         0.655578   
     14. B(C  13,N  12)                  1.4666         0.422291   
     15. B(C  14,C  13)                  1.5493         0.348029   
     16. B(N  15,C  14)                  1.3649         0.613629   
     17. B(C  16,N  15)                  1.4503         0.448402   
     18. B(C  17,C  16)                  1.5393         0.361045   
     19. B(C  18,C  17)                  1.5629         0.331029   
     20. B(C  19,C  18)                  1.5376         0.363338   
     21. B(N  20,C  19)                  1.3564         0.633126   
     22. B(C  21,N  20)                  1.4536         0.443018   
     23. B(C  22,C  21)                  1.5329         0.369574   
     24. B(N  23,C  22)                  1.3505         0.646873   
     25. B(C  24,C   7)                  1.5327         0.369920   
     26. B(C  24,N  23)                  1.4541         0.442261   
     27. B(C  25,C  24)                  1.5358         0.365754   
     28. B(O  26,C  22)                  1.2376         0.979697   
     29. B(C  27,C  21)                  1.5439         0.355039   
     30. B(C  28,C  27)                  1.5417         0.357875   
     31. B(C  29,C  28)                  1.5335         0.368814   
     32. B(C  30,C  28)                  1.5336         0.368644   
     33. B(O  31,C  19)                  1.2368         0.982486   
     34. B(C  32,C  18)                  1.5395         0.360720   
     35. B(C  33,C  32)                  1.5033         0.412144   
     36. B(C  34,C  33)                  1.5446         0.354073   
     37. B(C  35,C  34)                  1.5291         0.374864   
     38. B(C  36,C  35)                  1.5295         0.374291   
     39. B(C  37,C  36)                  1.5293         0.374564   
     40. B(C  38,C  37)                  1.5296         0.374083   
     41. B(C  39,C  38)                  1.5294         0.374352   
     42. B(C  40,C  39)                  1.5306         0.372709   
     43. B(C  41,C  40)                  1.5297         0.373919   
     44. B(O  42,C  32)                  1.2289         1.011338   
     45. B(O  43,C  17)                  1.4187         0.503649   
     46. B(O  44,C  14)                  1.2277         1.015672   
     47. B(C  45,C  13)                  1.5231         0.383168   
     48. B(C  46,C  45)                  1.5288         0.375265   
     49. B(O  47,C  11)                  1.2460         0.949634   
     50. B(C  48,C  10)                  1.5560         0.339525   
     51. B(C  49,C  48)                  1.5310         0.372179   
     52. B(C  50,C  48)                  1.5304         0.373007   
     53. B(H  51,C   2)                  1.0973         0.350516   
     54. B(H  52,C   3)                  1.0999         0.347244   
     55. B(H  53,C   3)                  1.0961         0.352091   
     56. B(H  54,C   4)                  1.0997         0.347520   
     57. B(H  55,C   4)                  1.0969         0.351045   
     58. B(H  56,C   5)                  1.0980         0.349617   
     59. B(H  57,C   5)                  1.1027         0.343715   
     60. B(H  58,N   9)                  1.0216         0.414676   
     61. B(H  59,C  10)                  1.1024         0.344007   
     62. B(H  60,N  12)                  1.0167         0.422247   
     63. B(H  61,C  13)                  1.1011         0.345715   
     64. B(H  62,N  15)                  1.0244         0.410341   
     65. B(H  63,C  16)                  1.1009         0.346023   
     66. B(H  64,C  16)                  1.0974         0.350449   
     67. B(H  65,C  17)                  1.1032         0.343083   
     68. B(H  66,C  18)                  1.1062         0.339335   
     69. B(H  67,N  20)                  1.0203         0.416706   
     70. B(H  68,O  47)                  3.0616         0.000231   
     71. B(H  68,C  21)                  1.1002         0.346794   
     72. B(H  69,N  23)                  1.0204         0.416415   
     73. B(H  70,H  62)                  4.9282         0.000000   
     74. B(H  70,C  24)                  1.0992         0.348131   
     75. B(H  71,C  25)                  1.0973         0.350600   
     76. B(H  72,C  25)                  1.0994         0.347867   
     77. B(H  73,C  25)                  1.0980         0.349687   
     78. B(H  74,C  27)                  1.1022         0.344261   
     79. B(H  75,C  27)                  1.1008         0.346091   
     80. B(H  76,C  28)                  1.1055         0.340149   
     81. B(H  77,C  29)                  1.0994         0.347885   
     82. B(H  78,C  29)                  1.1011         0.345696   
     83. B(H  79,C  29)                  1.0997         0.347499   
     84. B(H  80,C  30)                  1.0970         0.350996   
     85. B(H  81,C  30)                  1.0997         0.347466   
     86. B(H  82,C  30)                  1.1013         0.345442   
     87. B(H  83,C  33)                  1.0975         0.350351   
     88. B(H  84,C  33)                  1.1024         0.344037   
     89. B(H  85,C  34)                  1.1018         0.344863   
     90. B(H  86,C  34)                  1.1020         0.344618   
     91. B(H  87,C  35)                  1.1034         0.342754   
     92. B(H  88,C  35)                  1.1026         0.343841   
     93. B(H  89,C  36)                  1.1052         0.340516   
     94. B(H  90,C  36)                  1.1041         0.341926   
     95. B(H  91,C  37)                  1.1039         0.342188   
     96. B(H  92,C  37)                  1.1043         0.341716   
     97. B(H  93,H  78)                  2.3603         0.000648   
     98. B(H  93,C  38)                  1.1045         0.341391   
     99. B(H  94,C  38)                  1.1041         0.341893   
    100. B(H  95,C  39)                  1.1044         0.341512   
    101. B(H  96,C  39)                  1.1045         0.341463   
    102. B(H  97,C  40)                  1.1035         0.342631   
    103. B(H  98,C  40)                  1.1034         0.342839   
    104. B(H  99,C  41)                  1.0995         0.347809   
    105. B(H 100,C  41)                  1.1008         0.346154   
    106. B(H 101,C  41)                  1.1007         0.346208   
    107. B(H 102,O  43)                  0.9858         0.472980   
    108. B(H 103,H  88)                  4.1972         0.000001   
    109. B(H 103,C  45)                  1.0975         0.350295   
    110. B(H 104,C  45)                  1.1030         0.343296   
    111. B(H 105,C  46)                  1.0985         0.349041   
    112. B(H 106,H  76)                  4.4759         0.000000   
    113. B(H 106,C  46)                  1.1000         0.347054   
    114. B(H 107,C  46)                  1.1001         0.346984   
    115. B(H 108,C  48)                  1.1045         0.341376   
    116. B(H 109,H  65)                  4.2569         0.000001   
    117. B(H 109,C  49)                  1.0991         0.348231   
    118. B(H 110,C  49)                  1.0987         0.348822   
    119. B(H 111,C  49)                  1.1004         0.346647   
    120. B(H 112,C  50)                  1.0979         0.349791   
    121. B(H 113,C  50)                  1.0994         0.347826   
    122. B(H 114,C  50)                  1.0992         0.348137   
    123. A(O   0,C   1,N   9)          124.3031         0.467768   
    124. A(C   2,C   1,N   9)          115.5688         0.390870   
    125. A(O   0,C   1,C   2)          120.0704         0.426924   
    126. A(C   1,C   2,H  51)          105.2045         0.320731   
    127. A(N   6,C   2,H  51)          110.2647         0.326566   
    128. A(C   1,C   2,N   6)          113.7833         0.365099   
    129. A(C   1,C   2,C   3)          111.8376         0.358678   
    130. A(C   3,C   2,H  51)          112.8474         0.321041   
    131. A(C   3,C   2,N   6)          103.1262         0.365468   
    132. A(C   4,C   3,H  53)          113.8977         0.322053   
    133. A(C   4,C   3,H  52)          110.4856         0.321323   
    134. A(C   2,C   3,C   4)          103.3150         0.359941   
    135. A(C   2,C   3,H  53)          111.5106         0.321276   
    136. A(C   2,C   3,H  52)          109.4974         0.320549   
    137. A(H  52,C   3,H  53)          108.0561         0.288169   
    138. A(H  54,C   4,H  55)          108.0558         0.288071   
    139. A(C   3,C   4,H  55)          113.3264         0.321896   
    140. A(C   3,C   4,C   5)          103.3726         0.361205   
    141. A(C   3,C   4,H  54)          110.0980         0.321364   
    142. A(C   5,C   4,H  55)          112.1382         0.322203   
    143. A(C   5,C   4,H  54)          109.7916         0.321671   
    144. A(H  56,C   5,H  57)          108.0754         0.287392   
    145. A(C   4,C   5,N   6)          103.0805         0.365903   
    146. A(C   4,C   5,H  56)          112.6948         0.321988   
    147. A(N   6,C   5,H  57)          110.4234         0.324786   
    148. A(N   6,C   5,H  56)          111.2480         0.325697   
    149. A(C   4,C   5,H  57)          111.3015         0.321092   
    150. A(C   5,N   6,C   7)          127.8023         0.398491   
    151. A(C   2,N   6,C   7)          119.5858         0.399447   
    152. A(C   2,N   6,C   5)          112.6117         0.371180   
    153. A(O   8,C   7,C  24)          120.3563         0.426918   
    154. A(N   6,C   7,O   8)          121.8428         0.466292   
    155. A(N   6,C   7,C  24)          117.7987         0.393959   
    156. A(C   1,N   9,C  10)          121.5775         0.404034   
    157. A(C  10,N   9,H  58)          112.5976         0.337287   
    158. A(C   1,N   9,H  58)          117.6533         0.355668   
    159. A(C  48,C  10,H  59)          108.3751         0.316913   
    160. A(C  11,C  10,H  59)          110.5082         0.320910   
    161. A(N   9,C  10,C  11)          106.4501         0.371475   
    162. A(N   9,C  10,C  48)          113.0753         0.366606   
    163. A(N   9,C  10,H  59)          107.4202         0.329812   
    164. A(C  11,C  10,C  48)          110.9568         0.356344   
    165. A(N  12,C  11,O  47)          122.7647         0.467547   
    166. A(C  10,C  11,O  47)          121.1514         0.423644   
    167. A(C  10,C  11,N  12)          116.0324         0.396722   
    168. A(C  13,N  12,H  60)          117.4368         0.334853   
    169. A(C  11,N  12,C  13)          124.0533         0.404109   
    170. A(C  11,N  12,H  60)          118.4578         0.360587   
    171. A(C  14,C  13,C  45)          112.1179         0.360542   
    172. A(N  12,C  13,H  61)          106.7139         0.326744   
    173. A(C  14,C  13,H  61)          105.8408         0.318449   
    174. A(N  12,C  13,C  14)          111.7273         0.364299   
    175. A(C  45,C  13,H  61)          109.4965         0.323499   
    176. A(N  12,C  13,C  45)          110.6673         0.370359   
    177. A(C  13,C  14,N  15)          112.9890         0.388598   
    178. A(N  15,C  14,O  44)          124.2998         0.467642   
    179. A(C  13,C  14,O  44)          122.7052         0.424793   
    180. A(C  14,N  15,H  62)          116.8425         0.354826   
    181. A(C  16,N  15,H  62)          119.5120         0.336607   
    182. A(C  14,N  15,C  16)          122.2161         0.403673   
    183. A(H  63,C  16,H  64)          108.1781         0.287800   
    184. A(C  17,C  16,H  64)          110.6396         0.321077   
    185. A(N  15,C  16,H  63)          110.8922         0.330043   
    186. A(C  17,C  16,H  63)          107.2244         0.320411   
    187. A(N  15,C  16,C  17)          112.5556         0.370392   
    188. A(N  15,C  16,H  64)          107.2931         0.330738   
    189. A(O  43,C  17,H  65)          105.9712         0.335989   
    190. A(C  18,C  17,H  65)          107.1609         0.315471   
    191. A(C  16,C  17,H  65)          108.1126         0.319964   
    192. A(C  16,C  17,C  18)          114.2440         0.353892   
    193. A(C  18,C  17,O  43)          110.6661         0.372270   
    194. A(C  16,C  17,O  43)          110.2702         0.377890   
    195. A(C  19,C  18,H  66)          106.2360         0.319721   
    196. A(C  17,C  18,H  66)          103.6627         0.314909   
    197. A(C  17,C  18,C  32)          112.2627         0.353838   
    198. A(C  17,C  18,C  19)          113.0417         0.354272   
    199. A(C  19,C  18,C  32)          116.2763         0.359479   
    200. A(C  32,C  18,H  66)          103.8659         0.319344   
    201. A(C  18,C  19,N  20)          113.4021         0.393680   
    202. A(N  20,C  19,O  31)          121.4653         0.467475   
    203. A(C  18,C  19,O  31)          125.1317         0.425541   
    204. A(C  19,N  20,H  67)          122.6717         0.357649   
    205. A(C  19,N  20,C  21)          122.2202         0.405043   
    206. A(C  21,N  20,H  67)          114.8434         0.336792   
    207. A(C  27,C  21,H  68)          108.5635         0.319650   
    208. A(C  22,C  21,H  68)          109.7889         0.321754   
    209. A(N  20,C  21,H  68)          107.5912         0.329506   
    210. A(N  20,C  21,C  22)          105.6858         0.371111   
    211. A(C  22,C  21,C  27)          114.6225         0.359549   
    212. A(N  20,C  21,C  27)          110.3608         0.368560   
    213. A(C  21,C  22,N  23)          115.3283         0.396347   
    214. A(C  21,C  22,O  26)          121.0659         0.426622   
    215. A(N  23,C  22,O  26)          123.6051         0.469075   
    216. A(C  22,N  23,C  24)          122.1298         0.406460   
    217. A(C  24,N  23,H  69)          114.3015         0.336657   
    218. A(C  22,N  23,H  69)          120.9165         0.358916   
    219. A(C  25,C  24,H  70)          109.1035         0.321410   
    220. A(N  23,C  24,H  70)          107.1028         0.329623   
    221. A(C   7,C  24,H  70)          111.6813         0.322006   
    222. A(N  23,C  24,C  25)          112.7437         0.370339   
    223. A(C   7,C  24,N  23)          105.5541         0.371061   
    224. A(C   7,C  24,C  25)          110.6026         0.361434   
    225. A(H  71,C  25,H  73)          109.2118         0.288294   
    226. A(C  24,C  25,H  73)          110.1686         0.321644   
    227. A(H  71,C  25,H  72)          108.3454         0.288058   
    228. A(C  24,C  25,H  72)          110.9023         0.321370   
    229. A(C  24,C  25,H  71)          109.5276         0.321782   
    230. A(H  72,C  25,H  73)          108.6433         0.287941   
    231. A(C  28,C  27,H  75)          109.7712         0.319959   
    232. A(C  21,C  27,C  28)          115.7796         0.357587   
    233. A(H  74,C  27,H  75)          106.9295         0.287009   
    234. A(C  21,C  27,H  75)          105.1250         0.319544   
    235. A(C  28,C  27,H  74)          110.1785         0.319683   
    236. A(C  21,C  27,H  74)          108.6086         0.319268   
    237. A(C  29,C  28,C  30)          110.3822         0.361735   
    238. A(C  27,C  28,C  30)          111.9750         0.359882   
    239. A(C  27,C  28,C  29)          110.4134         0.359911   
    240. A(C  30,C  28,H  76)          108.2935         0.320605   
    241. A(C  29,C  28,H  76)          107.4725         0.320629   
    242. A(C  27,C  28,H  76)          108.1485         0.319056   
    243. A(C  28,C  29,H  79)          111.3110         0.321753   
    244. A(H  78,C  29,H  79)          107.6381         0.287377   
    245. A(H  77,C  29,H  79)          108.1259         0.287661   
    246. A(H  77,C  29,H  78)          107.6645         0.287427   
    247. A(C  28,C  29,H  78)          110.6086         0.321479   
    248. A(C  28,C  29,H  77)          111.3332         0.321811   
    249. A(H  81,C  30,H  82)          107.8099         0.287340   
    250. A(H  80,C  30,H  82)          107.7972         0.287794   
    251. A(C  28,C  30,H  82)          110.0798         0.321416   
    252. A(H  80,C  30,H  81)          107.8325         0.288057   
    253. A(C  28,C  30,H  81)          111.0768         0.321723   
    254. A(C  28,C  30,H  80)          112.0832         0.322256   
    255. A(C  33,C  32,O  42)          121.8100         0.437556   
    256. A(C  18,C  32,O  42)          119.0264         0.427199   
    257. A(C  18,C  32,C  33)          119.1004         0.367307   
    258. A(C  32,C  33,C  34)          113.8205         0.366137   
    259. A(C  34,C  33,H  84)          108.5534         0.319092   
    260. A(H  83,C  33,H  84)          108.8155         0.287528   
    261. A(C  32,C  33,H  84)          105.3149         0.327138   
    262. A(C  34,C  33,H  83)          112.1571         0.320041   
    263. A(C  32,C  33,H  83)          107.8696         0.328120   
    264. A(C  33,C  34,C  35)          113.2090         0.360254   
    265. A(H  85,C  34,H  86)          105.6238         0.286896   
    266. A(C  35,C  34,H  86)          110.6799         0.322172   
    267. A(C  33,C  34,H  86)          109.3355         0.319179   
    268. A(C  35,C  34,H  85)          107.4754         0.322209   
    269. A(C  33,C  34,H  85)          110.2317         0.319217   
    270. A(C  34,C  35,C  36)          112.7615         0.363684   
    271. A(H  87,C  35,H  88)          106.5830         0.286520   
    272. A(C  36,C  35,H  88)          109.2223         0.321972   
    273. A(C  34,C  35,H  88)          107.7965         0.322052   
    274. A(C  36,C  35,H  87)          110.1244         0.321805   
    275. A(C  34,C  35,H  87)          110.1328         0.321886   
    276. A(C  35,C  36,C  37)          113.5031         0.363635   
    277. A(H  89,C  36,H  90)          105.8670         0.285978   
    278. A(C  37,C  36,H  90)          109.7517         0.321716   
    279. A(C  35,C  36,H  90)          110.0492         0.321677   
    280. A(C  37,C  36,H  89)          108.6582         0.321498   
    281. A(C  35,C  36,H  89)          108.7123         0.321460   
    282. A(C  36,C  37,C  38)          113.3912         0.363600   
    283. A(H  91,C  37,H  92)          105.8549         0.286170   
    284. A(C  38,C  37,H  92)          109.0949         0.321616   
    285. A(C  36,C  37,H  92)          108.7828         0.321684   
    286. A(C  38,C  37,H  91)          109.6371         0.321689   
    287. A(C  36,C  37,H  91)          109.7975         0.321756   
    288. A(C  37,C  38,C  39)          113.5617         0.363565   
    289. A(H  93,C  38,H  94)          105.8135         0.286089   
    290. A(C  39,C  38,H  94)          109.5781         0.321681   
    291. A(C  37,C  38,H  94)          109.5467         0.321643   
    292. A(C  39,C  38,H  93)          109.0589         0.321604   
    293. A(C  37,C  38,H  93)          108.9881         0.321566   
    294. A(C  38,C  39,C  40)          113.5598         0.363337   
    295. A(H  95,C  39,H  96)          105.9042         0.286048   
    296. A(C  40,C  39,H  96)          109.1439         0.321383   
    297. A(C  38,C  39,H  96)          109.0862         0.321615   
    298. A(C  40,C  39,H  95)          109.3764         0.321391   
    299. A(C  38,C  39,H  95)          109.4856         0.321622   
    300. A(C  39,C  40,C  41)          113.1312         0.363265   
    301. A(H  97,C  40,H  98)          105.9479         0.286374   
    302. A(C  41,C  40,H  98)          109.6726         0.321766   
    303. A(C  39,C  40,H  98)          109.2059         0.321595   
    304. A(C  41,C  40,H  97)          109.6141         0.321734   
    305. A(C  39,C  40,H  97)          109.0147         0.321563   
    306. A(H 100,C  41,H 101)          107.4371         0.287270   
    307. A(H  99,C  41,H 101)          107.6891         0.287484   
    308. A(C  40,C  41,H 101)          111.0950         0.322281   
    309. A(H  99,C  41,H 100)          107.6996         0.287477   
    310. A(C  40,C  41,H 100)          111.0539         0.322273   
    311. A(C  40,C  41,H  99)          111.6744         0.322525   
    312. A(C  17,O  43,H 102)          103.9559         0.351511   
    313. A(C  13,C  45,C  46)          112.8257         0.365213   
    314. A(C  46,C  45,H 104)          111.1893         0.322025   
    315. A(C  13,C  45,H 104)          109.2671         0.323127   
    316. A(C  46,C  45,H 103)          110.8122         0.323092   
    317. A(C  13,C  45,H 103)          106.9550         0.324199   
    318. A(H 103,C  45,H 104)          105.4452         0.287424   
    319. A(H 106,C  46,H 107)          107.4394         0.287487   
    320. A(H 105,C  46,H 107)          107.5968         0.287743   
    321. A(C  45,C  46,H 107)          112.1451         0.322590   
    322. A(H 105,C  46,H 106)          107.7902         0.287752   
    323. A(C  45,C  46,H 106)          110.7401         0.322600   
    324. A(C  45,C  46,H 105)          110.9384         0.322902   
    325. A(C  50,C  48,H 108)          108.2027         0.321412   
    326. A(C  49,C  48,H 108)          108.2372         0.321295   
    327. A(C  10,C  48,H 108)          106.3346         0.316517   
    328. A(C  49,C  48,C  50)          111.7064         0.363025   
    329. A(C  10,C  48,C  50)          110.2475         0.357388   
    330. A(C  10,C  48,C  49)          111.8780         0.357253   
    331. A(H 110,C  49,H 111)          107.7300         0.287671   
    332. A(H 109,C  49,H 111)          108.2173         0.287595   
    333. A(C  48,C  49,H 111)          110.5972         0.322102   
    334. A(H 109,C  49,H 110)          107.7916         0.287877   
    335. A(C  48,C  49,H 110)          110.3954         0.322432   
    336. A(C  48,C  49,H 109)          111.9615         0.322343   
    337. A(H 113,C  50,H 114)          107.9653         0.287736   
    338. A(H 112,C  50,H 114)          108.8318         0.287989   
    339. A(C  48,C  50,H 114)          110.2826         0.322446   
    340. A(H 112,C  50,H 113)          107.4038         0.287949   
    341. A(C  48,C  50,H 113)          110.4894         0.322399   
    342. A(C  48,C  50,H 112)          111.7447         0.322696   
    343. D(H  51,C   2,C   1,N   9)   -137.7332         0.009676   
    344. D(C   3,C   2,C   1,N   9)     99.4212         0.009676   
    345. D(N   6,C   2,C   1,N   9)    -16.9358         0.009676   
    346. D(N   6,C   2,C   1,O   0)    165.7082         0.009676   
    347. D(C   3,C   2,C   1,O   0)    -77.9349         0.009676   
    348. D(H  51,C   2,C   1,O   0)     44.9107         0.009676   
    349. D(C   4,C   3,C   2,N   6)     30.3834         0.010436   
    350. D(H  53,C   3,C   2,H  51)    -87.9239         0.010436   
    351. D(H  53,C   3,C   2,C   1)     30.4638         0.010436   
    352. D(C   4,C   3,C   2,H  51)    149.3422         0.010436   
    353. D(H  53,C   3,C   2,N   6)    153.1173         0.010436   
    354. D(H  52,C   3,C   2,H  51)     31.6118         0.010436   
    355. D(C   4,C   3,C   2,C   1)    -92.2700         0.010436   
    356. D(H  52,C   3,C   2,C   1)    149.9995         0.010436   
    357. D(H  52,C   3,C   2,N   6)    -87.3470         0.010436   
    358. D(H  55,C   4,C   3,H  53)     78.7936         0.010728   
    359. D(H  55,C   4,C   3,H  52)    -43.0388         0.010728   
    360. D(H  54,C   4,C   3,H  52)   -164.1837         0.010728   
    361. D(H  55,C   4,C   3,C   2)   -160.0752         0.010728   
    362. D(H  54,C   4,C   3,H  53)    -42.3512         0.010728   
    363. D(C   5,C   4,C   3,C   2)    -38.4518         0.010728   
    364. D(H  54,C   4,C   3,C   2)     78.7800         0.010728   
    365. D(C   5,C   4,C   3,H  53)   -159.5829         0.010728   
    366. D(C   5,C   4,C   3,H  52)     78.5846         0.010728   
    367. D(N   6,C   5,C   4,C   3)     31.1551         0.010845   
    368. D(H  57,C   5,C   4,C   3)    -87.2118         0.010845   
    369. D(H  56,C   5,C   4,H  55)    -86.3954         0.010845   
    370. D(H  56,C   5,C   4,C   3)    151.1851         0.010845   
    371. D(H  57,C   5,C   4,H  54)    155.3414         0.010845   
    372. D(H  56,C   5,C   4,H  54)     33.7383         0.010845   
    373. D(H  57,C   5,C   4,H  55)     35.2076         0.010845   
    374. D(N   6,C   5,C   4,H  54)    -86.2917         0.010845   
    375. D(N   6,C   5,C   4,H  55)    153.5746         0.010845   
    376. D(C   5,N   6,C   2,C   3)    -11.2632         0.014697   
    377. D(C   7,N   6,C   5,H  57)    -73.3965         0.014307   
    378. D(C   7,N   6,C   5,H  56)     46.6046         0.014307   
    379. D(C   7,N   6,C   5,C   4)    167.6247         0.014307   
    380. D(C   2,N   6,C   5,H  57)    106.4578         0.014307   
    381. D(C   2,N   6,C   5,H  56)   -133.5411         0.014307   
    382. D(C   7,N   6,C   2,H  51)     47.8673         0.014697   
    383. D(C   2,N   6,C   5,C   4)    -12.5211         0.014307   
    384. D(C   7,N   6,C   2,C   3)    168.6043         0.014697   
    385. D(C   5,N   6,C   2,C   1)    110.0805         0.014697   
    386. D(C   7,N   6,C   2,C   1)    -70.0519         0.014697   
    387. D(C   5,N   6,C   2,H  51)   -132.0002         0.014697   
    388. D(C  24,C   7,N   6,C   5)     -0.3458         0.031603   
    389. D(C  24,C   7,N   6,C   2)    179.8089         0.031603   
    390. D(O   8,C   7,N   6,C   5)   -179.8001         0.031603   
    391. D(O   8,C   7,N   6,C   2)      0.3546         0.031603   
    392. D(H  58,N   9,C   1,O   0)   -164.4431         0.030669   
    393. D(C  10,N   9,C   1,C   2)    164.5567         0.030669   
    394. D(H  58,N   9,C   1,C   2)     18.3268         0.030669   
    395. D(C  10,N   9,C   1,O   0)    -18.2133         0.030669   
    396. D(H  59,C  10,N   9,C   1)    -11.7093         0.017207   
    397. D(C  48,C  10,N   9,H  58)   -104.4141         0.017207   
    398. D(C  48,C  10,N   9,C   1)    107.8154         0.017207   
    399. D(C  11,C  10,N   9,C   1)   -130.1011         0.017207   
    400. D(H  59,C  10,N   9,H  58)    136.0612         0.017207   
    401. D(C  11,C  10,N   9,H  58)     17.6694         0.017207   
    402. D(O  47,C  11,C  10,N   9)    -16.6362         0.010080   
    403. D(N  12,C  11,C  10,H  59)     49.5639         0.010080   
    404. D(N  12,C  11,C  10,C  48)    -70.6792         0.010080   
    405. D(N  12,C  11,C  10,N   9)    165.9055         0.010080   
    406. D(O  47,C  11,C  10,H  59)   -132.9778         0.010080   
    407. D(O  47,C  11,C  10,C  48)    106.7791         0.010080   
    408. D(H  60,N  12,C  11,O  47)   -176.4856         0.035127   
    409. D(H  60,N  12,C  11,C  10)      0.9277         0.035127   
    410. D(C  13,N  12,C  11,O  47)      0.8164         0.035127   
    411. D(C  13,N  12,C  11,C  10)    178.2296         0.035127   
    412. D(H  61,C  13,N  12,C  11)     31.9099         0.015205   
    413. D(H  61,C  13,N  12,H  60)   -150.7627         0.015205   
    414. D(C  45,C  13,N  12,H  60)    -31.7038         0.015205   
    415. D(C  45,C  13,N  12,C  11)    150.9689         0.015205   
    416. D(C  14,C  13,N  12,C  11)    -83.3335         0.015205   
    417. D(C  14,C  13,N  12,H  60)     93.9939         0.015205   
    418. D(O  44,C  14,C  13,C  45)      1.8012         0.009162   
    419. D(O  44,C  14,C  13,N  12)   -123.0937         0.009162   
    420. D(N  15,C  14,C  13,H  61)    -58.0188         0.009162   
    421. D(N  15,C  14,C  13,C  45)   -177.3463         0.009162   
    422. D(O  44,C  14,C  13,H  61)    121.1287         0.009162   
    423. D(N  15,C  14,C  13,N  12)     57.7588         0.009162   
    424. D(H  62,N  15,C  14,O  44)   -174.1467         0.030442   
    425. D(H  62,N  15,C  14,C  13)      4.9849         0.030442   
    426. D(C  16,N  15,C  14,O  44)     -7.8719         0.030442   
    427. D(C  16,N  15,C  14,C  13)    171.2598         0.030442   
    428. D(H  64,C  16,N  15,H  62)    174.8669         0.017151   
    429. D(H  64,C  16,N  15,C  14)      8.9461         0.017151   
    430. D(H  63,C  16,N  15,H  62)    -67.1913         0.017151   
    431. D(H  63,C  16,N  15,C  14)    126.8879         0.017151   
    432. D(C  17,C  16,N  15,C  14)   -112.9964         0.017151   
    433. D(C  17,C  16,N  15,H  62)     52.9245         0.017151   
    434. D(H  65,C  17,C  16,H  64)   -179.3582         0.010454   
    435. D(H  65,C  17,C  16,H  63)     62.8802         0.010454   
    436. D(H  65,C  17,C  16,N  15)    -59.3313         0.010454   
    437. D(O  43,C  17,C  16,H  64)     65.2115         0.010454   
    438. D(O  43,C  17,C  16,H  63)    -52.5502         0.010454   
    439. D(O  43,C  17,C  16,N  15)   -174.7617         0.010454   
    440. D(C  18,C  17,C  16,H  64)    -60.1640         0.010454   
    441. D(C  18,C  17,C  16,H  63)   -177.9256         0.010454   
    442. D(C  18,C  17,C  16,N  15)     59.8629         0.010454   
    443. D(H  66,C  18,C  17,H  65)    -66.3281         0.008918   
    444. D(H  66,C  18,C  17,O  43)     48.7756         0.008918   
    445. D(H  66,C  18,C  17,C  16)    173.9421         0.008918   
    446. D(C  32,C  18,C  17,O  43)    -62.6939         0.008918   
    447. D(C  32,C  18,C  17,C  16)     62.4727         0.008918   
    448. D(C  32,C  18,C  17,H  65)   -177.7975         0.008918   
    449. D(C  19,C  18,C  17,H  65)     48.2588         0.008918   
    450. D(C  19,C  18,C  17,O  43)    163.3625         0.008918   
    451. D(C  19,C  18,C  17,C  16)    -71.4709         0.008918   
    452. D(O  31,C  19,C  18,H  66)   -136.8641         0.009913   
    453. D(O  31,C  19,C  18,C  32)    -21.8942         0.009913   
    454. D(O  31,C  19,C  18,C  17)    110.1063         0.009913   
    455. D(N  20,C  19,C  18,H  66)     43.4826         0.009913   
    456. D(N  20,C  19,C  18,C  17)    -69.5470         0.009913   
    457. D(N  20,C  19,C  18,C  32)    158.4526         0.009913   
    458. D(H  67,N  20,C  19,O  31)   -177.1198         0.032568   
    459. D(H  67,N  20,C  19,C  18)      2.5478         0.032568   
    460. D(C  21,N  20,C  19,O  31)     -3.3370         0.032568   
    461. D(C  21,N  20,C  19,C  18)    176.3305         0.032568   
    462. D(H  68,C  21,N  20,H  67)    144.0109         0.016737   
    463. D(H  68,C  21,N  20,C  19)    -30.2234         0.016737   
    464. D(C  27,C  21,N  20,H  67)    -97.7018         0.016737   
    465. D(C  27,C  21,N  20,C  19)     88.0638         0.016737   
    466. D(C  22,C  21,N  20,H  67)     26.7569         0.016737   
    467. D(C  22,C  21,N  20,C  19)   -147.4775         0.016737   
    468. D(N  23,C  22,C  21,C  27)    -92.1991         0.010230   
    469. D(N  23,C  22,C  21,N  20)    146.0492         0.010230   
    470. D(O  26,C  22,C  21,H  68)   -149.4036         0.010230   
    471. D(O  26,C  22,C  21,C  27)     88.1114         0.010230   
    472. D(O  26,C  22,C  21,N  20)    -33.6403         0.010230   
    473. D(N  23,C  22,C  21,H  68)     30.2859         0.010230   
    474. D(H  69,N  23,C  22,O  26)    170.0935         0.034121   
    475. D(H  69,N  23,C  22,C  21)     -9.5871         0.034121   
    476. D(C  24,N  23,C  22,O  26)      9.6078         0.034121   
    477. D(C  24,N  23,C  22,C  21)   -170.0729         0.034121   
    478. D(H  70,C  24,N  23,H  69)   -136.0671         0.016680   
    479. D(H  70,C  24,N  23,C  22)     25.6057         0.016680   
    480. D(C  25,C  24,N  23,H  69)    103.9147         0.016680   
    481. D(C  25,C  24,N  23,C  22)    -94.4125         0.016680   
    482. D(C   7,C  24,N  23,H  69)    -16.9318         0.016680   
    483. D(C   7,C  24,N  23,C  22)    144.7411         0.016680   
    484. D(H  70,C  24,C   7,O   8)    148.7752         0.010248   
    485. D(H  70,C  24,C   7,N   6)    -30.6876         0.010248   
    486. D(C  25,C  24,C   7,O   8)    -89.5085         0.010248   
    487. D(C  25,C  24,C   7,N   6)     91.0287         0.010248   
    488. D(N  23,C  24,C   7,O   8)     32.7244         0.010248   
    489. D(N  23,C  24,C   7,N   6)   -146.7384         0.010248   
    490. D(H  73,C  25,C  24,H  70)   -178.8060         0.010710   
    491. D(H  73,C  25,C  24,N  23)    -59.9468         0.010710   
    492. D(H  73,C  25,C  24,C   7)     57.9716         0.010710   
    493. D(H  72,C  25,C  24,H  70)     60.8742         0.010710   
    494. D(H  72,C  25,C  24,N  23)    179.7334         0.010710   
    495. D(H  72,C  25,C  24,C   7)    -62.3482         0.010710   
    496. D(H  71,C  25,C  24,H  70)    -58.6589         0.010710   
    497. D(H  71,C  25,C  24,N  23)     60.2003         0.010710   
    498. D(H  71,C  25,C  24,C   7)    178.1186         0.010710   
    499. D(H  75,C  27,C  21,H  68)     61.8862         0.010133   
    500. D(H  75,C  27,C  21,C  22)   -174.9680         0.010133   
    501. D(H  75,C  27,C  21,N  20)    -55.8040         0.010133   
    502. D(H  74,C  27,C  21,H  68)    176.0465         0.010133   
    503. D(H  74,C  27,C  21,C  22)    -60.8076         0.010133   
    504. D(H  74,C  27,C  21,N  20)     58.3564         0.010133   
    505. D(C  28,C  27,C  21,H  68)    -59.4244         0.010133   
    506. D(C  28,C  27,C  21,C  22)     63.7215         0.010133   
    507. D(C  28,C  27,C  21,N  20)   -177.1145         0.010133   
    508. D(H  76,C  28,C  27,H  75)    -90.7963         0.010284   
    509. D(H  76,C  28,C  27,H  74)    151.7023         0.010284   
    510. D(H  76,C  28,C  27,C  21)     27.9889         0.010284   
    511. D(C  30,C  28,C  27,H  75)    149.9639         0.010284   
    512. D(C  30,C  28,C  27,H  74)     32.4625         0.010284   
    513. D(C  30,C  28,C  27,C  21)    -91.2509         0.010284   
    514. D(C  29,C  28,C  27,H  75)     26.5347         0.010284   
    515. D(C  29,C  28,C  27,H  74)    -90.9667         0.010284   
    516. D(C  29,C  28,C  27,C  21)    145.3198         0.010284   
    517. D(H  79,C  29,C  28,C  30)     55.5433         0.010878   
    518. D(H  79,C  29,C  28,C  27)    179.8913         0.010878   
    519. D(H  78,C  29,C  28,H  76)    178.0232         0.010878   
    520. D(H  78,C  29,C  28,C  30)    -64.0723         0.010878   
    521. D(H  78,C  29,C  28,C  27)     60.2757         0.010878   
    522. D(H  77,C  29,C  28,H  76)     58.3600         0.010878   
    523. D(H  77,C  29,C  28,C  30)    176.2644         0.010878   
    524. D(H  79,C  29,C  28,H  76)    -62.3612         0.010878   
    525. D(H  77,C  29,C  28,C  27)    -59.3875         0.010878   
    526. D(H  82,C  30,C  28,H  76)    175.8068         0.010869   
    527. D(H  82,C  30,C  28,C  29)     58.4080         0.010869   
    528. D(H  82,C  30,C  28,C  27)    -65.0388         0.010869   
    529. D(H  81,C  30,C  28,H  76)     56.4736         0.010869   
    530. D(H  81,C  30,C  28,C  29)    -60.9252         0.010869   
    531. D(H  81,C  30,C  28,C  27)    175.6280         0.010869   
    532. D(H  80,C  30,C  28,H  76)    -64.2261         0.010869   
    533. D(H  80,C  30,C  28,C  29)    178.3751         0.010869   
    534. D(H  80,C  30,C  28,C  27)     54.9283         0.010869   
    535. D(O  42,C  32,C  18,H  66)    -85.3351         0.009781   
    536. D(O  42,C  32,C  18,C  19)    158.3666         0.009781   
    537. D(O  42,C  32,C  18,C  17)     26.0073         0.009781   
    538. D(C  33,C  32,C  18,H  66)     91.8262         0.009781   
    539. D(C  33,C  32,C  18,C  19)    -24.4720         0.009781   
    540. D(C  33,C  32,C  18,C  17)   -156.8313         0.009781   
    541. D(H  84,C  33,C  32,O  42)   -114.2286         0.012576   
    542. D(H  84,C  33,C  32,C  18)     68.6922         0.012576   
    543. D(H  83,C  33,C  32,O  42)      1.8521         0.012576   
    544. D(H  83,C  33,C  32,C  18)   -175.2270         0.012576   
    545. D(C  34,C  33,C  32,O  42)    126.9866         0.012576   
    546. D(C  34,C  33,C  32,C  18)    -50.0926         0.012576   
    547. D(H  86,C  34,C  33,H  84)    155.3002         0.010082   
    548. D(H  86,C  34,C  33,H  83)     35.0349         0.010082   
    549. D(H  86,C  34,C  33,C  32)    -87.7814         0.010082   
    550. D(H  85,C  34,C  33,H  84)    -89.0092         0.010082   
    551. D(H  85,C  34,C  33,H  83)    150.7255         0.010082   
    552. D(H  85,C  34,C  33,C  32)     27.9091         0.010082   
    553. D(C  35,C  34,C  33,H  84)     31.4055         0.010082   
    554. D(C  35,C  34,C  33,H  83)    -88.8598         0.010082   
    555. D(C  35,C  34,C  33,C  32)    148.3239         0.010082   
    556. D(H  88,C  35,C  34,H  86)   -176.7193         0.011216   
    557. D(H  88,C  35,C  34,H  85)     68.4060         0.011216   
    558. D(H  88,C  35,C  34,C  33)    -53.5635         0.011216   
    559. D(H  87,C  35,C  34,H  86)    -60.8111         0.011216   
    560. D(H  87,C  35,C  34,H  85)   -175.6857         0.011216   
    561. D(H  87,C  35,C  34,C  33)     62.3447         0.011216   
    562. D(C  36,C  35,C  34,H  86)     62.6392         0.011216   
    563. D(C  36,C  35,C  34,H  85)    -52.2355         0.011216   
    564. D(C  36,C  35,C  34,C  33)   -174.2050         0.011216   
    565. D(H  90,C  36,C  35,H  87)     59.0381         0.011184   
    566. D(H  90,C  36,C  35,C  34)    -64.4168         0.011184   
    567. D(H  89,C  36,C  35,H  88)    -68.7145         0.011184   
    568. D(H  89,C  36,C  35,H  87)    174.5627         0.011184   
    569. D(H  89,C  36,C  35,C  34)     51.1079         0.011184   
    570. D(C  37,C  36,C  35,H  88)     52.3255         0.011184   
    571. D(C  37,C  36,C  35,H  87)    -64.3972         0.011184   
    572. D(H  90,C  36,C  35,H  88)    175.7608         0.011184   
    573. D(C  37,C  36,C  35,C  34)    172.1479         0.011184   
    574. D(H  92,C  37,C  36,H  90)   -179.0326         0.011199   
    575. D(H  92,C  37,C  36,H  89)     65.6357         0.011199   
    576. D(H  92,C  37,C  36,C  35)    -55.4347         0.011199   
    577. D(H  91,C  37,C  36,H  90)    -63.6208         0.011199   
    578. D(H  91,C  37,C  36,H  89)   -178.9525         0.011199   
    579. D(H  91,C  37,C  36,C  35)     59.9771         0.011199   
    580. D(C  38,C  37,C  36,H  90)     59.3944         0.011199   
    581. D(C  38,C  37,C  36,H  89)    -55.9373         0.011199   
    582. D(C  38,C  37,C  36,C  35)   -177.0077         0.011199   
    583. D(H  94,C  38,C  37,H  92)    175.5468         0.011172   
    584. D(H  94,C  38,C  37,H  91)     60.0485         0.011172   
    585. D(H  94,C  38,C  37,C  36)    -63.0550         0.011172   
    586. D(H  93,C  38,C  37,H  92)    -69.1138         0.011172   
    587. D(H  93,C  38,C  37,H  91)    175.3878         0.011172   
    588. D(H  93,C  38,C  37,C  36)     52.2843         0.011172   
    589. D(C  39,C  38,C  37,H  92)     52.6754         0.011172   
    590. D(C  39,C  38,C  37,H  91)    -62.8229         0.011172   
    591. D(C  39,C  38,C  37,C  36)    174.0736         0.011172   
    592. D(H  95,C  39,C  38,H  94)    -63.9550         0.011187   
    593. D(H  95,C  39,C  38,H  93)   -179.3510         0.011187   
    594. D(H  95,C  39,C  38,C  37)     58.8991         0.011187   
    595. D(C  40,C  39,C  38,H  94)     58.6078         0.011187   
    596. D(C  40,C  39,C  38,H  93)    -56.7882         0.011187   
    597. D(C  40,C  39,C  38,C  37)   -178.5381         0.011187   
    598. D(H  96,C  39,C  38,H  94)   -179.4237         0.011187   
    599. D(H  96,C  39,C  38,H  93)     65.1803         0.011187   
    600. D(H  96,C  39,C  38,C  37)    -56.5696         0.011187   
    601. D(H  98,C  40,C  39,H  95)     64.4437         0.011095   
    602. D(H  98,C  40,C  39,C  38)    -58.1793         0.011095   
    603. D(H  97,C  40,C  39,H  96)    -64.7880         0.011095   
    604. D(H  97,C  40,C  39,H  95)    179.7716         0.011095   
    605. D(H  97,C  40,C  39,C  38)     57.1485         0.011095   
    606. D(C  41,C  40,C  39,H  96)     57.4413         0.011095   
    607. D(C  41,C  40,C  39,H  95)    -57.9992         0.011095   
    608. D(H  98,C  40,C  39,H  96)    179.8842         0.011095   
    609. D(C  41,C  40,C  39,C  38)    179.3778         0.011095   
    610. D(H 101,C  41,C  40,H  98)    -62.3205         0.011163   
    611. D(H 101,C  41,C  40,H  97)   -178.2442         0.011163   
    612. D(H 101,C  41,C  40,C  39)     59.8620         0.011163   
    613. D(H 100,C  41,C  40,H  98)    178.1642         0.011163   
    614. D(H 100,C  41,C  40,H  97)     62.2406         0.011163   
    615. D(H 100,C  41,C  40,C  39)    -59.6533         0.011163   
    616. D(H  99,C  41,C  40,H  98)     57.9292         0.011163   
    617. D(H  99,C  41,C  40,H  97)    -57.9944         0.011163   
    618. D(H  99,C  41,C  40,C  39)   -179.8883         0.011163   
    619. D(H 102,O  43,C  17,H  65)    170.7202         0.020063   
    620. D(H 102,O  43,C  17,C  18)     54.8736         0.020063   
    621. D(H 102,O  43,C  17,C  16)    -72.5095         0.020063   
    622. D(H 104,C  45,C  13,H  61)    175.6041         0.011691   
    623. D(H 104,C  45,C  13,C  14)    -67.2367         0.011691   
    624. D(H 104,C  45,C  13,N  12)     58.2412         0.011691   
    625. D(H 103,C  45,C  13,H  61)    -70.7236         0.011691   
    626. D(H 103,C  45,C  13,C  14)     46.4356         0.011691   
    627. D(H 103,C  45,C  13,N  12)    171.9136         0.011691   
    628. D(C  46,C  45,C  13,H  61)     51.3717         0.011691   
    629. D(C  46,C  45,C  13,C  14)    168.5309         0.011691   
    630. D(C  46,C  45,C  13,N  12)    -65.9912         0.011691   
    631. D(H 107,C  46,C  45,H 104)    -63.6770         0.011239   
    632. D(H 107,C  46,C  45,H 103)    179.3920         0.011239   
    633. D(H 107,C  46,C  45,C  13)     59.4933         0.011239   
    634. D(H 106,C  46,C  45,H 104)    176.3168         0.011239   
    635. D(H 106,C  46,C  45,H 103)     59.3857         0.011239   
    636. D(H 106,C  46,C  45,C  13)    -60.5129         0.011239   
    637. D(H 105,C  46,C  45,H 104)     56.6672         0.011239   
    638. D(H 105,C  46,C  45,H 103)    -60.2639         0.011239   
    639. D(H 105,C  46,C  45,C  13)    179.8375         0.011239   
    640. D(H 108,C  48,C  10,H  59)    -57.7687         0.009336   
    641. D(H 108,C  48,C  10,C  11)     63.7339         0.009336   
    642. D(H 108,C  48,C  10,N   9)   -176.7427         0.009336   
    643. D(C  50,C  48,C  10,H  59)     59.3004         0.009336   
    644. D(C  50,C  48,C  10,C  11)   -179.1970         0.009336   
    645. D(C  50,C  48,C  10,N   9)    -59.6736         0.009336   
    646. D(C  49,C  48,C  10,H  59)   -175.7452         0.009336   
    647. D(C  49,C  48,C  10,C  11)    -54.2427         0.009336   
    648. D(C  49,C  48,C  10,N   9)     65.2808         0.009336   
    649. D(H 111,C  49,C  48,C  50)     65.4480         0.011065   
    650. D(H 111,C  49,C  48,C  10)    -58.6939         0.011065   
    651. D(H 110,C  49,C  48,H 108)     65.3399         0.011065   
    652. D(H 110,C  49,C  48,C  50)    -53.6837         0.011065   
    653. D(H 110,C  49,C  48,C  10)   -177.8256         0.011065   
    654. D(H 109,C  49,C  48,H 108)    -54.7547         0.011065   
    655. D(H 109,C  49,C  48,C  50)   -173.7782         0.011065   
    656. D(H 111,C  49,C  48,H 108)   -175.5284         0.011065   
    657. D(H 109,C  49,C  48,C  10)     62.0798         0.011065   
    658. D(H 114,C  50,C  48,H 108)    -59.4062         0.011112   
    659. D(H 114,C  50,C  48,C  49)     59.6379         0.011112   
    660. D(H 114,C  50,C  48,C  10)   -175.3098         0.011112   
    661. D(H 113,C  50,C  48,H 108)   -178.6899         0.011112   
    662. D(H 113,C  50,C  48,C  49)    -59.6459         0.011112   
    663. D(H 113,C  50,C  48,C  10)     65.4065         0.011112   
    664. D(H 112,C  50,C  48,H 108)     61.7849         0.011112   
    665. D(H 112,C  50,C  48,C  49)   -179.1710         0.011112   
    666. D(H 112,C  50,C  48,C  10)    -54.1187         0.011112   
    -----------------------------------------------------------------

Number of atoms                         .... 115
Number of degrees of freedom            .... 666

         *************************************************************
         *                GEOMETRY OPTIMIZATION CYCLE   1            *
         *************************************************************
---------------------------------
CARTESIAN COORDINATES (ANGSTROEM)
---------------------------------
  O      6.733412    2.323595    0.931380
  C      5.830775    1.739188    1.524999
  C      5.412307    2.195939    2.936154
  C      6.398323    1.706442    4.012404
  C      5.790763    0.371817    4.467875
  C      4.282245    0.649869    4.466424
  N      4.126093    1.638640    3.383109
  C      2.972464    2.058599    2.797559
  O      2.969815    2.897101    1.888449
  N      5.178119    0.642551    1.043504
  C      5.215501    0.293663   -0.363261
  C      3.760119    0.060077   -0.792032
  N      3.535120    0.013245   -2.119189
  C      2.221397   -0.237439   -2.721105
  C      1.906163   -1.752276   -2.799654
  N      1.940535   -2.367766   -1.581883
  C      1.497680   -3.736005   -1.394329
  C      0.229093   -3.832482   -0.527853
  C     -1.006048   -3.073265   -1.111562
  C     -0.867379   -1.544270   -1.027622
  N     -0.932880   -1.066168    0.240028
  C     -0.746006    0.342119    0.547813
  C     -0.085370    0.380028    1.930564
  N      0.791425    1.388784    2.124523
  C      1.656496    1.447790    3.291763
  C      1.062435    2.291788    4.429004
  O     -0.351060   -0.471077    2.788802
  C     -2.090780    1.094939    0.456576
  C     -2.024525    2.616960    0.692924
  C     -3.048441    3.340435   -0.190126
  C     -2.240703    2.978686    2.167509
  O     -0.704421   -0.790274   -1.994349
  C     -1.452631   -3.643555   -2.470050
  C     -2.235877   -2.768501   -3.408441
  C     -3.446886   -2.073047   -2.748459
  C     -3.759165   -0.704063   -3.353765
  C     -4.867239    0.036079   -2.602988
  C     -5.063361    1.478417   -3.071917
  C     -6.121804    2.238747   -2.271064
  C     -6.220402    3.719795   -2.639767
  C     -7.254741    4.488357   -1.813758
  C     -7.334534    5.971459   -2.180058
  O     -1.204270   -4.817676   -2.734545
  O     -0.091712   -5.191206   -0.275682
  O      1.638813   -2.320385   -3.854698
  C      2.114322    0.441821   -4.080137
  C      2.144689    1.967310   -3.984723
  O      2.861137   -0.122666    0.051205
  C      6.090363   -0.958926   -0.657913
  C      5.505024   -2.224962   -0.026606
  C      7.532323   -0.715953   -0.206379
  H      5.352988    3.290170    2.878694
  H      6.418639    2.424360    4.845441
  H      7.416026    1.618380    3.614900
  H      6.024508   -0.417999    3.739280
  H      6.149776    0.044262    5.451278
  H      3.685570   -0.251143    4.271866
  H      3.952790    1.077349    5.427994
  H      4.296810    0.381560    1.489392
  H      5.644649    1.152560   -0.905030
  H      4.326486    0.118273   -2.748721
  H      1.472569    0.190286   -2.036471
  H      2.085940   -1.767843   -0.764301
  H      2.276645   -4.336469   -0.899821
  H      1.318980   -4.160482   -2.390402
  H      0.450899   -3.385330    0.455945
  H     -1.829334   -3.347276   -0.425469
  H     -1.023861   -1.674444    1.054059
  H     -0.059649    0.758676   -0.204479
  H      1.093580    1.977461    1.347686
  H      1.794838    0.415819    3.644096
  H      0.105631    1.858292    4.746220
  H      1.737664    2.312039    5.296387
  H      0.896999    3.322559    4.088832
  H     -2.801720    0.631533    1.159970
  H     -2.465459    0.891677   -0.558345
  H     -1.020263    2.968616    0.392991
  H     -2.866358    3.144347   -1.256457
  H     -4.069636    3.000578    0.042479
  H     -3.015066    4.428151   -0.031718
  H     -1.539988    2.453287    2.828038
  H     -2.113814    4.058526    2.332532
  H     -3.262389    2.708351    2.477292
  H     -2.529126   -3.378733   -4.272192
  H     -1.526891   -1.994077   -3.744505
  H     -3.261276   -1.924571   -1.672635
  H     -4.325676   -2.735116   -2.809408
  H     -4.028557   -0.812018   -4.418354
  H     -2.835341   -0.103033   -3.322320
  H     -4.620766    0.044961   -1.525636
  H     -5.818615   -0.517333   -2.690448
  H     -5.329247    1.490377   -4.143240
  H     -4.099515    2.011689   -2.994318
  H     -5.890737    2.149643   -1.194663
  H     -7.105722    1.756966   -2.408473
  H     -6.462928    3.816949   -3.712847
  H     -5.230098    4.191122   -2.509415
  H     -7.009251    4.383945   -0.742952
  H     -8.244926    4.019567   -1.944894
  H     -8.082347    6.500278   -1.571845
  H     -6.365064    6.469526   -2.026076
  H     -7.609196    6.104093   -3.237664
  H     -0.430438   -5.520072   -1.141052
  H      1.177301    0.098240   -4.536734
  H      2.916372    0.067482   -4.738328
  H      2.068555    2.424523   -4.980636
  H      1.303174    2.336640   -3.380118
  H      3.071274    2.335362   -3.519754
  H      6.089347   -1.087474   -1.754942
  H      4.511229   -2.464068   -0.430675
  H      6.160669   -3.085834   -0.216568
  H      5.413882   -2.107297    1.063647
  H      7.947790    0.199688   -0.647273
  H      7.579971   -0.605655    0.886476
  H      8.168651   -1.566385   -0.489371

----------------------------
CARTESIAN COORDINATES (A.U.)
----------------------------
  NO LB      ZA    FRAG     MASS         X           Y           Z
   0 O     8.0000    0    15.999   12.724304    4.390957    1.760053
   1 C     6.0000    0    12.011   11.018568    3.286588    2.881830
   2 C     6.0000    0    12.011   10.227777    4.149723    5.548527
   3 C     6.0000    0    12.011   12.091079    3.224707    7.582344
   4 C     6.0000    0    12.011   10.942957    0.702632    8.443061
   5 C     6.0000    0    12.011    8.092270    1.228074    8.440318
   6 N     7.0000    0    14.007    7.797185    3.096581    6.393150
   7 C     6.0000    0    12.011    5.617142    3.890188    5.286621
   8 O     8.0000    0    15.999    5.612137    5.474727    3.568652
   9 N     7.0000    0    14.007    9.785228    1.214245    1.971937
  10 C     6.0000    0    12.011    9.855868    0.554942   -0.686463
  11 C     6.0000    0    12.011    7.105596    0.113528   -1.496723
  12 N     7.0000    0    14.007    6.680409    0.025030   -4.004687
  13 C     6.0000    0    12.011    4.197831   -0.448694   -5.142144
  14 C     6.0000    0    12.011    3.602125   -3.311321   -5.290580
  15 N     7.0000    0    14.007    3.667079   -4.474430   -2.989326
  16 C     6.0000    0    12.011    2.830205   -7.060027   -2.634900
  17 C     6.0000    0    12.011    0.432923   -7.242342   -0.997497
  18 C     6.0000    0    12.011   -1.901155   -5.807629   -2.100547
  19 C     6.0000    0    12.011   -1.639110   -2.918247   -1.941924
  20 N     7.0000    0    14.007   -1.762887   -2.014765    0.453587
  21 C     6.0000    0    12.011   -1.409746    0.646510    1.035217
  22 C     6.0000    0    12.011   -0.161327    0.718149    3.648238
  23 N     7.0000    0    14.007    1.495577    2.624421    4.014767
  24 C     6.0000    0    12.011    3.130324    2.735927    6.220531
  25 C     6.0000    0    12.011    2.007711    4.330851    8.369605
  26 O     8.0000    0    15.999   -0.663407   -0.890207    5.270072
  27 C     6.0000    0    12.011   -3.951002    2.069134    0.862804
  28 C     6.0000    0    12.011   -3.825798    4.945338    1.309436
  29 C     6.0000    0    12.011   -5.760719    6.312508   -0.359285
  30 C     6.0000    0    12.011   -4.234316    5.628901    4.095999
  31 O     8.0000    0    15.999   -1.331164   -1.493401   -3.768774
  32 C     6.0000    0    12.011   -2.745074   -6.885321   -4.667718
  33 C     6.0000    0    12.011   -4.225196   -5.231708   -6.441019
  34 C     6.0000    0    12.011   -6.513670   -3.917492   -5.193836
  35 C     6.0000    0    12.011   -7.103792   -1.330486   -6.337697
  36 C     6.0000    0    12.011   -9.197750    0.068180   -4.918934
  37 C     6.0000    0    12.011   -9.568366    2.793804   -5.805083
  38 C     6.0000    0    12.011  -11.568533    4.230618   -4.291690
  39 C     6.0000    0    12.011  -11.754857    7.029395   -4.988436
  40 C     6.0000    0    12.011  -13.709473    8.481766   -3.427506
  41 C     6.0000    0    12.011  -13.860261   11.284421   -4.119713
  42 O     8.0000    0    15.999   -2.275741   -9.104089   -5.167540
  43 O     8.0000    0    15.999   -0.173311   -9.809957   -0.520963
  44 O     8.0000    0    15.999    3.096907   -4.384891   -7.284324
  45 C     6.0000    0    12.011    3.995490    0.834921   -7.710342
  46 C     6.0000    0    12.011    4.052874    3.717676   -7.530035
  47 O     8.0000    0    15.999    5.406765   -0.231805    0.096764
  48 C     6.0000    0    12.011   11.509118   -1.812108   -1.243275
  49 C     6.0000    0    12.011   10.402987   -4.204569   -0.050278
  50 C     6.0000    0    12.011   14.234028   -1.352954   -0.390001
  51 H     1.0000    0     1.008   10.115680    6.217520    5.439944
  52 H     1.0000    0     1.008   12.129471    4.581377    9.156557
  53 H     1.0000    0     1.008   14.014259    3.058295    6.831171
  54 H     1.0000    0     1.008   11.384671   -0.789903    7.066216
  55 H     1.0000    0     1.008   11.621392    0.083644   10.301422
  56 H     1.0000    0     1.008    6.964718   -0.474591    8.072657
  57 H     1.0000    0     1.008    7.469691    2.035895   10.257421
  58 H     1.0000    0     1.008    8.119794    0.721045    2.814543
  59 H     1.0000    0     1.008   10.666841    2.178022   -1.710259
  60 H     1.0000    0     1.008    8.175874    0.223504   -5.194329
  61 H     1.0000    0     1.008    2.782753    0.359588   -3.848372
  62 H     1.0000    0     1.008    3.941856   -3.340738   -1.444319
  63 H     1.0000    0     1.008    4.302236   -8.194738   -1.700415
  64 H     1.0000    0     1.008    2.492511   -7.862171   -4.517205
  65 H     1.0000    0     1.008    0.852076   -6.397346    0.861611
  66 H     1.0000    0     1.008   -3.456941   -6.325435   -0.804019
  67 H     1.0000    0     1.008   -1.934817   -3.164242    1.991883
  68 H     1.0000    0     1.008   -0.112720    1.433689   -0.386409
  69 H     1.0000    0     1.008    2.066566    3.736859    2.546758
  70 H     1.0000    0     1.008    3.391752    0.785783    6.886344
  71 H     1.0000    0     1.008    0.199613    3.511663    8.969055
  72 H     1.0000    0     1.008    3.283709    4.369120   10.008722
  73 H     1.0000    0     1.008    1.695082    6.278727    7.726772
  74 H     1.0000    0     1.008   -5.294483    1.193425    2.192025
  75 H     1.0000    0     1.008   -4.659043    1.685026   -1.055119
  76 H     1.0000    0     1.008   -1.928017    5.609871    0.742645
  77 H     1.0000    0     1.008   -5.416631    5.941954   -2.374359
  78 H     1.0000    0     1.008   -7.690497    5.670270    0.080275
  79 H     1.0000    0     1.008   -5.697650    8.367993   -0.059939
  80 H     1.0000    0     1.008   -2.910156    4.636041    5.344217
  81 H     1.0000    0     1.008   -3.994530    7.669503    4.407847
  82 H     1.0000    0     1.008   -6.165022    5.118041    4.681404
  83 H     1.0000    0     1.008   -4.779356   -6.384879   -8.073272
  84 H     1.0000    0     1.008   -2.885406   -3.768259   -7.076089
  85 H     1.0000    0     1.008   -6.162919   -3.636912   -3.160822
  86 H     1.0000    0     1.008   -8.174343   -5.168620   -5.309012
  87 H     1.0000    0     1.008   -7.612869   -1.534491   -8.349479
  88 H     1.0000    0     1.008   -5.358018   -0.194704   -6.278276
  89 H     1.0000    0     1.008   -8.731983    0.084963   -2.883034
  90 H     1.0000    0     1.008  -10.995589   -0.977619   -5.084209
  91 H     1.0000    0     1.008  -10.070818    2.816405   -7.829588
  92 H     1.0000    0     1.008   -7.746961    3.801541   -5.658441
  93 H     1.0000    0     1.008  -11.131879    4.062236   -2.257586
  94 H     1.0000    0     1.008  -13.427869    3.320185   -4.551354
  95 H     1.0000    0     1.008  -12.213165    7.212988   -7.016264
  96 H     1.0000    0     1.008   -9.883452    7.920073   -4.742107
  97 H     1.0000    0     1.008  -13.245565    8.284456   -1.403975
  98 H     1.0000    0     1.008  -15.580652    7.595881   -3.675318
  99 H     1.0000    0     1.008  -15.273422   12.283746   -2.970357
 100 H     1.0000    0     1.008  -12.028228   12.225633   -3.828729
 101 H     1.0000    0     1.008  -14.379297   11.535063   -6.118299
 102 H     1.0000    0     1.008   -0.813410  -10.431424   -2.156276
 103 H     1.0000    0     1.008    2.224776    0.185646   -8.573185
 104 H     1.0000    0     1.008    5.511144    0.127523   -8.954141
 105 H     1.0000    0     1.008    3.909003    4.581685   -9.412037
 106 H     1.0000    0     1.008    2.462642    4.415610   -6.387498
 107 H     1.0000    0     1.008    5.803867    4.413194   -6.651370
 108 H     1.0000    0     1.008   11.507198   -2.055028   -3.316360
 109 H     1.0000    0     1.008    8.524987   -4.656414   -0.813858
 110 H     1.0000    0     1.008   11.641977   -5.831382   -0.409254
 111 H     1.0000    0     1.008   10.230755   -3.982213    2.010001
 112 H     1.0000    0     1.008   15.019147    0.377356   -1.223168
 113 H     1.0000    0     1.008   14.324069   -1.144521    1.675196
 114 H     1.0000    0     1.008   15.436513   -2.960039   -0.924778

--------------------------------
INTERNAL COORDINATES (ANGSTROEM)
--------------------------------
 O      0   0   0     0.000000000000     0.00000000     0.00000000
 C      1   0   0     1.228278390058     0.00000000     0.00000000
 C      2   1   0     1.541135166311   120.07039708     0.00000000
 C      3   2   1     1.539528803734   111.83758602   282.06513310
 C      4   3   2     1.535515268931   103.31497494   267.72997614
 C      5   4   3     1.533930635113   103.37263894   321.54823177
 N      3   2   1     1.471290874589   113.78327762   165.70816508
 C      7   3   2     1.360181879262   119.58579798   289.94808606
 O      8   7   3     1.236758919114   121.84277150     0.35459777
 N      2   1   3     1.363967799313   124.30313264   182.88736859
 C     10   2   1     1.449864698608   121.57748286   341.78672154
 C     11  10   2     1.535103341441   106.45009160   229.89888533
 N     12  11  10     1.346909223852   116.03236954   165.90545539
 C     13  12  11     1.466633654993   124.05326101   178.22962454
 C     14  13  12     1.549281470485   111.72732557   276.66654161
 N     15  14  13     1.364909289433   112.98901885    57.75879160
 C     16  15  14     1.450301713565   122.21607934   171.25976903
 C     17  16  15     1.539286225359   112.55560026   247.00363148
 C     18  17  16     1.562913813487   114.24401110    59.86287034
 C     19  18  17     1.537563524516   113.04170407   288.52906325
 N     20  19  18     1.356395001330   113.40210055   290.45304650
 C     21  20  19     1.453590110235   122.22015127   176.33051658
 C     22  21  20     1.532930692057   105.68577169   212.52254833
 N     23  22  21     1.350547734602   115.32825780   146.04924600
 C     24  23  22     1.454055513352   122.12978873   189.92713663
 C     25  24  23     1.535759435296   112.74369920   265.58753230
 O     23  22  21     1.237555035691   121.06585164   326.35974440
 C     22  21  20     1.543852835945   110.36079268    88.06383671
 C     28  22  21     1.541687186893   115.77958192   182.88547133
 C     29  28  22     1.533491615013   110.41336006   145.31981495
 C     29  28  22     1.533616953132   111.97497927   268.74908819
 O     20  19  18     1.236781101454   125.13166683   110.10630738
 C     19  18  17     1.539531503773   112.26268892    62.47267566
 C     33  19  18     1.503254051490   119.10037049   203.16869816
 C     34  33  19     1.544594677373   113.82046381   309.90743777
 C     35  34  33     1.529062183730   113.20904472   148.32392080
 C     36  35  34     1.529478817611   112.76151729   185.79496356
 C     37  36  35     1.529279997945   113.50310153   172.14788831
 C     38  37  36     1.529630023680   113.39120951   182.99229517
 C     39  38  37     1.529433944393   113.56167758   174.07355461
 C     40  39  38     1.530631629315   113.55976524   181.46190326
 C     41  40  39     1.529749151023   113.13115149   179.37780303
 O     33  19  18     1.228902446502   119.02635957    26.00733112
 O     18  17  16     1.418674084390   110.27022495   185.23833542
 O     15  14  13     1.227738291736   122.70520245   236.90632368
 C     14  13  12     1.523097973375   110.66732339   150.96888579
 C     46  14  13     1.528770982436   112.82569348   294.00884235
 O     12  11  10     1.246039000463   121.15139559   343.36375676
 C     11  10   2     1.556014948230   113.07533592   107.81541764
 C     49  11  10     1.531018650938   111.87797915    65.28079863
 C     49  11  10     1.530414343424   110.24745426   300.32642764
 H      3   2   1     1.097343201733   105.20446101    44.91074258
 H      4   3   2     1.099896040163   109.49738515   149.99951332
 H      4   3   2     1.096122327941   111.51056714    30.46383737
 H      5   4   3     1.099679968632   110.09796983    78.77995355
 H      5   4   3     1.096932763417   113.32640323   199.92478369
 H      6   5   4     1.098041795354   112.69484611   151.18509440
 H      6   5   4     1.102676750495   111.30148244   272.78815416
 H     10   2   1     1.021586511224   117.65334673   195.55686705
 H     11  10   2     1.102445674898   107.42024640   348.29073097
 H     13  12  11     1.016662018097   118.45782080     0.92767416
 H     14  13  12     1.101097564175   106.71389247    31.90990858
 H     16  15  14     1.024447190138   116.84254258     4.98493639
 H     17  16  15     1.100854839666   110.89223452   126.88790504
 H     17  16  15     1.097395077207   107.29312228     8.94610951
 H     18  17  16     1.103177714942   108.11259310   300.66869797
 H     19  18  17     1.106167266346   103.66266967   173.94209446
 H     21  20  19     1.020257217836   122.67166069     2.54778450
 H     22  21  20     1.100249096153   107.59120247   329.77656460
 H     24  23  22     1.020447844976   120.91651353   350.41286248
 H     25  24  23     1.099201157156   107.10281201    25.60574301
 H     26  25  24     1.097277551677   109.52761244    60.20028209
 H     26  25  24     1.099408332352   110.90226696   179.73341182
 H     26  25  24     1.097987771925   110.16858048   300.05324455
 H     28  22  21     1.102244157825   108.60863448    58.35642932
 H     28  22  21     1.100801465069   105.12504099   304.19604488
 H     29  28  22     1.105515580627   108.14854838    27.98885469
 H     30  29  28     1.099394106561   111.33320036   300.61248883
 H     30  29  28     1.101111785698   110.60856858    60.27572690
 H     30  29  28     1.099696315306   111.31104660   179.89130551
 H     31  29  28     1.096970236046   112.08318118    54.92827965
 H     31  29  28     1.099721725219   111.07677818   175.62797230
 H     31  29  28     1.101312206921   110.07984985   294.96115154
 H     34  33  19     1.097471420929   107.86956013   184.77296121
 H     34  33  19     1.102421726515   105.31491015    68.69224340
 H     35  34  33     1.101768549860   110.23169954    27.90914823
 H     35  34  33     1.101962566597   109.33552183   272.21862390
 H     36  35  34     1.103438707492   110.13278061    62.34473220
 H     36  35  34     1.102576833051   107.79652647   306.43646633
 H     37  36  35     1.105221998955   108.71234953    51.10785612
 H     37  36  35     1.104097070521   110.04916542   295.58322438
 H     38  37  36     1.103888358373   109.79745240    59.97708614
 H     38  37  36     1.104264080040   108.78276505   304.56532009
 H     39  38  37     1.104523205632   108.98809589    52.28430007
 H     39  38  37     1.104123336047   109.54674275   296.94496294
 H     40  39  38     1.104426794045   109.48559820    58.89913586
 H     40  39  38     1.104465592514   109.08619937   303.43044522
 H     41  40  39     1.103536634873   109.01468887    57.14854263
 H     41  40  39     1.103371350778   109.20590899   301.82071979
 H     42  41  40     1.099453378386   111.67443353   180.11174549
 H     42  41  40     1.100751644433   111.05385249   300.34672621
 H     42  41  40     1.100709279581   111.09495177    59.86195514
 H     44  18  17     0.985775762895   103.95588873   287.49052432
 H     46  14  13     1.097514623693   106.95499169   171.91356311
 H     46  14  13     1.103008297636   109.26705313    58.24124332
 H     47  46  14     1.098491265934   110.93843301   179.83751212
 H     47  46  14     1.100044670451   110.74005595   299.48708632
 H     47  46  14     1.100099491664   112.14511795    59.49332461
 H     49  11  10     1.104535428437   106.33460889   183.25732975
 H     50  49  11     1.099123040833   111.96154095    62.07983091
 H     50  49  11     1.098661581378   110.39537229   182.17435838
 H     50  49  11     1.100364619324   110.59723204   301.30608319
 H     51  49  11     1.097906244966   111.74470416   305.88130654
 H     51  49  11     1.099439939475   110.48937245    65.40645353
 H     51  49  11     1.099196429762   110.28263307   184.69020042

---------------------------
INTERNAL COORDINATES (A.U.)
---------------------------
 O      0   0   0     0.000000000000     0.00000000     0.00000000
 C      1   0   0     2.321109773423     0.00000000     0.00000000
 C      2   1   0     2.912323399684   120.07039708     0.00000000
 C      3   2   1     2.909287814341   111.83758602   282.06513310
 C      4   3   2     2.901703332735   103.31497494   267.72997614
 C      5   4   3     2.898708808796   103.37263894   321.54823177
 N      3   2   1     2.780336816311   113.78327762   165.70816508
 C      7   3   2     2.570371244128   119.58579798   289.94808606
 O      8   7   3     2.337135650810   121.84277150     0.35459777
 N      2   1   3     2.577525596189   124.30313264   182.88736859
 C     10   2   1     2.739847211610   121.57748286   341.78672154
 C     11  10   2     2.900924902591   106.45009160   229.89888533
 N     12  11  10     2.545289560333   116.03236954   165.90545539
 C     13  12  11     2.771535946729   124.05326101   178.22962454
 C     14  13  12     2.927717683575   111.72732557   276.66654161
 N     15  14  13     2.579304754674   112.98901885    57.75879160
 C     16  15  14     2.740673050194   122.21607934   171.25976903
 C     17  16  15     2.908829407646   112.55560026   247.00363148
 C     18  17  16     2.953479078412   114.24401110    59.86287034
 C     19  18  17     2.905573974842   113.04170407   288.52906325
 N     20  19  18     2.563215081933   113.40210055   290.45304650
 C     21  20  19     2.746887219321   122.22015127   176.33051658
 C     22  21  20     2.896819190269   105.68577169   212.52254833
 N     23  22  21     2.552165349185   115.32825780   146.04924600
 C     24  23  22     2.747766703753   122.12978873   189.92713663
 C     25  24  23     2.902164740295   112.74369920   265.58753230
 O     23  22  21     2.338640093111   121.06585164   326.35974440
 C     22  21  20     2.917459051014   110.36079268    88.06383671
 C     28  22  21     2.913366567404   115.77958192   182.88547133
 C     29  28  22     2.897879181039   110.41336006   145.31981495
 C     29  28  22     2.898116035759   111.97497927   268.74908819
 O     20  19  18     2.337177569358   125.13166683   110.10630738
 C     19  18  17     2.909292916675   112.26268892    62.47267566
 C     33  19  18     2.840738467024   119.10037049   203.16869816
 C     34  33  19     2.918860928148   113.82046381   309.90743777
 C     35  34  33     2.889508768986   113.20904472   148.32392080
 C     36  35  34     2.890296092918   112.76151729   185.79496356
 C     37  36  35     2.889920378199   113.50310153   172.14788831
 C     38  37  36     2.890581830979   113.39120951   182.99229517
 C     39  38  37     2.890211294825   113.56167758   174.07355461
 C     40  39  38     2.892474591323   113.55976524   181.46190326
 C     41  40  39     2.890806949032   113.13115149   179.37780303
 O     33  19  18     2.322289069195   119.02635957    26.00733112
 O     18  17  16     2.680905492788   110.27022495   185.23833542
 O     15  14  13     2.320089135508   122.70520245   236.90632368
 C     14  13  12     2.878238044810   110.66732339   150.96888579
 C     46  14  13     2.888958478290   112.82569348   294.00884235
 O     12  11  10     2.354672463059   121.15139559   343.36375676
 C     11  10   2     2.940442112442   113.07533592   107.81541764
 C     49  11  10     2.893205956198   111.87797915    65.28079863
 C     49  11  10     2.892063980497   110.24745426   300.32642764
 H      3   2   1     2.073678126195   105.20446101    44.91074258
 H      4   3   2     2.078502291693   109.49738515   149.99951332
 H      4   3   2     2.071371009084   111.51056714    30.46383737
 H      5   4   3     2.078093975673   110.09796983    78.77995355
 H      5   4   3     2.072902510184   113.32640323   199.92478369
 H      6   5   4     2.074998276818   112.69484611   151.18509440
 H      6   5   4     2.083757072677   111.30148244   272.78815416
[...]
freq.      82.71  E(vib)   ...       0.48 
freq.      86.05  E(vib)   ...       0.48 
freq.      92.97  E(vib)   ...       0.47 
freq.      97.66  E(vib)   ...       0.46 
freq.     102.04  E(vib)   ...       0.46 
freq.     106.07  E(vib)   ...       0.45 
freq.     107.43  E(vib)   ...       0.45 
freq.     109.17  E(vib)   ...       0.45 
freq.     115.99  E(vib)   ...       0.44 
freq.     120.59  E(vib)   ...       0.44 
freq.     134.04  E(vib)   ...       0.42 
freq.     140.58  E(vib)   ...       0.41 
freq.     143.19  E(vib)   ...       0.41 
freq.     146.77  E(vib)   ...       0.41 
freq.     155.17  E(vib)   ...       0.40 
freq.     156.53  E(vib)   ...       0.40 
freq.     163.59  E(vib)   ...       0.39 
freq.     166.35  E(vib)   ...       0.39 
freq.     174.20  E(vib)   ...       0.38 
freq.     178.56  E(vib)   ...       0.37 
freq.     191.87  E(vib)   ...       0.36 
freq.     195.48  E(vib)   ...       0.36 
freq.     197.99  E(vib)   ...       0.35 
freq.     210.78  E(vib)   ...       0.34 
freq.     217.06  E(vib)   ...       0.34 
freq.     219.39  E(vib)   ...       0.33 
freq.     223.37  E(vib)   ...       0.33 
freq.     227.14  E(vib)   ...       0.33 
freq.     229.31  E(vib)   ...       0.32 
freq.     237.30  E(vib)   ...       0.32 
freq.     241.60  E(vib)   ...       0.31 
freq.     242.96  E(vib)   ...       0.31 
freq.     244.68  E(vib)   ...       0.31 
freq.     253.10  E(vib)   ...       0.30 
freq.     259.62  E(vib)   ...       0.30 
freq.     263.88  E(vib)   ...       0.29 
freq.     271.20  E(vib)   ...       0.29 
freq.     278.17  E(vib)   ...       0.28 
freq.     283.71  E(vib)   ...       0.28 
freq.     290.73  E(vib)   ...       0.27 
freq.     295.37  E(vib)   ...       0.27 
freq.     312.70  E(vib)   ...       0.25 
freq.     314.64  E(vib)   ...       0.25 
freq.     319.26  E(vib)   ...       0.25 
freq.     326.02  E(vib)   ...       0.24 
freq.     328.73  E(vib)   ...       0.24 
freq.     336.05  E(vib)   ...       0.24 
freq.     352.81  E(vib)   ...       0.22 
freq.     357.70  E(vib)   ...       0.22 
freq.     360.36  E(vib)   ...       0.22 
freq.     368.17  E(vib)   ...       0.21 
freq.     372.47  E(vib)   ...       0.21 
freq.     389.46  E(vib)   ...       0.20 
freq.     394.65  E(vib)   ...       0.20 
freq.     400.70  E(vib)   ...       0.19 
freq.     418.65  E(vib)   ...       0.18 
freq.     436.51  E(vib)   ...       0.17 
freq.     441.50  E(vib)   ...       0.17 
freq.     450.75  E(vib)   ...       0.17 
freq.     458.83  E(vib)   ...       0.16 
freq.     462.10  E(vib)   ...       0.16 
freq.     474.13  E(vib)   ...       0.15 
freq.     481.46  E(vib)   ...       0.15 
freq.     507.62  E(vib)   ...       0.14 
freq.     512.77  E(vib)   ...       0.13 
freq.     538.27  E(vib)   ...       0.12 
freq.     543.94  E(vib)   ...       0.12 
freq.     550.24  E(vib)   ...       0.12 
freq.     564.81  E(vib)   ...       0.11 
freq.     572.47  E(vib)   ...       0.11 
freq.     587.25  E(vib)   ...       0.10 
freq.     596.21  E(vib)   ...       0.10 
freq.     620.78  E(vib)   ...       0.09 
freq.     637.95  E(vib)   ...       0.09 
freq.     641.95  E(vib)   ...       0.09 
freq.     648.65  E(vib)   ...       0.08 
freq.     661.74  E(vib)   ...       0.08 
freq.     669.11  E(vib)   ...       0.08 
freq.     675.97  E(vib)   ...       0.08 
freq.     680.68  E(vib)   ...       0.08 
freq.     694.00  E(vib)   ...       0.07 
freq.     700.14  E(vib)   ...       0.07 
freq.     708.61  E(vib)   ...       0.07 
freq.     712.70  E(vib)   ...       0.07 
freq.     720.70  E(vib)   ...       0.07 
freq.     727.50  E(vib)   ...       0.06 
freq.     732.85  E(vib)   ...       0.06 
freq.     738.47  E(vib)   ...       0.06 
freq.     750.72  E(vib)   ...       0.06 
freq.     752.80  E(vib)   ...       0.06 
freq.     761.94  E(vib)   ...       0.06 
freq.     771.63  E(vib)   ...       0.05 
freq.     786.22  E(vib)   ...       0.05 
freq.     799.38  E(vib)   ...       0.05 
freq.     807.77  E(vib)   ...       0.05 
freq.     821.39  E(vib)   ...       0.05 
freq.     825.18  E(vib)   ...       0.04 
freq.     835.15  E(vib)   ...       0.04 
freq.     852.94  E(vib)   ...       0.04 
freq.     863.17  E(vib)   ...       0.04 
freq.     870.59  E(vib)   ...       0.04 
freq.     873.50  E(vib)   ...       0.04 
freq.     877.64  E(vib)   ...       0.04 
freq.     878.83  E(vib)   ...       0.04 
freq.     881.77  E(vib)   ...       0.04 
freq.     885.13  E(vib)   ...       0.04 
freq.     901.68  E(vib)   ...       0.03 
freq.     902.61  E(vib)   ...       0.03 
freq.     904.19  E(vib)   ...       0.03 
freq.     912.83  E(vib)   ...       0.03 
freq.     922.75  E(vib)   ...       0.03 
freq.     925.37  E(vib)   ...       0.03 
freq.     932.49  E(vib)   ...       0.03 
freq.     934.68  E(vib)   ...       0.03 
freq.     942.18  E(vib)   ...       0.03 
freq.     942.86  E(vib)   ...       0.03 
freq.     947.11  E(vib)   ...       0.03 
freq.     964.65  E(vib)   ...       0.03 
freq.     969.94  E(vib)   ...       0.03 
freq.     972.66  E(vib)   ...       0.03 
freq.     977.31  E(vib)   ...       0.03 
freq.     979.73  E(vib)   ...       0.03 
freq.     979.93  E(vib)   ...       0.02 
freq.     987.68  E(vib)   ...       0.02 
freq.     998.49  E(vib)   ...       0.02 
freq.    1014.01  E(vib)   ...       0.02 
freq.    1017.86  E(vib)   ...       0.02 
freq.    1021.65  E(vib)   ...       0.02 
freq.    1027.35  E(vib)   ...       0.02 
freq.    1033.36  E(vib)   ...       0.02 
freq.    1037.87  E(vib)   ...       0.02 
freq.    1039.40  E(vib)   ...       0.02 
freq.    1041.75  E(vib)   ...       0.02 
freq.    1043.10  E(vib)   ...       0.02 
freq.    1046.21  E(vib)   ...       0.02 
freq.    1051.17  E(vib)   ...       0.02 
freq.    1052.78  E(vib)   ...       0.02 
freq.    1054.30  E(vib)   ...       0.02 
freq.    1059.17  E(vib)   ...       0.02 
freq.    1067.37  E(vib)   ...       0.02 
freq.    1079.08  E(vib)   ...       0.02 
freq.    1082.26  E(vib)   ...       0.02 
freq.    1089.16  E(vib)   ...       0.02 
freq.    1096.89  E(vib)   ...       0.02 
freq.    1097.55  E(vib)   ...       0.02 
freq.    1109.51  E(vib)   ...       0.02 
freq.    1113.13  E(vib)   ...       0.01 
freq.    1120.03  E(vib)   ...       0.01 
freq.    1130.03  E(vib)   ...       0.01 
freq.    1136.67  E(vib)   ...       0.01 
freq.    1141.36  E(vib)   ...       0.01 
freq.    1149.98  E(vib)   ...       0.01 
freq.    1155.79  E(vib)   ...       0.01 
freq.    1157.45  E(vib)   ...       0.01 
freq.    1163.18  E(vib)   ...       0.01 
freq.    1164.55  E(vib)   ...       0.01 
freq.    1167.71  E(vib)   ...       0.01 
freq.    1169.80  E(vib)   ...       0.01 
freq.    1171.68  E(vib)   ...       0.01 
freq.    1181.85  E(vib)   ...       0.01 
freq.    1186.53  E(vib)   ...       0.01 
freq.    1191.56  E(vib)   ...       0.01 
freq.    1193.08  E(vib)   ...       0.01 
freq.    1201.83  E(vib)   ...       0.01 
freq.    1209.01  E(vib)   ...       0.01 
freq.    1209.78  E(vib)   ...       0.01 
freq.    1214.60  E(vib)   ...       0.01 
freq.    1221.22  E(vib)   ...       0.01 
freq.    1224.87  E(vib)   ...       0.01 
freq.    1228.57  E(vib)   ...       0.01 
freq.    1234.23  E(vib)   ...       0.01 
freq.    1238.76  E(vib)   ...       0.01 
freq.    1242.33  E(vib)   ...       0.01 
freq.    1245.87  E(vib)   ...       0.01 
freq.    1259.24  E(vib)   ...       0.01 
freq.    1260.90  E(vib)   ...       0.01 
freq.    1261.42  E(vib)   ...       0.01 
freq.    1266.07  E(vib)   ...       0.01 
freq.    1271.44  E(vib)   ...       0.01 
freq.    1275.36  E(vib)   ...       0.01 
freq.    1281.64  E(vib)   ...       0.01 
freq.    1283.03  E(vib)   ...       0.01 
freq.    1284.91  E(vib)   ...       0.01 
freq.    1287.65  E(vib)   ...       0.01 
freq.    1289.04  E(vib)   ...       0.01 
freq.    1294.10  E(vib)   ...       0.01 
freq.    1294.78  E(vib)   ...       0.01 
freq.    1296.50  E(vib)   ...       0.01 
freq.    1299.90  E(vib)   ...       0.01 
freq.    1301.25  E(vib)   ...       0.01 
freq.    1304.54  E(vib)   ...       0.01 
freq.    1307.79  E(vib)   ...       0.01 
freq.    1311.87  E(vib)   ...       0.01 
freq.    1315.27  E(vib)   ...       0.01 
freq.    1316.97  E(vib)   ...       0.01 
freq.    1321.09  E(vib)   ...       0.01 
freq.    1324.38  E(vib)   ...       0.01 
freq.    1328.18  E(vib)   ...       0.01 
freq.    1328.82  E(vib)   ...       0.01 
freq.    1336.84  E(vib)   ...       0.01 
freq.    1340.35  E(vib)   ...       0.01 
freq.    1342.91  E(vib)   ...       0.01 
freq.    1344.63  E(vib)   ...       0.01 
freq.    1348.02  E(vib)   ...       0.01 
freq.    1349.23  E(vib)   ...       0.01 
freq.    1350.40  E(vib)   ...       0.01 
freq.    1351.45  E(vib)   ...       0.01 
freq.    1352.19  E(vib)   ...       0.01 
freq.    1353.37  E(vib)   ...       0.01 
freq.    1363.74  E(vib)   ...       0.01 
freq.    1367.78  E(vib)   ...       0.01 
freq.    1372.27  E(vib)   ...       0.01 
freq.    1374.56  E(vib)   ...       0.01 
freq.    1395.70  E(vib)   ...       0.00 
freq.    1403.00  E(vib)   ...       0.00 
freq.    1415.90  E(vib)   ...       0.00 
freq.    1427.18  E(vib)   ...       0.00 
freq.    1430.47  E(vib)   ...       0.00 
freq.    1432.09  E(vib)   ...       0.00 
freq.    1432.86  E(vib)   ...       0.00 
freq.    1433.40  E(vib)   ...       0.00 
freq.    1437.03  E(vib)   ...       0.00 
freq.    1438.48  E(vib)   ...       0.00 
freq.    1439.47  E(vib)   ...       0.00 
freq.    1441.51  E(vib)   ...       0.00 
freq.    1442.70  E(vib)   ...       0.00 
freq.    1443.56  E(vib)   ...       0.00 
freq.    1444.31  E(vib)   ...       0.00 
freq.    1444.49  E(vib)   ...       0.00 
freq.    1446.20  E(vib)   ...       0.00 
freq.    1448.10  E(vib)   ...       0.00 
freq.    1450.96  E(vib)   ...       0.00 
freq.    1451.44  E(vib)   ...       0.00 
freq.    1451.93  E(vib)   ...       0.00 
freq.    1452.30  E(vib)   ...       0.00 
freq.    1455.39  E(vib)   ...       0.00 
freq.    1455.89  E(vib)   ...       0.00 
freq.    1457.57  E(vib)   ...       0.00 
freq.    1457.97  E(vib)   ...       0.00 
freq.    1459.53  E(vib)   ...       0.00 
freq.    1460.46  E(vib)   ...       0.00 
freq.    1461.44  E(vib)   ...       0.00 
freq.    1463.87  E(vib)   ...       0.00 
freq.    1466.93  E(vib)   ...       0.00 
freq.    1473.55  E(vib)   ...       0.00 
freq.    1487.78  E(vib)   ...       0.00 
freq.    1499.27  E(vib)   ...       0.00 
freq.    1524.05  E(vib)   ...       0.00 
freq.    1628.29  E(vib)   ...       0.00 
freq.    1646.51  E(vib)   ...       0.00 
freq.    1650.96  E(vib)   ...       0.00 
freq.    1671.75  E(vib)   ...       0.00 
freq.    1673.68  E(vib)   ...       0.00 
freq.    1694.98  E(vib)   ...       0.00 
freq.    1698.17  E(vib)   ...       0.00 
freq.    2920.26  E(vib)   ...       0.00 
freq.    2923.06  E(vib)   ...       0.00 
freq.    2926.00  E(vib)   ...       0.00 
freq.    2928.92  E(vib)   ...       0.00 
freq.    2934.02  E(vib)   ...       0.00 
freq.    2935.01  E(vib)   ...       0.00 
freq.    2936.92  E(vib)   ...       0.00 
freq.    2942.66  E(vib)   ...       0.00 
freq.    2943.74  E(vib)   ...       0.00 
freq.    2945.81  E(vib)   ...       0.00 
freq.    2947.02  E(vib)   ...       0.00 
freq.    2948.61  E(vib)   ...       0.00 
freq.    2951.48  E(vib)   ...       0.00 
freq.    2955.10  E(vib)   ...       0.00 
freq.    2956.78  E(vib)   ...       0.00 
freq.    2957.46  E(vib)   ...       0.00 
freq.    2957.77  E(vib)   ...       0.00 
freq.    2958.29  E(vib)   ...       0.00 
freq.    2959.40  E(vib)   ...       0.00 
freq.    2962.35  E(vib)   ...       0.00 
freq.    2963.94  E(vib)   ...       0.00 
freq.    2964.78  E(vib)   ...       0.00 
freq.    2970.14  E(vib)   ...       0.00 
freq.    2970.65  E(vib)   ...       0.00 
freq.    2971.16  E(vib)   ...       0.00 
freq.    2971.82  E(vib)   ...       0.00 
freq.    2972.98  E(vib)   ...       0.00 
freq.    2973.25  E(vib)   ...       0.00 
freq.    2978.03  E(vib)   ...       0.00 
freq.    2983.42  E(vib)   ...       0.00 
freq.    2986.67  E(vib)   ...       0.00 
freq.    2988.54  E(vib)   ...       0.00 
freq.    2989.56  E(vib)   ...       0.00 
freq.    2991.43  E(vib)   ...       0.00 
freq.    2999.35  E(vib)   ...       0.00 
freq.    3000.85  E(vib)   ...       0.00 
freq.    3006.06  E(vib)   ...       0.00 
freq.    3017.10  E(vib)   ...       0.00 
freq.    3018.68  E(vib)   ...       0.00 
freq.    3019.66  E(vib)   ...       0.00 
freq.    3020.19  E(vib)   ...       0.00 
freq.    3024.70  E(vib)   ...       0.00 
freq.    3027.43  E(vib)   ...       0.00 
freq.    3028.21  E(vib)   ...       0.00 
freq.    3030.94  E(vib)   ...       0.00 
freq.    3031.74  E(vib)   ...       0.00 
freq.    3036.30  E(vib)   ...       0.00 
freq.    3038.04  E(vib)   ...       0.00 
freq.    3039.58  E(vib)   ...       0.00 
freq.    3041.07  E(vib)   ...       0.00 
freq.    3043.45  E(vib)   ...       0.00 
freq.    3045.89  E(vib)   ...       0.00 
freq.    3046.13  E(vib)   ...       0.00 
freq.    3049.41  E(vib)   ...       0.00 
freq.    3049.55  E(vib)   ...       0.00 
freq.    3055.12  E(vib)   ...       0.00 
freq.    3056.84  E(vib)   ...       0.00 
freq.    3062.40  E(vib)   ...       0.00 
freq.    3357.98  E(vib)   ...       0.00 
freq.    3422.49  E(vib)   ...       0.00 
freq.    3447.96  E(vib)   ...       0.00 
freq.    3452.23  E(vib)   ...       0.00 
freq.    3460.28  E(vib)   ...       0.00 
freq.    3499.37  E(vib)   ...       0.00 

------------
INNER ENERGY
------------

The inner energy is: U= E(el) + E(ZPE) + E(vib) + E(rot) + E(trans)
    E(el)   - is the total energy from the electronic structure calculation
              = E(kin-el) + E(nuc-el) + E(el-el) + E(nuc-nuc)
    E(ZPE)  - the the zero temperature vibrational energy from the frequency calculation
    E(vib)  - the the finite temperature correction to E(ZPE) due to population
              of excited vibrational states
    E(rot)  - is the rotational thermal energy
    E(trans)- is the translational thermal energy

Summary of contributions to the inner energy U:
Electronic energy                ...  -2380.08129113 Eh
Zero point energy                ...      0.97715597 Eh     613.17 kcal/mol
Thermal vibrational correction   ...      0.05586169 Eh      35.05 kcal/mol
Thermal rotational correction    ...      0.00141627 Eh       0.89 kcal/mol
Thermal translational correction ...      0.00141627 Eh       0.89 kcal/mol
-----------------------------------------------------------------------
Total thermal energy                  -2379.04544092 Eh


Summary of corrections to the electronic energy:
(perhaps to be used in another calculation)
Total thermal correction                  0.05869423 Eh      36.83 kcal/mol
Non-thermal (ZPE) correction              0.97715597 Eh     613.17 kcal/mol
-----------------------------------------------------------------------
Total correction                          1.03585020 Eh     650.00 kcal/mol


--------
ENTHALPY
--------

The enthalpy is H = U + kB*T
                kB is Boltzmann's constant
Total free energy                 ...  -2379.04544092 Eh 
Thermal Enthalpy correction       ...      0.00094421 Eh       0.59 kcal/mol
-----------------------------------------------------------------------
Total Enthalpy                    ...  -2379.04449671 Eh


Note: Only C1 symmetry has been detected, increase convergence thresholds 
      if your molecule has a higher symmetry. Symmetry factor of 1.0 is   
      used for the rotational entropy correction. 
 

Note: Rotational entropy computed according to Herzberg 
Infrared and Raman Spectra, Chapter V,1, Van Nostrand Reinhold, 1945 
Point Group:  C1, Symmetry Number:   1  
Rotational constants in cm-1:     0.002301     0.001214     0.000980 

Vibrational entropy computed according to the QRRHO of S. Grimme
Chem.Eur.J. 2012 18 9955


-------
ENTROPY
-------

The entropy contributions are T*S = T*(S(el)+S(vib)+S(rot)+S(trans))
     S(el)   - electronic entropy
     S(vib)  - vibrational entropy
     S(rot)  - rotational entropy
     S(trans)- translational entropy
The entropies will be listed as mutliplied by the temperature to get
units of energy

Electronic entropy                ...      0.00000000 Eh      0.00 kcal/mol
Vibrational entropy               ...      0.10336849 Eh     64.86 kcal/mol
Rotational entropy                ...      0.01881885 Eh     11.81 kcal/mol
Translational entropy             ...      0.02166895 Eh     13.60 kcal/mol
-----------------------------------------------------------------------
Final entropy term                ...      0.14385629 Eh     90.27 kcal/mol

In case the symmetry of your molecule has not been determined correctly
or in case you have a reason to use a different symmetry number we print 
out the resulting rotational entropy values for sn=1,12 :
 --------------------------------------------------------
|  sn= 1 | S(rot)=       0.01881885 Eh     11.81 kcal/mol|
|  sn= 2 | S(rot)=       0.01816439 Eh     11.40 kcal/mol|
|  sn= 3 | S(rot)=       0.01778156 Eh     11.16 kcal/mol|
|  sn= 4 | S(rot)=       0.01750994 Eh     10.99 kcal/mol|
|  sn= 5 | S(rot)=       0.01729925 Eh     10.86 kcal/mol|
|  sn= 6 | S(rot)=       0.01712710 Eh     10.75 kcal/mol|
|  sn= 7 | S(rot)=       0.01698156 Eh     10.66 kcal/mol|
|  sn= 8 | S(rot)=       0.01685548 Eh     10.58 kcal/mol|
|  sn= 9 | S(rot)=       0.01674427 Eh     10.51 kcal/mol|
|  sn=10 | S(rot)=       0.01664479 Eh     10.44 kcal/mol|
|  sn=11 | S(rot)=       0.01655480 Eh     10.39 kcal/mol|
|  sn=12 | S(rot)=       0.01647265 Eh     10.34 kcal/mol|
 --------------------------------------------------------


-------------------
GIBBS FREE ENERGY
-------------------

The Gibbs free energy is G = H - T*S

Total enthalpy                    ...  -2379.04449671 Eh 
Total entropy correction          ...     -0.14385629 Eh    -90.27 kcal/mol
-----------------------------------------------------------------------
Final Gibbs free energy         ...  -2379.18835300 Eh

For completeness - the Gibbs free energy minus the electronic energy
G-E(el)                           ...      0.89293812 Eh    560.33 kcal/mol

--------------------------------------------------------------------------
WARNING: No preset parameters were found for the device that Open MPI
detected:

  Local host:            eu-g1-048-1
  Device name:           mlx5_0
  Device vendor ID:      0x02c9
  Device vendor part ID: 4123

Default device parameters will be used, which may result in lower
performance.  You can edit any of the files specified by the
btl_openib_device_param_files MCA parameter to set values for your
device.

NOTE: You can turn off this warning by setting the MCA parameter
      btl_openib_warn_no_device_params_found to 0.
--------------------------------------------------------------------------
--------------------------------------------------------------------------
WARNING: There was an error initializing an OpenFabrics device.

  Local host:   eu-g1-048-1
  Local device: mlx5_0
--------------------------------------------------------------------------

Timings for individual modules:

Sum of individual times         ...    35124.732 sec (= 585.412 min)
GTO integral calculation        ...       13.735 sec (=   0.229 min)   0.0 %
SCF iterations                  ...      435.026 sec (=   7.250 min)   1.2 %
SCF Gradient evaluation         ...       80.876 sec (=   1.348 min)   0.2 %
Geometry relaxation             ...        4.220 sec (=   0.070 min)   0.0 %
Analytical frequency calculation...    34590.875 sec (= 576.515 min)  98.5 %
                             ****ORCA TERMINATED NORMALLY****
TOTAL RUN TIME: 0 days 9 hours 45 minutes 43 seconds 229 msec
