
                                 *****************
                                 * O   R   C   A *
                                 *****************

           --- An Ab Initio, DFT and Semiempirical electronic structure package ---

                  #######################################################
                  #                        -***-                        #
                  #          Department of theory and spectroscopy      #
                  #               Directorship: Frank Neese             #
                  #        Max Planck Institute fuer Kohlenforschung    #
                  #                Kaiser Wilhelm Platz 1               #
                  #                 D-45470 Muelheim/Ruhr               #
                  #                      Germany                        #
                  #                                                     #
                  #                  All rights reserved                #
                  #                        -***-                        #
                  #######################################################


                         Program Version 4.2.0 -  RELEASE  -


 With contributions from (in alphabetic order):
   Daniel Aravena         : Magnetic Suceptibility
   Michael Atanasov       : Ab Initio Ligand Field Theory (pilot matlab implementation)
   Alexander A. Auer      : GIAO ZORA, VPT2
   Ute Becker             : Parallelization
   Giovanni Bistoni       : ED, misc. LED, open-shell LED, HFLED
   Martin Brehm           : Molecular dynamics
   Dmytro Bykov           : SCF Hessian
   Vijay G. Chilkuri      : MRCI spin determinant printing, contributions to CSF-ICE
   Dipayan Datta          : RHF DLPNO-CCSD density
   Achintya Kumar Dutta   : EOM-CC, STEOM-CC
   Dmitry Ganyushin       : Spin-Orbit,Spin-Spin,Magnetic field MRCI
   Miquel Garcia          : C-PCM Hessian, Gaussian charge scheme
   Yang Guo               : DLPNO-NEVPT2, CIM, IAO-localization
   Andreas Hansen         : Spin unrestricted coupled pair/coupled cluster methods
   Benjamin Helmich-Paris : CASSCF linear response (MC-RPA)
   Lee Huntington         : MR-EOM, pCC
   Robert Izsak           : Overlap fitted RIJCOSX, COSX-SCS-MP3, EOM
   Christian Kollmar      : KDIIS, OOCD, Brueckner-CCSD(T), CCSD density
   Simone Kossmann        : Meta GGA functionals, TD-DFT gradient, OOMP2, MP2 Hessian
   Martin Krupicka        : AUTO-CI
   Lucas Lang             : DCDCAS
   Dagmar Lenk            : GEPOL surface, SMD
   Dimitrios Liakos       : Extrapolation schemes; Compound Job, initial MDCI parallelization
   Dimitrios Manganas     : Further ROCIS development; embedding schemes
   Dimitrios Pantazis     : SARC Basis sets
   Taras Petrenko         : DFT Hessian,TD-DFT gradient, ASA, ECA, R-Raman, ABS, FL, XAS/XES, NRVS
   Peter Pinski           : DLPNO-MP2, DLPNO-MP2 Gradient
   Christoph Reimann      : Effective Core Potentials
   Marius Retegan         : Local ZFS, SOC
   Christoph Riplinger    : Optimizer, TS searches, QM/MM, DLPNO-CCSD(T), (RO)-DLPNO pert. Triples
   Tobias Risthaus        : Range-separated hybrids, TD-DFT gradient, RPA, STAB
   Michael Roemelt        : Original ROCIS implementation
   Masaaki Saitow         : Open-shell DLPNO-CCSD energy and density
   Barbara Sandhoefer     : DKH picture change effects
   Avijit Sen             : IP-ROCIS
   Kantharuban Sivalingam : CASSCF convergence, NEVPT2, FIC-MRCI
   Bernardo de Souza      : ESD, SOC TD-DFT
   Georgi Stoychev        : AutoAux, RI-MP2 NMR
   Willem Van den Heuvel  : Paramagnetic NMR
   Boris Wezisla          : Elementary symmetry handling
   Frank Wennmohs         : Technical directorship


 We gratefully acknowledge several colleagues who have allowed us to
 interface, adapt or use parts of their codes:
   Stefan Grimme, W. Hujo, H. Kruse,             : VdW corrections, initial TS optimization,
                  C. Bannwarth                     DFT functionals, gCP, sTDA/sTD-DF
   Ed Valeev, F. Pavosevic, A. Kumar             : LibInt (2-el integral package), F12 methods
   Garnet Chan, S. Sharma, J. Yang, R. Olivares  : DMRG
   Ulf Ekstrom                                   : XCFun DFT Library
   Mihaly Kallay                                 : mrcc  (arbitrary order and MRCC methods)
   Andreas Klamt, Michael Diedenhofen            : otool_cosmo (COSMO solvation model)
   Jiri Pittner, Ondrej Demel                    : Mk-CCSD
   Frank Weinhold                                : gennbo (NPA and NBO analysis)
   Christopher J. Cramer and Donald G. Truhlar   : smd solvation model
   Lars Goerigk                                  : TD-DFT with DH, B97 family of functionals
   V. Asgeirsson, H. Jonsson                     : NEB implementation
   FAccTs GmbH                                   : IRC, NEB, NEB-TS, Multilevel, MM, QM/MM, CI optimization
   S Lehtola, MJT Oliveira, MAL Marques          : LibXC Library


 Your calculation uses the libint2 library for the computation of 2-el integrals
 For citations please refer to: http://libint.valeyev.net

 Your ORCA version has been built with support for libXC version: 4.2.3
 For citations please refer to: https://tddft.org/programs/libxc/

 This ORCA versions uses:
   CBLAS   interface :  Fast vector & matrix operations
   LAPACKE interface :  Fast linear algebra routines
   SCALAPACK package :  Parallel linear algebra routines




***************************************
The coordinates will be read from file: 2.xyz
***************************************


Your calculation utilizes the atom-pairwise dispersion correction
with the Becke-Johnson damping scheme (D3BJ)
Cite in your paper:
S.Grimme, S.Ehrlich, L.Goerigk, J Comput Chem, (2011), 32, 1456–1465 
S.Grimme, J.Antony, S.Ehrlich and H.Krieg, J.Chem.Phys., 132, (2010), 154104 
   

----- Orbital basis set information -----
Your calculation utilizes the basis: def2-TZVP
   F. Weigend and R. Ahlrichs, Phys. Chem. Chem. Phys. 7, 3297 (2005).

----- AuxJ basis set information -----
Your calculation utilizes the auxiliary basis: def2/J
   F. Weigend, Phys. Chem. Chem. Phys. 8, 1057 (2006).

================================================================================
                                        WARNINGS
                       Please study these warnings very carefully!
================================================================================


WARNING: Geometry Optimization
  ===> : Switching off AutoStart
         For restart on a previous wavefunction, please use MOREAD

INFO   : the flag for use of LIBINT has been found!

================================================================================
                                       INPUT FILE
================================================================================
NAME = 2.inp
|  1> !RI BP86 def2-tzvp def2/J D3BJ TIGHTSCF TightOpt Grid5 FinalGrid6 freq
|  2> %maxcore 4000
|  3> %pal nprocs 24
|  4> end
|  5> * xyzfile 0 1 2.xyz 
|  6> 
|  7>                          ****END OF INPUT****
================================================================================

                       *****************************
                       * Geometry Optimization Run *
                       *****************************

Geometry optimization settings:
Update method            Update   .... BFGS
Choice of coordinates    CoordSys .... Z-matrix Internals
Initial Hessian          InHess   .... Almoef's Model

Convergence Tolerances:
Energy Change            TolE     ....  1.0000e-06 Eh
Max. Gradient            TolMAXG  ....  1.0000e-04 Eh/bohr
RMS Gradient             TolRMSG  ....  3.0000e-05 Eh/bohr
Max. Displacement        TolMAXD  ....  1.0000e-03 bohr
RMS Displacement         TolRMSD  ....  6.0000e-04 bohr
Strict Convergence                ....  False
------------------------------------------------------------------------------
                        ORCA OPTIMIZATION COORDINATE SETUP
------------------------------------------------------------------------------

The optimization will be done in new redundant internal coordinates
Making redundant internal coordinates   ...  (new redundants) done
Evaluating the initial hessian          ...  (Almloef) done
Evaluating the coordinates              ...  done
Calculating the B-matrix                .... done
Calculating the G-matrix                .... done
Diagonalizing the G-matrix              .... done
Small eigenvalue found = 7.211e-04
Small eigenvalue found = 1.641e-03
Small eigenvalue found = 3.134e-03
Small eigenvalue found = 3.513e-03
Small eigenvalue found = 4.761e-03
Small eigenvalue found = 5.464e-03
Small eigenvalue found = 5.944e-03
Small eigenvalue found = 7.309e-03
Small eigenvalue found = 8.957e-03
Small eigenvalue found = 1.192e-02
Small eigenvalue found = 1.292e-02
Small eigenvalue found = 1.389e-02
Small eigenvalue found = 1.831e-02
Small eigenvalue found = 1.938e-02
Small eigenvalue found = 2.074e-02
Small eigenvalue found = 2.362e-02
Small eigenvalue found = 2.597e-02
The first mode is                       ....  328
The number of degrees of freedom        ....  339

    -----------------------------------------------------------------
                    Redundant Internal Coordinates


    -----------------------------------------------------------------
         Definition                    Initial Value    Approx d2E/dq
    -----------------------------------------------------------------
      1. B(C   1,O   0)                  1.2301         1.006963   
      2. B(C   2,C   1)                  1.5383         0.362368   
      3. B(C   3,C   2)                  1.5382         0.362477   
      4. B(C   4,C   3)                  1.5345         0.367386   
      5. B(C   5,C   4)                  1.5301         0.373384   
      6. B(N   6,C   2)                  1.4714         0.415000   
      7. B(N   6,C   5)                  1.4821         0.398999   
      8. B(C   7,N   6)                  1.3603         0.624060   
      9. B(O   8,C   7)                  1.2411         0.966953   
     10. B(N   9,C   1)                  1.3610         0.622485   
     11. B(C  10,N   9)                  1.4530         0.443911   
     12. B(C  11,C  10)                  1.5451         0.353417   
     13. B(N  12,C  11)                  1.3738         0.593839   
     14. B(C  13,N  12)                  1.4559         0.439251   
     15. B(C  14,C  13)                  1.5491         0.348222   
     16. B(N  15,C  14)                  1.3478         0.653454   
     17. B(C  16,N  15)                  1.4621         0.429395   
     18. B(C  17,C  16)                  1.5367         0.364473   
     19. B(C  18,C  17)                  1.5485         0.349034   
     20. B(C  19,C  18)                  1.5455         0.352861   
     21. B(N  20,C  19)                  1.3628         0.618370   
     22. B(C  21,N  20)                  1.4495         0.449742   
     23. B(C  22,C  21)                  1.5418         0.357786   
     24. B(N  23,C  22)                  1.3626         0.618954   
     25. B(C  24,C   7)                  1.5429         0.356248   
     26. B(C  24,N  23)                  1.4603         0.432264   
     27. B(C  25,C  24)                  1.5253         0.380025   
     28. B(O  26,C  22)                  1.2326         0.997851   
     29. B(C  27,C  21)                  1.5417         0.357796   
     30. B(C  28,C  27)                  1.5356         0.365991   
     31. B(C  29,C  28)                  1.5322         0.370510   
     32. B(C  30,C  28)                  1.5320         0.370801   
     33. B(O  31,C  19)                  1.2284         1.013345   
     34. B(C  32,C  18)                  1.5322         0.370505   
     35. B(C  33,C  32)                  1.5151         0.394611   
     36. B(C  34,C  33)                  1.5357         0.365769   
     37. B(C  35,C  34)                  1.5306         0.372729   
     38. B(C  36,C  35)                  1.5289         0.375144   
     39. B(C  37,C  36)                  1.5302         0.373251   
     40. B(C  38,C  37)                  1.5300         0.373578   
     41. B(C  39,C  38)                  1.5295         0.374273   
     42. B(C  40,C  39)                  1.5304         0.372974   
     43. B(C  41,C  40)                  1.5297         0.374027   
     44. B(O  42,C  32)                  1.2243         1.028565   
     45. B(O  43,C  17)                  1.4134         0.513492   
     46. B(O  44,C  14)                  1.2420         0.963839   
     47. B(C  45,C  13)                  1.5449         0.353636   
     48. B(C  46,C  45)                  1.5299         0.373760   
     49. B(O  47,C  11)                  1.2298         1.008128   
     50. B(C  48,C  10)                  1.5485         0.349045   
     51. B(C  49,C  48)                  1.5335         0.368783   
     52. B(C  50,C  48)                  1.5325         0.370214   
     53. B(H  51,C   2)                  1.0993         0.348018   
     54. B(H  52,C   3)                  1.0998         0.347347   
     55. B(H  53,C   3)                  1.0956         0.352822   
     56. B(H  54,C   4)                  1.1006         0.346315   
     57. B(H  55,C   4)                  1.0968         0.351243   
     58. B(H  56,C   5)                  1.0961         0.352153   
     59. B(H  57,C   5)                  1.1030         0.343281   
     60. B(H  58,N   9)                  1.0171         0.421522   
     61. B(H  59,C  10)                  1.1046         0.341286   
     62. B(H  60,N  12)                  1.0218         0.414303   
     63. B(H  61,C  13)                  1.1028         0.343502   
     64. B(H  62,N  15)                  1.0151         0.424725   
     65. B(H  63,C  16)                  1.0979         0.349737   
     66. B(H  64,C  16)                  1.0972         0.350714   
     67. B(H  65,C  17)                  1.1111         0.333236   
     68. B(H  66,C  18)                  1.1008         0.346110   
     69. B(H  67,H  58)                  3.4979         0.000010   
     70. B(H  67,N  20)                  1.0213         0.415069   
     71. B(H  68,C  21)                  1.0984         0.349213   
     72. B(H  69,O  44)                  1.8361         0.020808   
     73. B(H  69,N  23)                  1.0250         0.409534   
     74. B(H  70,C  24)                  1.0984         0.349160   
     75. B(H  71,C  25)                  1.0974         0.350469   
     76. B(H  72,C  25)                  1.0985         0.349017   
     77. B(H  73,C  25)                  1.0977         0.350009   
     78. B(H  74,C  27)                  1.1009         0.345995   
     79. B(H  75,C  27)                  1.1055         0.340136   
     80. B(H  76,C  28)                  1.1042         0.341838   
     81. B(H  77,C  29)                  1.0991         0.348202   
     82. B(H  78,C  29)                  1.0998         0.347430   
     83. B(H  79,C  29)                  1.1017         0.344954   
     84. B(H  80,C  30)                  1.0998         0.347327   
     85. B(H  81,C  30)                  1.1014         0.345344   
     86. B(H  82,C  30)                  1.0995         0.347705   
     87. B(H  83,C  33)                  1.0992         0.348130   
     88. B(H  84,C  33)                  1.1045         0.341388   
     89. B(H  85,C  34)                  1.1013         0.345479   
     90. B(H  86,H  77)                  4.0696         0.000001   
     91. B(H  86,O  47)                  3.8106         0.000015   
     92. B(H  86,C  34)                  1.1028         0.343571   
     93. B(H  87,C  35)                  1.1060         0.339554   
     94. B(H  88,C  35)                  1.1035         0.342734   
     95. B(H  89,C  36)                  1.1038         0.342330   
     96. B(H  90,C  36)                  1.1013         0.345445   
     97. B(H  91,C  37)                  1.1058         0.339742   
     98. B(H  92,C  37)                  1.1043         0.341677   
     99. B(H  93,C  38)                  1.1040         0.342036   
    100. B(H  94,C  38)                  1.1027         0.343677   
    101. B(H  95,C  39)                  1.1054         0.340311   
    102. B(H  96,C  39)                  1.1045         0.341366   
    103. B(H  97,C  40)                  1.1032         0.343053   
    104. B(H  98,C  40)                  1.1033         0.342895   
    105. B(H  99,C  41)                  1.0994         0.347848   
    106. B(H 100,C  41)                  1.1007         0.346181   
    107. B(H 101,C  41)                  1.1011         0.345723   
    108. B(H 102,O  43)                  0.9816         0.480232   
    109. B(H 103,H  91)                  2.2656         0.000918   
    110. B(H 103,C  45)                  1.0955         0.352898   
    111. B(H 104,C  45)                  1.0998         0.347361   
    112. B(H 105,C  46)                  1.0984         0.349115   
    113. B(H 106,C  46)                  1.1005         0.346438   
    114. B(H 107,C  46)                  1.1019         0.344730   
    115. B(H 108,C  48)                  1.1040         0.342070   
    116. B(H 109,H  94)                  3.1135         0.000041   
    117. B(H 109,C  49)                  1.0954         0.353012   
    118. B(H 110,C  49)                  1.1017         0.344965   
    119. B(H 111,C  49)                  1.0995         0.347803   
    120. B(H 112,C  50)                  1.0985         0.349082   
    121. B(H 113,H  80)                  2.4544         0.000459   
    122. B(H 113,C  50)                  1.0991         0.348297   
    123. B(H 114,C  50)                  1.1006         0.346371   
    124. A(O   0,C   1,N   9)          123.8563         0.468132   
    125. A(C   2,C   1,N   9)          116.3457         0.392330   
    126. A(O   0,C   1,C   2)          119.7938         0.427216   
    127. A(C   1,C   2,H  51)          105.2695         0.320904   
    128. A(N   6,C   2,H  51)          109.6738         0.326165   
    129. A(C   1,C   2,N   6)          114.9702         0.365734   
    130. A(C   1,C   2,C   3)          110.9319         0.359613   
    131. A(C   3,C   2,H  51)          112.8290         0.320920   
    132. A(C   3,C   2,N   6)          103.3925         0.365752   
    133. A(C   4,C   3,H  53)          114.4172         0.322350   
    134. A(C   4,C   3,H  52)          110.4330         0.321525   
    135. A(C   2,C   3,C   4)          102.7994         0.360457   
    136. A(C   2,C   3,H  53)          111.0271         0.321640   
    137. A(C   2,C   3,H  52)          109.6660         0.320818   
    138. A(H  52,C   3,H  53)          108.3767         0.288276   
    139. A(H  54,C   4,H  55)          107.9261         0.287939   
    140. A(C   3,C   4,H  55)          113.4970         0.322113   
    141. A(C   3,C   4,C   5)          103.0875         0.362285   
    142. A(C   3,C   4,H  54)          110.1366         0.321369   
    143. A(C   5,C   4,H  55)          112.0703         0.322969   
    144. A(C   5,C   4,H  54)          110.0787         0.322222   
    145. A(H  56,C   5,H  57)          107.7675         0.287660   
    146. A(C   4,C   5,N   6)          102.8659         0.365147   
    147. A(C   4,C   5,H  56)          114.0061         0.323106   
    148. A(N   6,C   5,H  57)          109.7995         0.323336   
    149. A(N   6,C   5,H  56)          111.6106         0.324693   
    150. A(C   4,C   5,H  57)          110.7402         0.321758   
    151. A(C   5,N   6,C   7)          126.6786         0.396639   
    152. A(C   2,N   6,C   7)          120.9184         0.399389   
    153. A(C   2,N   6,C   5)          111.9410         0.369504   
    154. A(O   8,C   7,C  24)          121.6286         0.422837   
    155. A(N   6,C   7,O   8)          121.9029         0.464883   
    156. A(N   6,C   7,C  24)          116.3253         0.391336   
    157. A(C   1,N   9,C  10)          122.4086         0.403976   
    158. A(C  10,N   9,H  58)          118.6760         0.337551   
    159. A(C   1,N   9,H  58)          118.5064         0.357318   
    160. A(C  48,C  10,H  59)          108.6071         0.317932   
    161. A(C  11,C  10,H  59)          108.1745         0.318578   
    162. A(N   9,C  10,C  11)          109.5631         0.368398   
    163. A(N   9,C  10,C  48)          113.3460         0.367612   
    164. A(N   9,C  10,H  59)          104.6543         0.328745   
    165. A(C  11,C  10,C  48)          112.1054         0.355796   
    166. A(N  12,C  11,O  47)          123.0976         0.464209   
    167. A(C  10,C  11,O  47)          122.0875         0.425395   
    168. A(C  10,C  11,N  12)          114.8071         0.387419   
    169. A(C  13,N  12,H  60)          113.2066         0.335990   
    170. A(C  11,N  12,C  13)          119.8223         0.399892   
    171. A(C  11,N  12,H  60)          114.8161         0.353436   
    172. A(C  14,C  13,C  45)          115.9894         0.355691   
    173. A(N  12,C  13,H  61)          105.9284         0.328524   
    174. A(C  14,C  13,H  61)          105.8069         0.318145   
    175. A(N  12,C  13,C  14)          107.6099         0.366799   
    176. A(C  45,C  13,H  61)          108.1037         0.318946   
    177. A(N  12,C  13,C  45)          112.7290         0.367771   
    178. A(C  13,C  14,N  15)          117.6645         0.392930   
    179. A(N  15,C  14,O  44)          122.1131         0.468542   
    180. A(C  13,C  14,O  44)          120.1147         0.420877   
    181. A(C  14,N  15,H  62)          117.5515         0.360748   
    182. A(C  16,N  15,H  62)          117.6777         0.336110   
    183. A(C  14,N  15,C  16)          124.5057         0.405069   
    184. A(H  63,C  16,H  64)          107.5650         0.288315   
    185. A(C  17,C  16,H  64)          110.5353         0.321614   
    186. A(N  15,C  16,H  63)          107.9539         0.328269   
    187. A(C  17,C  16,H  63)          106.7368         0.321467   
    188. A(N  15,C  16,C  17)          114.7678         0.368244   
    189. A(N  15,C  16,H  64)          108.9975         0.328420   
    190. A(O  43,C  17,H  65)          110.7269         0.335443   
    191. A(C  18,C  17,H  65)          105.9090         0.316697   
    192. A(C  16,C  17,H  65)          107.7624         0.318938   
    193. A(C  16,C  17,C  18)          113.7889         0.357660   
    194. A(C  18,C  17,O  43)          113.2034         0.376945   
    195. A(C  16,C  17,O  43)          105.3975         0.379780   
    196. A(C  19,C  18,H  66)          108.7404         0.319226   
    197. A(C  17,C  18,H  66)          107.5839         0.318658   
    198. A(C  17,C  18,C  32)          110.9546         0.358660   
    199. A(C  17,C  18,C  19)          114.2120         0.355699   
    200. A(C  19,C  18,C  32)          106.9404         0.359327   
    201. A(C  32,C  18,H  66)          108.2589         0.321783   
    202. A(C  18,C  19,N  20)          113.2026         0.390058   
    203. A(N  20,C  19,O  31)          124.5053         0.468105   
    204. A(C  18,C  19,O  31)          122.2606         0.425668   
    205. A(C  19,N  20,H  67)          116.7184         0.355981   
    206. A(C  19,N  20,C  21)          124.0628         0.404434   
    207. A(C  21,N  20,H  67)          118.7811         0.337417   
    208. A(C  27,C  21,H  68)          110.5253         0.320418   
    209. A(C  22,C  21,H  68)          106.2670         0.320416   
    210. A(N  20,C  21,H  68)          106.7216         0.330707   
    211. A(N  20,C  21,C  22)          114.2317         0.370005   
    212. A(C  22,C  21,C  27)          108.3561         0.358042   
    213. A(N  20,C  21,C  27)          110.6380         0.370006   
    214. A(C  21,C  22,N  23)          115.5386         0.391069   
    215. A(C  21,C  22,O  26)          120.4800         0.425550   
    216. A(N  23,C  22,O  26)          123.9062         0.466866   
    217. A(C  22,N  23,C  24)          124.1876         0.401684   
    218. A(C  24,N  23,H  69)          116.1389         0.334452   
    219. A(C  22,N  23,H  69)          119.5938         0.355228   
    220. A(C  25,C  24,H  70)          110.4819         0.323588   
    221. A(N  23,C  24,H  70)          105.9756         0.328541   
    222. A(C   7,C  24,H  70)          110.9095         0.320183   
    223. A(N  23,C  24,C  25)          111.3614         0.371322   
    224. A(C   7,C  24,N  23)          106.9019         0.367224   
    225. A(C   7,C  24,C  25)          111.0460         0.361472   
    226. A(H  71,C  25,H  73)          109.4858         0.288318   
    227. A(C  24,C  25,H  73)          110.4029         0.323717   
    228. A(H  71,C  25,H  72)          108.9267         0.288190   
    229. A(C  24,C  25,H  72)          110.6641         0.323567   
    230. A(C  24,C  25,H  71)          109.6557         0.323787   
    231. A(H  72,C  25,H  73)          107.6646         0.288131   
    232. A(C  28,C  27,H  75)          108.8796         0.320225   
    233. A(C  21,C  27,C  28)          114.3193         0.359426   
    234. A(H  74,C  27,H  75)          106.6650         0.286457   
    235. A(C  21,C  27,H  75)          108.6530         0.319042   
    236. A(C  28,C  27,H  74)          110.3619         0.321120   
    237. A(C  21,C  27,H  74)          107.6757         0.319933   
    238. A(C  29,C  28,C  30)          111.3946         0.362379   
    239. A(C  27,C  28,C  30)          109.8222         0.361621   
    240. A(C  27,C  28,C  29)          112.1588         0.361572   
    241. A(C  30,C  28,H  76)          107.8101         0.321171   
    242. A(C  29,C  28,H  76)          107.9079         0.321130   
    243. A(C  27,C  28,H  76)          107.5570         0.320486   
    244. A(C  28,C  29,H  79)          110.7147         0.321607   
    245. A(H  78,C  29,H  79)          107.6046         0.287272   
    246. A(H  77,C  29,H  79)          107.8407         0.287372   
    247. A(H  77,C  29,H  78)          107.7352         0.287693   
    248. A(C  28,C  29,H  78)          110.6126         0.321984   
    249. A(C  28,C  29,H  77)          112.1568         0.322101   
    250. A(H  81,C  30,H  82)          107.7221         0.287358   
    251. A(H  80,C  30,H  82)          107.9353         0.287616   
    252. A(C  28,C  30,H  82)          111.0804         0.322067   
    253. A(H  80,C  30,H  81)          107.7479         0.287309   
    254. A(C  28,C  30,H  81)          110.8524         0.321708   
    255. A(C  28,C  30,H  80)          111.3454         0.322010   
    256. A(C  33,C  32,O  42)          121.7584         0.435465   
    257. A(C  18,C  32,O  42)          120.8250         0.430557   
    258. A(C  18,C  32,C  33)          117.3724         0.366256   
    259. A(C  32,C  33,C  34)          114.5253         0.365450   
    260. A(C  34,C  33,H  84)          109.9428         0.320385   
    261. A(H  83,C  33,H  84)          107.1644         0.286896   
    262. A(C  32,C  33,H  84)          106.2524         0.324394   
    263. A(C  34,C  33,H  83)          111.5518         0.321412   
    264. A(C  32,C  33,H  83)          107.0134         0.325439   
    265. A(C  33,C  34,C  35)          112.9858         0.361903   
    266. A(H  85,C  34,H  86)          105.5738         0.286839   
    267. A(C  35,C  34,H  86)          109.3181         0.321710   
    268. A(C  33,C  34,H  86)          109.8792         0.320719   
    269. A(C  35,C  34,H  85)          110.0306         0.322002   
    270. A(C  33,C  34,H  85)          108.7871         0.321010   
    271. A(C  34,C  35,C  36)          113.2933         0.363471   
    272. A(H  87,C  35,H  88)          105.3407         0.285958   
    273. A(C  36,C  35,H  88)          110.7523         0.321922   
    274. A(C  34,C  35,H  88)          109.6776         0.321582   
    275. A(C  36,C  35,H  87)          108.3338         0.321431   
    276. A(C  34,C  35,H  87)          109.1146         0.321091   
    277. A(C  35,C  36,C  37)          113.0875         0.363558   
    278. A(H  89,C  36,H  90)          106.4116         0.286673   
    279. A(C  37,C  36,H  90)          108.3028         0.322070   
    280. A(C  35,C  36,H  90)          109.0579         0.322338   
    281. A(C  37,C  36,H  89)          109.9072         0.321593   
    282. A(C  35,C  36,H  89)          109.8392         0.321860   
    283. A(C  36,C  37,C  38)          113.2877         0.363298   
    284. A(H  91,C  37,H  92)          105.6403         0.285844   
    285. A(C  38,C  37,H  92)          110.0957         0.321539   
    286. A(C  36,C  37,H  92)          110.3701         0.321493   
    287. A(C  38,C  37,H  91)          108.7236         0.321240   
    288. A(C  36,C  37,H  91)          108.4087         0.321194   
    289. A(C  37,C  38,C  39)          113.3804         0.363468   
    290. A(H  93,C  38,H  94)          106.1662         0.286405   
    291. A(C  39,C  38,H  94)          109.3526         0.321944   
    292. A(C  37,C  38,H  94)          108.5384         0.321846   
    293. A(C  39,C  38,H  93)          109.5395         0.321692   
    294. A(C  37,C  38,H  93)          109.6058         0.321594   
    295. A(C  38,C  39,C  40)          113.5276         0.363367   
    296. A(H  95,C  39,H  96)          105.7338         0.285879   
    297. A(C  40,C  39,H  96)          109.4753         0.321406   
    298. A(C  38,C  39,H  96)          109.8587         0.321589   
    299. A(C  40,C  39,H  95)          108.9601         0.321243   
    300. A(C  38,C  39,H  95)          108.9856         0.321426   
    301. A(C  39,C  40,C  41)          113.1661         0.363327   
    302. A(H  97,C  40,H  98)          105.8937         0.286436   
    303. A(C  41,C  40,H  98)          109.7091         0.321789   
    304. A(C  39,C  40,H  98)          108.9423         0.321641   
    305. A(C  41,C  40,H  97)          109.6829         0.321814   
    306. A(C  39,C  40,H  97)          109.1855         0.321665   
    307. A(H 100,C  41,H 101)          107.4077         0.287210   
    308. A(H  99,C  41,H 101)          107.6405         0.287426   
    309. A(C  40,C  41,H 101)          111.0553         0.322223   
    310. A(H  99,C  41,H 100)          107.6961         0.287485   
    311. A(C  40,C  41,H 100)          111.1329         0.322292   
    312. A(C  40,C  41,H  99)          111.7113         0.322546   
    313. A(C  17,O  43,H 102)          105.0058         0.353573   
    314. A(C  13,C  45,C  46)          115.6239         0.359997   
    315. A(C  46,C  45,H 104)          109.1187         0.322434   
    316. A(C  13,C  45,H 104)          105.3587         0.319528   
    317. A(C  46,C  45,H 103)          110.9373         0.323272   
    318. A(C  13,C  45,H 103)          109.0195         0.320355   
    319. A(H 103,C  45,H 104)          106.2402         0.288287   
    320. A(H 106,C  46,H 107)          108.7593         0.287114   
    321. A(H 105,C  46,H 107)          107.1954         0.287460   
    322. A(C  45,C  46,H 107)          112.1293         0.322033   
    323. A(H 105,C  46,H 106)          105.7914         0.287682   
    324. A(C  45,C  46,H 106)          112.7171         0.322294   
    325. A(C  45,C  46,H 105)          109.9122         0.322701   
    326. A(C  50,C  48,H 108)          109.0811         0.321123   
    327. A(C  49,C  48,H 108)          108.2912         0.320920   
    328. A(C  10,C  48,H 108)          107.6037         0.318051   
    329. A(C  49,C  48,C  50)          110.2934         0.361992   
    330. A(C  10,C  48,C  50)          111.0272         0.358614   
    331. A(C  10,C  48,C  49)          110.4539         0.358378   
    332. A(H 110,C  49,H 111)          107.6728         0.287321   
    333. A(H 109,C  49,H 111)          108.3723         0.288359   
    334. A(C  48,C  49,H 111)          110.3223         0.321794   
    335. A(H 109,C  49,H 110)          108.8160         0.287990   
    336. A(C  48,C  49,H 110)          110.2120         0.321363   
    337. A(C  48,C  49,H 109)          111.3459         0.322579   
    338. A(H 113,C  50,H 114)          107.8698         0.287568   
    339. A(H 112,C  50,H 114)          107.8048         0.287669   
    340. A(C  48,C  50,H 114)          110.9334         0.321781   
    341. A(H 112,C  50,H 113)          107.7498         0.287919   
    342. A(C  48,C  50,H 113)          110.0410         0.322073   
    343. A(C  48,C  50,H 112)          112.2795         0.322192   
    344. D(H  51,C   2,C   1,N   9)   -119.1593         0.009864   
    345. D(C   3,C   2,C   1,N   9)    118.4956         0.009864   
    346. D(N   6,C   2,C   1,N   9)      1.6442         0.009864   
    347. D(N   6,C   2,C   1,O   0)   -179.0748         0.009864   
    348. D(C   3,C   2,C   1,O   0)    -62.2234         0.009864   
    349. D(H  51,C   2,C   1,O   0)     60.1217         0.009864   
    350. D(C   4,C   3,C   2,N   6)     31.2039         0.010531   
    351. D(H  53,C   3,C   2,H  51)    -87.6053         0.010531   
    352. D(H  53,C   3,C   2,C   1)     30.2311         0.010531   
    353. D(C   4,C   3,C   2,H  51)    149.6100         0.010531   
    354. D(H  53,C   3,C   2,N   6)    153.9887         0.010531   
    355. D(H  52,C   3,C   2,H  51)     32.1341         0.010531   
    356. D(C   4,C   3,C   2,C   1)    -92.5537         0.010531   
    357. D(H  52,C   3,C   2,C   1)    149.9705         0.010531   
    358. D(H  52,C   3,C   2,N   6)    -86.2719         0.010531   
    359. D(H  55,C   4,C   3,H  53)     77.9024         0.010799   
    360. D(H  55,C   4,C   3,H  52)    -44.6867         0.010799   
    361. D(H  54,C   4,C   3,H  52)   -165.8100         0.010799   
    362. D(H  55,C   4,C   3,C   2)   -161.6180         0.010799   
    363. D(H  54,C   4,C   3,H  53)    -43.2209         0.010799   
    364. D(C   5,C   4,C   3,C   2)    -40.1708         0.010799   
    365. D(H  54,C   4,C   3,C   2)     77.2587         0.010799   
    366. D(C   5,C   4,C   3,H  53)   -160.6504         0.010799   
    367. D(C   5,C   4,C   3,H  52)     76.7605         0.010799   
    368. D(N   6,C   5,C   4,C   3)     33.1584         0.011133   
    369. D(H  57,C   5,C   4,C   3)    -84.1010         0.011133   
    370. D(H  56,C   5,C   4,H  55)    -83.4168         0.011133   
    371. D(H  56,C   5,C   4,C   3)    154.1742         0.011133   
    372. D(H  57,C   5,C   4,H  54)    158.4287         0.011133   
    373. D(H  56,C   5,C   4,H  54)     36.7039         0.011133   
    374. D(H  57,C   5,C   4,H  55)     38.3080         0.011133   
    375. D(N   6,C   5,C   4,H  54)    -84.3118         0.011133   
    376. D(N   6,C   5,C   4,H  55)    155.5674         0.011133   
    377. D(C   5,N   6,C   2,C   3)    -10.8473         0.014688   
    378. D(C   7,N   6,C   5,H  57)    -68.3013         0.013594   
    379. D(C   7,N   6,C   5,H  56)     51.1357         0.013594   
    380. D(C   7,N   6,C   5,C   4)    173.7746         0.013594   
    381. D(C   2,N   6,C   5,H  57)    103.8885         0.013594   
    382. D(C   2,N   6,C   5,H  56)   -136.6746         0.013594   
    383. D(C   7,N   6,C   2,H  51)     41.2782         0.014688   
    384. D(C   2,N   6,C   5,C   4)    -14.0357         0.013594   
    385. D(C   7,N   6,C   2,C   3)    161.8542         0.014688   
    386. D(C   5,N   6,C   2,C   1)    110.2161         0.014688   
    387. D(C   7,N   6,C   2,C   1)    -77.0824         0.014688   
    388. D(C   5,N   6,C   2,H  51)   -131.4233         0.014688   
    389. D(C  24,C   7,N   6,C   5)     -7.0702         0.031568   
    390. D(C  24,C   7,N   6,C   2)   -178.6212         0.031568   
    391. D(O   8,C   7,N   6,C   5)    177.2145         0.031568   
    392. D(O   8,C   7,N   6,C   2)      5.6635         0.031568   
    393. D(H  58,N   9,C   1,O   0)   -177.4529         0.031396   
    394. D(C  10,N   9,C   1,C   2)    174.3530         0.031396   
    395. D(H  58,N   9,C   1,C   2)      1.7957         0.031396   
    396. D(C  10,N   9,C   1,O   0)     -4.8956         0.031396   
    397. D(H  59,C  10,N   9,C   1)     -1.8858         0.016805   
    398. D(C  48,C  10,N   9,H  58)    -71.1711         0.016805   
    399. D(C  48,C  10,N   9,C   1)    116.2837         0.016805   
    400. D(C  11,C  10,N   9,C   1)   -117.6758         0.016805   
    401. D(H  59,C  10,N   9,H  58)    170.6595         0.016805   
    402. D(C  11,C  10,N   9,H  58)     54.8695         0.016805   
    403. D(O  47,C  11,C  10,N   9)   -143.5635         0.009421   
    404. D(N  12,C  11,C  10,H  59)    -76.1102         0.009421   
    405. D(N  12,C  11,C  10,C  48)    164.1663         0.009421   
    406. D(N  12,C  11,C  10,N   9)     37.4207         0.009421   
    407. D(O  47,C  11,C  10,H  59)    102.9056         0.009421   
    408. D(O  47,C  11,C  10,C  48)    -16.8180         0.009421   
    409. D(H  60,N  12,C  11,O  47)    163.7213         0.028374   
    410. D(H  60,N  12,C  11,C  10)    -17.2741         0.028374   
    411. D(C  13,N  12,C  11,O  47)     23.7729         0.028374   
    412. D(C  13,N  12,C  11,C  10)   -157.2225         0.028374   
    413. D(H  61,C  13,N  12,C  11)    175.0410         0.016452   
    414. D(H  61,C  13,N  12,H  60)     34.4962         0.016452   
    415. D(C  45,C  13,N  12,H  60)    152.5243         0.016452   
    416. D(C  45,C  13,N  12,C  11)    -66.9309         0.016452   
    417. D(C  14,C  13,N  12,C  11)     62.2243         0.016452   
    418. D(C  14,C  13,N  12,H  60)    -78.3205         0.016452   
    419. D(O  44,C  14,C  13,C  45)    124.0153         0.009171   
    420. D(O  44,C  14,C  13,N  12)     -3.2648         0.009171   
    421. D(N  15,C  14,C  13,H  61)     60.1426         0.009171   
    422. D(N  15,C  14,C  13,C  45)    -59.6786         0.009171   
    423. D(O  44,C  14,C  13,H  61)   -116.1635         0.009171   
    424. D(N  15,C  14,C  13,N  12)    173.0413         0.009171   
    425. D(H  62,N  15,C  14,O  44)    179.2967         0.034880   
    426. D(H  62,N  15,C  14,C  13)      3.0693         0.034880   
    427. D(C  16,N  15,C  14,O  44)      5.3631         0.034880   
    428. D(C  16,N  15,C  14,C  13)   -170.8643         0.034880   
    429. D(H  64,C  16,N  15,H  62)   -145.7083         0.015720   
    430. D(H  64,C  16,N  15,C  14)     28.2183         0.015720   
    431. D(H  63,C  16,N  15,H  62)    -29.1527         0.015720   
    432. D(H  63,C  16,N  15,C  14)    144.7739         0.015720   
    433. D(C  17,C  16,N  15,C  14)    -96.3520         0.015720   
    434. D(C  17,C  16,N  15,H  62)     89.7213         0.015720   
    435. D(H  65,C  17,C  16,H  64)   -164.1058         0.010640   
    436. D(H  65,C  17,C  16,H  63)     79.2041         0.010640   
    437. D(H  65,C  17,C  16,N  15)    -40.3497         0.010640   
    438. D(O  43,C  17,C  16,H  64)     77.6203         0.010640   
    439. D(O  43,C  17,C  16,H  63)    -39.0698         0.010640   
    440. D(O  43,C  17,C  16,N  15)   -158.6237         0.010640   
    441. D(C  18,C  17,C  16,H  64)    -46.9914         0.010640   
    442. D(C  18,C  17,C  16,H  63)   -163.6814         0.010640   
    443. D(C  18,C  17,C  16,N  15)     76.7647         0.010640   
    444. D(H  66,C  18,C  17,H  65)     61.3784         0.009820   
    445. D(H  66,C  18,C  17,O  43)   -177.1162         0.009820   
    446. D(H  66,C  18,C  17,C  16)    -56.8066         0.009820   
    447. D(C  32,C  18,C  17,O  43)     64.6347         0.009820   
    448. D(C  32,C  18,C  17,C  16)   -175.0558         0.009820   
    449. D(C  32,C  18,C  17,H  65)    -56.8708         0.009820   
    450. D(C  19,C  18,C  17,H  65)   -177.8220         0.009820   
    451. D(C  19,C  18,C  17,O  43)    -56.3165         0.009820   
    452. D(C  19,C  18,C  17,C  16)     63.9930         0.009820   
    453. D(O  31,C  19,C  18,H  66)   -162.8335         0.009394   
    454. D(O  31,C  19,C  18,C  32)    -46.1412         0.009394   
    455. D(O  31,C  19,C  18,C  17)     77.0116         0.009394   
    456. D(N  20,C  19,C  18,H  66)     15.2103         0.009394   
    457. D(N  20,C  19,C  18,C  17)   -104.9447         0.009394   
    458. D(N  20,C  19,C  18,C  32)    131.9025         0.009394   
    459. D(H  67,N  20,C  19,O  31)   -176.2121         0.030951   
    460. D(H  67,N  20,C  19,C  18)      5.7953         0.030951   
    461. D(C  21,N  20,C  19,O  31)     -3.9173         0.030951   
    462. D(C  21,N  20,C  19,C  18)    178.0901         0.030951   
    463. D(H  68,C  21,N  20,H  67)   -179.8580         0.017255   
    464. D(H  68,C  21,N  20,C  19)      7.9955         0.017255   
    465. D(C  27,C  21,N  20,H  67)    -59.5693         0.017255   
    466. D(C  27,C  21,N  20,C  19)    128.2842         0.017255   
    467. D(C  22,C  21,N  20,H  67)     63.0154         0.017255   
    468. D(C  22,C  21,N  20,C  19)   -109.1311         0.017255   
    469. D(N  23,C  22,C  21,C  27)    108.7550         0.009636   
    470. D(N  23,C  22,C  21,N  20)    -15.0645         0.009636   
    471. D(O  26,C  22,C  21,H  68)     50.5795         0.009636   
    472. D(O  26,C  22,C  21,C  27)    -68.2132         0.009636   
    473. D(O  26,C  22,C  21,N  20)    167.9674         0.009636   
    474. D(N  23,C  22,C  21,H  68)   -132.4523         0.009636   
    475. D(H  69,N  23,C  22,O  26)    175.8299         0.031014   
    476. D(H  69,N  23,C  22,C  21)     -1.0217         0.031014   
    477. D(C  24,N  23,C  22,O  26)     -0.7943         0.031014   
    478. D(C  24,N  23,C  22,C  21)   -177.6460         0.031014   
    479. D(H  70,C  24,N  23,H  69)   -176.2240         0.015931   
    480. D(H  70,C  24,N  23,C  22)      0.5063         0.015931   
    481. D(C  25,C  24,N  23,H  69)     63.5913         0.015931   
    482. D(C  25,C  24,N  23,C  22)   -119.6784         0.015931   
    483. D(C   7,C  24,N  23,H  69)    -57.8659         0.015931   
    484. D(C   7,C  24,N  23,C  22)    118.8644         0.015931   
    485. D(H  70,C  24,C   7,O   8)   -154.0338         0.009560   
    486. D(H  70,C  24,C   7,N   6)     30.2382         0.009560   
    487. D(C  25,C  24,C   7,O   8)    -30.7791         0.009560   
    488. D(C  25,C  24,C   7,N   6)    153.4929         0.009560   
    489. D(N  23,C  24,C   7,O   8)     90.8774         0.009560   
    490. D(N  23,C  24,C   7,N   6)    -84.8507         0.009560   
    491. D(H  73,C  25,C  24,H  70)    179.3534         0.011510   
    492. D(H  73,C  25,C  24,N  23)    -63.1583         0.011510   
    493. D(H  73,C  25,C  24,C   7)     55.8536         0.011510   
    494. D(H  72,C  25,C  24,H  70)     60.2558         0.011510   
    495. D(H  72,C  25,C  24,N  23)    177.7441         0.011510   
    496. D(H  72,C  25,C  24,C   7)    -63.2441         0.011510   
    497. D(H  71,C  25,C  24,H  70)    -59.9310         0.011510   
    498. D(H  71,C  25,C  24,N  23)     57.5573         0.011510   
    499. D(H  71,C  25,C  24,C   7)    176.5691         0.011510   
    500. D(H  75,C  27,C  21,H  68)   -173.7965         0.010280   
    501. D(H  75,C  27,C  21,C  22)    -57.7335         0.010280   
    502. D(H  75,C  27,C  21,N  20)     68.2147         0.010280   
    503. D(H  74,C  27,C  21,H  68)    -58.6304         0.010280   
    504. D(H  74,C  27,C  21,C  22)     57.4327         0.010280   
    505. D(H  74,C  27,C  21,N  20)   -176.6192         0.010280   
    506. D(C  28,C  27,C  21,H  68)     64.3783         0.010280   
    507. D(C  28,C  27,C  21,C  22)   -179.5587         0.010280   
    508. D(C  28,C  27,C  21,N  20)    -53.6106         0.010280   
    509. D(H  76,C  28,C  27,H  75)    -60.7547         0.010723   
    510. D(H  76,C  28,C  27,H  74)   -177.5115         0.010723   
    511. D(H  76,C  28,C  27,C  21)     60.9462         0.010723   
    512. D(C  30,C  28,C  27,H  75)     56.3141         0.010723   
    513. D(C  30,C  28,C  27,H  74)    -60.4427         0.010723   
    514. D(C  30,C  28,C  27,C  21)    178.0150         0.010723   
    515. D(C  29,C  28,C  27,H  75)   -179.2498         0.010723   
    516. D(C  29,C  28,C  27,H  74)     63.9935         0.010723   
    517. D(C  29,C  28,C  27,C  21)    -57.5489         0.010723   
    518. D(H  79,C  29,C  28,C  30)     64.6603         0.010972   
    519. D(H  79,C  29,C  28,C  27)    -58.8990         0.010972   
    520. D(H  78,C  29,C  28,H  76)     63.6238         0.010972   
    521. D(H  78,C  29,C  28,C  30)    -54.5293         0.010972   
    522. D(H  78,C  29,C  28,C  27)   -178.0887         0.010972   
    523. D(H  77,C  29,C  28,H  76)    -56.6787         0.010972   
    524. D(H  77,C  29,C  28,C  30)   -174.8319         0.010972   
    525. D(H  79,C  29,C  28,H  76)   -177.1865         0.010972   
    526. D(H  77,C  29,C  28,C  27)     61.6088         0.010972   
    527. D(H  82,C  30,C  28,H  76)    -59.7210         0.010988   
    528. D(H  82,C  30,C  28,C  29)     58.4909         0.010988   
    529. D(H  82,C  30,C  28,C  27)   -176.6314         0.010988   
    530. D(H  81,C  30,C  28,H  76)   -179.4521         0.010988   
    531. D(H  81,C  30,C  28,C  29)    -61.2402         0.010988   
    532. D(H  81,C  30,C  28,C  27)     63.6375         0.010988   
    533. D(H  80,C  30,C  28,H  76)     60.6089         0.010988   
    534. D(H  80,C  30,C  28,C  29)    178.8209         0.010988   
    535. D(H  80,C  30,C  28,C  27)    -56.3014         0.010988   
    536. D(O  42,C  32,C  18,H  66)   -135.8941         0.010278   
    537. D(O  42,C  32,C  18,C  19)    107.0955         0.010278   
    538. D(O  42,C  32,C  18,C  17)    -18.0548         0.010278   
    539. D(C  33,C  32,C  18,H  66)     46.4852         0.010278   
    540. D(C  33,C  32,C  18,C  19)    -70.5252         0.010278   
    541. D(C  33,C  32,C  18,C  17)    164.3245         0.010278   
    542. D(H  84,C  33,C  32,O  42)   -103.0225         0.011571   
    543. D(H  84,C  33,C  32,C  18)     74.5745         0.011571   
    544. D(H  83,C  33,C  32,O  42)     11.2243         0.011571   
    545. D(H  83,C  33,C  32,C  18)   -171.1786         0.011571   
    546. D(C  34,C  33,C  32,O  42)    135.4087         0.011571   
    547. D(C  34,C  33,C  32,C  18)    -46.9942         0.011571   
    548. D(H  86,C  34,C  33,H  84)    -52.9965         0.010710   
    549. D(H  86,C  34,C  33,H  83)   -171.7372         0.010710   
    550. D(H  86,C  34,C  33,C  32)     66.5280         0.010710   
    551. D(H  85,C  34,C  33,H  84)     62.1263         0.010710   
    552. D(H  85,C  34,C  33,H  83)    -56.6144         0.010710   
    553. D(H  85,C  34,C  33,C  32)   -178.3491         0.010710   
    554. D(C  35,C  34,C  33,H  84)   -175.3738         0.010710   
    555. D(C  35,C  34,C  33,H  83)     65.8856         0.010710   
    556. D(C  35,C  34,C  33,C  32)    -55.8492         0.010710   
    557. D(H  88,C  35,C  34,H  86)    175.9634         0.011096   
    558. D(H  88,C  35,C  34,H  85)     60.4567         0.011096   
    559. D(H  88,C  35,C  34,C  33)    -61.3461         0.011096   
    560. D(H  87,C  35,C  34,H  86)    -69.1201         0.011096   
    561. D(H  87,C  35,C  34,H  85)    175.3731         0.011096   
    562. D(H  87,C  35,C  34,C  33)     53.5703         0.011096   
    563. D(C  36,C  35,C  34,H  86)     51.6542         0.011096   
    564. D(C  36,C  35,C  34,H  85)    -63.8526         0.011096   
    565. D(C  36,C  35,C  34,C  33)    174.3446         0.011096   
    566. D(H  90,C  36,C  35,H  87)     73.3989         0.011232   
    567. D(H  90,C  36,C  35,C  34)    -47.8159         0.011232   
    568. D(H  89,C  36,C  35,H  88)    -55.2805         0.011232   
    569. D(H  89,C  36,C  35,H  87)   -170.3428         0.011232   
    570. D(H  89,C  36,C  35,C  34)     68.4424         0.011232   
    571. D(C  37,C  36,C  35,H  88)     67.9013         0.011232   
    572. D(C  37,C  36,C  35,H  87)    -47.1610         0.011232   
    573. D(H  90,C  36,C  35,H  88)   -171.5388         0.011232   
    574. D(C  37,C  36,C  35,C  34)   -168.3758         0.011232   
    575. D(H  92,C  37,C  36,H  90)    175.9620         0.011125   
    576. D(H  92,C  37,C  36,H  89)     60.0947         0.011125   
    577. D(H  92,C  37,C  36,C  35)    -63.0494         0.011125   
    578. D(H  91,C  37,C  36,H  90)    -68.7816         0.011125   
    579. D(H  91,C  37,C  36,H  89)    175.3511         0.011125   
    580. D(H  91,C  37,C  36,C  35)     52.2070         0.011125   
    581. D(C  38,C  37,C  36,H  90)     51.9871         0.011125   
    582. D(C  38,C  37,C  36,H  89)    -63.8802         0.011125   
    583. D(C  38,C  37,C  36,C  35)    172.9757         0.011125   
    584. D(H  94,C  38,C  37,H  92)   -175.4651         0.011144   
    585. D(H  94,C  38,C  37,H  91)     69.2499         0.011144   
    586. D(H  94,C  38,C  37,C  36)    -51.3406         0.011144   
    587. D(H  93,C  38,C  37,H  92)    -59.9225         0.011144   
    588. D(H  93,C  38,C  37,H  91)   -175.2075         0.011144   
    589. D(H  93,C  38,C  37,C  36)     64.2021         0.011144   
    590. D(C  39,C  38,C  37,H  92)     62.8154         0.011144   
    591. D(C  39,C  38,C  37,H  91)    -52.4696         0.011144   
    592. D(C  39,C  38,C  37,C  36)   -173.0601         0.011144   
    593. D(H  95,C  39,C  38,H  94)    -66.4309         0.011183   
    594. D(H  95,C  39,C  38,H  93)    177.6069         0.011183   
    595. D(H  95,C  39,C  38,C  37)     54.8323         0.011183   
    596. D(C  40,C  39,C  38,H  94)     55.2070         0.011183   
    597. D(C  40,C  39,C  38,H  93)    -60.7553         0.011183   
    598. D(C  40,C  39,C  38,C  37)    176.4702         0.011183   
    599. D(H  96,C  39,C  38,H  94)    178.1547         0.011183   
    600. D(H  96,C  39,C  38,H  93)     62.1925         0.011183   
    601. D(H  96,C  39,C  38,C  37)    -60.5821         0.011183   
    602. D(H  98,C  40,C  39,H  95)     65.4950         0.011110   
    603. D(H  98,C  40,C  39,C  38)    -56.1571         0.011110   
    604. D(H  97,C  40,C  39,H  96)    -64.1029         0.011110   
    605. D(H  97,C  40,C  39,H  95)   -179.2924         0.011110   
    606. D(H  97,C  40,C  39,C  38)     59.0555         0.011110   
    607. D(C  41,C  40,C  39,H  96)     58.3624         0.011110   
    608. D(C  41,C  40,C  39,H  95)    -56.8272         0.011110   
    609. D(H  98,C  40,C  39,H  96)   -179.3154         0.011110   
    610. D(C  41,C  40,C  39,C  38)   -178.4793         0.011110   
    611. D(H 101,C  41,C  40,H  98)    -62.2080         0.011169   
    612. D(H 101,C  41,C  40,H  97)   -178.1265         0.011169   
    613. D(H 101,C  41,C  40,C  39)     59.6856         0.011169   
    614. D(H 100,C  41,C  40,H  98)    178.2876         0.011169   
    615. D(H 100,C  41,C  40,H  97)     62.3692         0.011169   
    616. D(H 100,C  41,C  40,C  39)    -59.8187         0.011169   
    617. D(H  99,C  41,C  40,H  98)     57.9778         0.011169   
    618. D(H  99,C  41,C  40,H  97)    -57.9407         0.011169   
    619. D(H  99,C  41,C  40,C  39)    179.8715         0.011169   
    620. D(H 102,O  43,C  17,H  65)     68.5796         0.020884   
    621. D(H 102,O  43,C  17,C  18)    -50.1766         0.020884   
    622. D(H 102,O  43,C  17,C  16)   -175.1545         0.020884   
    623. D(H 104,C  45,C  13,H  61)     73.9091         0.010059   
    624. D(H 104,C  45,C  13,C  14)   -167.5230         0.010059   
    625. D(H 104,C  45,C  13,N  12)    -42.8338         0.010059   
    626. D(H 103,C  45,C  13,H  61)   -172.4219         0.010059   
    627. D(H 103,C  45,C  13,C  14)    -53.8540         0.010059   
    628. D(H 103,C  45,C  13,N  12)     70.8352         0.010059   
    629. D(C  46,C  45,C  13,H  61)    -46.6512         0.010059   
    630. D(C  46,C  45,C  13,C  14)     71.9167         0.010059   
    631. D(C  46,C  45,C  13,N  12)   -163.3941         0.010059   
    632. D(H 107,C  46,C  45,H 104)    -71.0552         0.011154   
    633. D(H 107,C  46,C  45,H 103)    172.2301         0.011154   
    634. D(H 107,C  46,C  45,C  13)     47.4450         0.011154   
    635. D(H 106,C  46,C  45,H 104)    165.8097         0.011154   
    636. D(H 106,C  46,C  45,H 103)     49.0950         0.011154   
    637. D(H 106,C  46,C  45,C  13)    -75.6901         0.011154   
    638. D(H 105,C  46,C  45,H 104)     48.0712         0.011154   
    639. D(H 105,C  46,C  45,H 103)    -68.6435         0.011154   
    640. D(H 105,C  46,C  45,C  13)    166.5714         0.011154   
    641. D(H 108,C  48,C  10,H  59)   -162.8592         0.009820   
    642. D(H 108,C  48,C  10,C  11)    -43.3889         0.009820   
    643. D(H 108,C  48,C  10,N   9)     81.2881         0.009820   
    644. D(C  50,C  48,C  10,H  59)     77.8395         0.009820   
    645. D(C  50,C  48,C  10,C  11)   -162.6902         0.009820   
    646. D(C  50,C  48,C  10,N   9)    -38.0132         0.009820   
    647. D(C  49,C  48,C  10,H  59)    -44.8404         0.009820   
    648. D(C  49,C  48,C  10,C  11)     74.6299         0.009820   
    649. D(C  49,C  48,C  10,N   9)   -160.6931         0.009820   
    650. D(H 111,C  49,C  48,C  50)     59.3277         0.010876   
    651. D(H 111,C  49,C  48,C  10)   -177.5646         0.010876   
    652. D(H 110,C  49,C  48,H 108)   -178.7401         0.010876   
    653. D(H 110,C  49,C  48,C  50)    -59.4443         0.010876   
    654. D(H 110,C  49,C  48,C  10)     63.6633         0.010876   
    655. D(H 109,C  49,C  48,H 108)     60.4033         0.010876   
    656. D(H 109,C  49,C  48,C  50)    179.6991         0.010876   
    657. D(H 111,C  49,C  48,H 108)    -59.9680         0.010876   
    658. D(H 109,C  49,C  48,C  10)    -57.1932         0.010876   
    659. D(H 114,C  50,C  48,H 108)   -174.2265         0.010956   
    660. D(H 114,C  50,C  48,C  49)     66.9585         0.010956   
    661. D(H 114,C  50,C  48,C  10)    -55.8141         0.010956   
    662. D(H 113,C  50,C  48,H 108)     66.4818         0.010956   
    663. D(H 113,C  50,C  48,C  49)    -52.3332         0.010956   
    664. D(H 113,C  50,C  48,C  10)   -175.1058         0.010956   
    665. D(H 112,C  50,C  48,H 108)    -53.5279         0.010956   
    666. D(H 112,C  50,C  48,C  49)   -172.3429         0.010956   
    667. D(H 112,C  50,C  48,C  10)     64.8845         0.010956   
    -----------------------------------------------------------------

Number of atoms                         .... 115
Number of degrees of freedom            .... 667

         *************************************************************
         *                GEOMETRY OPTIMIZATION CYCLE   1            *
         *************************************************************
---------------------------------
CARTESIAN COORDINATES (ANGSTROEM)
---------------------------------
  O      2.896558   -3.341761    2.983514
  C      3.002654   -2.208513    2.517042
  C      4.380704   -1.526389    2.472053
  C      4.943026   -1.329588    3.890204
  C      4.461602    0.081329    4.254041
  C      4.650613    0.858977    2.949869
  N      4.382121   -0.165374    1.912966
  C      4.302577    0.038837    0.570414
  O      4.122594   -0.896120   -0.225725
  N      1.959746   -1.497250    2.008327
  C      0.626159   -2.058402    1.874223
  C      0.225659   -2.089730    0.382261
  N      1.248094   -2.396113   -0.482709
  C      1.162901   -1.988485   -1.877796
  C      1.109374   -0.440644   -1.911367
  N      1.172356    0.161711   -3.115421
  C      1.326215    1.602070   -3.313936
  C      0.012629    2.362998   -3.552619
  C     -0.817135    2.595565   -2.266056
  C     -0.123517    3.495708   -1.218538
  N      0.369506    2.800305   -0.155239
  C      1.097952    3.404453    0.942666
  C      2.601724    3.065212    0.967023
  N      2.980868    2.019668    0.179845
  C      4.345735    1.506991    0.097881
  C      4.893435    1.609556   -1.322037
  O      3.370067    3.682851    1.706866
  C      0.484726    2.989869    2.295093
  C     -1.022254    3.259276    2.415286
  C     -1.364865    4.736081    2.192954
  C     -1.531556    2.765716    3.773270
  O     -0.069036    4.717147   -1.336829
  C     -2.164356    3.247992   -2.593340
  C     -3.234163    3.212778   -1.521069
  C     -3.430138    1.840068   -0.860931
  C     -3.736557    0.730148   -1.869383
  C     -3.797247   -0.660777   -1.237676
  C     -3.820400   -1.788819   -2.271411
  C     -3.709020   -3.182042   -1.648984
  C     -3.562469   -4.299033   -2.683488
  C     -3.364940   -5.684130   -2.063222
  C     -3.182389   -6.789440   -3.104788
  O     -2.344333    3.812180   -3.664891
  O      0.386275    3.563204   -4.198845
  O      1.080858    0.205041   -0.850785
  C      0.040979   -2.721513   -2.646412
  C      0.132639   -2.656406   -4.172141
  O     -0.926586   -1.874183    0.010506
  C     -0.432419   -1.340148    2.746771
  C     -1.663730   -2.233676    2.939500
  C      0.153434   -0.942166    4.105749
  H      5.008146   -2.182005    1.851632
  H      6.041889   -1.364665    3.860815
  H      4.590277   -2.116701    4.565680
  H      3.396261    0.058868    4.529577
  H      5.016136    0.531516    5.086356
  H      3.984627    1.723241    2.845508
  H      5.688527    1.220776    2.857732
  H      2.146534   -0.581452    1.607108
  H      0.724838   -3.100692    2.226430
  H      2.186284   -2.295718   -0.090459
  H      2.128151   -2.265651   -2.333581
  H      1.203332   -0.433458   -3.937114
  H      1.947534    1.756314   -4.205935
  H      1.865838    2.025037   -2.457356
  H     -0.623897    1.740271   -4.217147
  H     -1.011565    1.611234   -1.813266
  H      0.313406    1.781821   -0.206776
  H      1.030113    4.492203    0.806337
  H      2.274450    1.511840   -0.362072
  H      4.941701    2.122637    0.785109
  H      4.857032    2.653875   -1.657173
  H      5.933501    1.258362   -1.362657
  H      4.303977    0.984852   -2.005638
  H      1.033301    3.521434    3.087831
  H      0.668790    1.910965    2.450901
  H     -1.529393    2.671185    1.630337
  H     -1.086292    5.079301    1.186615
  H     -2.444139    4.906237    2.318122
  H     -0.840311    5.372109    2.923740
  H     -1.303576    1.700266    3.923169
  H     -1.062716    3.328340    4.595890
  H     -2.620285    2.894168    3.857800
  H     -4.163728    3.575496   -1.982145
  H     -2.935132    3.956839   -0.761509
  H     -4.244134    1.914409   -0.122888
  H     -2.530452    1.569906   -0.283242
  H     -2.953193    0.723787   -2.650100
  H     -4.676158    0.959697   -2.400485
  H     -4.680666   -0.735359   -0.580159
  H     -2.916123   -0.801293   -0.592107
  H     -2.973585   -1.642195   -2.967323
  H     -4.731075   -1.722414   -2.892483
  H     -4.593209   -3.377383   -1.017407
  H     -2.838985   -3.194882   -0.971610
  H     -2.700904   -4.072366   -3.337862
  H     -4.445941   -4.314918   -3.346241
  H     -4.229131   -5.919539   -1.419165
  H     -2.488300   -5.655119   -1.393901
  H     -3.040352   -7.772663   -2.633802
  H     -4.058740   -6.859204   -3.767171
  H     -2.304345   -6.593611   -3.739681
  H     -0.445127    4.079198   -4.277121
  H     -0.930115   -2.354504   -2.296557
  H      0.106499   -3.771596   -2.326094
  H     -0.551364   -3.390175   -4.619665
  H     -0.171925   -1.678543   -4.574866
  H      1.145563   -2.890184   -4.537464
  H     -0.746401   -0.428963    2.208315
  H     -2.099948   -2.524333    1.977648
  H     -1.389736   -3.144642    3.495185
  H     -2.431496   -1.705219    3.522662
  H      0.953306   -0.195179    4.011783
  H     -0.632218   -0.513373    4.743594
  H      0.570242   -1.817920    4.625947

----------------------------
CARTESIAN COORDINATES (A.U.)
----------------------------
  NO LB      ZA    FRAG     MASS         X           Y           Z
   0 O     8.0000    0    15.999    5.473701   -6.315013    5.638025
   1 C     6.0000    0    12.011    5.674195   -4.173485    4.756520
   2 C     6.0000    0    12.011    8.278331   -2.884458    4.671504
   3 C     6.0000    0    12.011    9.340966   -2.512558    7.351420
   4 C     6.0000    0    12.011    8.431206    0.153690    8.038973
   5 C     6.0000    0    12.011    8.788385    1.623231    5.574445
   6 N     7.0000    0    14.007    8.281009   -0.312512    3.614981
   7 C     6.0000    0    12.011    8.130693    0.073392    1.077927
   8 O     8.0000    0    15.999    7.790573   -1.693421   -0.426558
   9 N     7.0000    0    14.007    3.703383   -2.829392    3.795188
  10 C     6.0000    0    12.011    1.183268   -3.889816    3.541768
  11 C     6.0000    0    12.011    0.426433   -3.949017    0.722368
  12 N     7.0000    0    14.007    2.358556   -4.527997   -0.912188
  13 C     6.0000    0    12.011    2.197565   -3.757693   -3.548521
  14 C     6.0000    0    12.011    2.096414   -0.832697   -3.611960
  15 N     7.0000    0    14.007    2.215431    0.305590   -5.887292
  16 C     6.0000    0    12.011    2.506183    3.027474   -6.262431
  17 C     6.0000    0    12.011    0.023865    4.465420   -6.713477
  18 C     6.0000    0    12.011   -1.544162    4.904908   -4.282225
  19 C     6.0000    0    12.011   -0.233413    6.605930   -2.302704
  20 N     7.0000    0    14.007    0.698266    5.291809   -0.293359
  21 C     6.0000    0    12.011    2.074828    6.433483    1.781380
  22 C     6.0000    0    12.011    4.916545    5.792411    1.827409
  23 N     7.0000    0    14.007    5.633025    3.816618    0.339858
  24 C     6.0000    0    12.011    8.212248    2.847800    0.184968
  25 C     6.0000    0    12.011    9.247253    3.041620   -2.498288
  26 O     8.0000    0    15.999    6.368503    6.959581    3.225509
  27 C     6.0000    0    12.011    0.915999    5.650033    4.337097
  28 C     6.0000    0    12.011   -1.931780    6.159139    4.564229
  29 C     6.0000    0    12.011   -2.579222    8.949895    4.144083
  30 C     6.0000    0    12.011   -2.894221    5.226446    7.130448
  31 O     8.0000    0    15.999   -0.130459    8.914116   -2.526240
  32 C     6.0000    0    12.011   -4.090041    6.137815   -4.900702
  33 C     6.0000    0    12.011   -6.111682    6.071270   -2.874404
  34 C     6.0000    0    12.011   -6.482021    3.477224   -1.626925
  35 C     6.0000    0    12.011   -7.061069    1.379779   -3.532622
  36 C     6.0000    0    12.011   -7.175757   -1.248687   -2.338868
  37 C     6.0000    0    12.011   -7.219509   -3.380377   -4.292345
  38 C     6.0000    0    12.011   -7.009032   -6.013189   -3.116129
  39 C     6.0000    0    12.011   -6.732092   -8.123996   -5.071058
  40 C     6.0000    0    12.011   -6.358814  -10.741450   -3.898925
  41 C     6.0000    0    12.011   -6.013844  -12.830182   -5.867200
  42 O     8.0000    0    15.999   -4.430148    7.203976   -6.925640
  43 O     8.0000    0    15.999    0.729953    6.733481   -7.934667
  44 O     8.0000    0    15.999    2.042526    0.387472   -1.607750
  45 C     6.0000    0    12.011    0.077439   -5.142915   -5.000995
  46 C     6.0000    0    12.011    0.250652   -5.019880   -7.884204
  47 O     8.0000    0    15.999   -1.750993   -3.541693    0.019853
  48 C     6.0000    0    12.011   -0.817153   -2.532513    5.190646
  49 C     6.0000    0    12.011   -3.143994   -4.221036    5.554850
  50 C     6.0000    0    12.011    0.289949   -1.780435    7.758741
  51 H     1.0000    0     1.008    9.464024   -4.123392    3.499077
  52 H     1.0000    0     1.008   11.417515   -2.578843    7.295884
  53 H     1.0000    0     1.008    8.674367   -3.999986    8.627885
  54 H     1.0000    0     1.008    6.418003    0.111245    8.559660
  55 H     1.0000    0     1.008    9.479123    1.004420    9.611821
  56 H     1.0000    0     1.008    7.529854    3.256454    5.377231
  57 H     1.0000    0     1.008   10.749759    2.306933    5.400330
  58 H     1.0000    0     1.008    4.056362   -1.098784    3.036994
  59 H     1.0000    0     1.008    1.369746   -5.859459    4.207343
  60 H     1.0000    0     1.008    4.131479   -4.338278   -0.170943
  61 H     1.0000    0     1.008    4.021623   -4.281460   -4.409830
  62 H     1.0000    0     1.008    2.273968   -0.819117   -7.440066
  63 H     1.0000    0     1.008    3.680307    3.318952   -7.948065
  64 H     1.0000    0     1.008    3.525922    3.826766   -4.643729
  65 H     1.0000    0     1.008   -1.178995    3.288635   -7.969254
  66 H     1.0000    0     1.008   -1.911580    3.044791   -3.426576
  67 H     1.0000    0     1.008    0.592252    3.367153   -0.390751
  68 H     1.0000    0     1.008    1.946631    8.489033    1.523756
  69 H     1.0000    0     1.008    4.298087    2.856964   -0.684218
  70 H     1.0000    0     1.008    9.338461    4.011203    1.483641
  71 H     1.0000    0     1.008    9.178460    5.015096   -3.131603
  72 H     1.0000    0     1.008   11.212692    2.377959   -2.575049
  73 H     1.0000    0     1.008    8.133337    1.861101   -3.790106
  74 H     1.0000    0     1.008    1.952657    6.654547    5.835154
  75 H     1.0000    0     1.008    1.263830    3.611201    4.631533
  76 H     1.0000    0     1.008   -2.890134    5.047808    3.080891
  77 H     1.0000    0     1.008   -2.052794    9.598488    2.242378
  78 H     1.0000    0     1.008   -4.618753    9.271444    4.380616
  79 H     1.0000    0     1.008   -1.587959   10.151814    5.525068
  80 H     1.0000    0     1.008   -2.463402    3.213038    7.413714
  81 H     1.0000    0     1.008   -2.008242    6.289650    8.684973
  82 H     1.0000    0     1.008   -4.951621    5.469185    7.290186
  83 H     1.0000    0     1.008   -7.868305    6.756708   -3.745711
  84 H     1.0000    0     1.008   -5.546597    7.477342   -1.439044
  85 H     1.0000    0     1.008   -8.020250    3.617708   -0.232224
  86 H     1.0000    0     1.008   -4.781861    2.966692   -0.535249
  87 H     1.0000    0     1.008   -5.580726    1.367759   -5.007963
  88 H     1.0000    0     1.008   -8.836658    1.813564   -4.536258
  89 H     1.0000    0     1.008   -8.845177   -1.389626   -1.096341
  90 H     1.0000    0     1.008   -5.510674   -1.514225   -1.118919
  91 H     1.0000    0     1.008   -5.619262   -3.103300   -5.607428
  92 H     1.0000    0     1.008   -8.940436   -3.254891   -5.466000
  93 H     1.0000    0     1.008   -8.679907   -6.382328   -1.922620
  94 H     1.0000    0     1.008   -5.364903   -6.037452   -1.836077
  95 H     1.0000    0     1.008   -5.103970   -7.695656   -6.307645
  96 H     1.0000    0     1.008   -8.401611   -8.154014   -6.323478
  97 H     1.0000    0     1.008   -7.991899  -11.186308   -2.681834
  98 H     1.0000    0     1.008   -4.702205  -10.686626   -2.634092
  99 H     1.0000    0     1.008   -5.745432  -14.688204   -4.977164
 100 H     1.0000    0     1.008   -7.669907  -12.962018   -7.118921
 101 H     1.0000    0     1.008   -4.354581  -12.460118   -7.066974
 102 H     1.0000    0     1.008   -0.841168    7.708567   -8.082588
 103 H     1.0000    0     1.008   -1.757663   -4.449368   -4.339863
 104 H     1.0000    0     1.008    0.201254   -7.127284   -4.395681
 105 H     1.0000    0     1.008   -1.041926   -6.406503   -8.729901
 106 H     1.0000    0     1.008   -0.324891   -3.171987   -8.645244
 107 H     1.0000    0     1.008    2.164800   -5.461657   -8.574564
 108 H     1.0000    0     1.008   -1.410494   -0.810623    4.173111
 109 H     1.0000    0     1.008   -3.968327   -4.770298    3.737213
 110 H     1.0000    0     1.008   -2.626220   -5.942511    6.604943
 111 H     1.0000    0     1.008   -4.594862   -3.222397    6.656866
 112 H     1.0000    0     1.008    1.801487   -0.368836    7.581172
 113 H     1.0000    0     1.008   -1.194719   -0.970135    8.964094
 114 H     1.0000    0     1.008    1.077602   -3.435370    8.741773

--------------------------------
INTERNAL COORDINATES (ANGSTROEM)
--------------------------------
 O      0   0   0     0.000000000000     0.00000000     0.00000000
 C      1   0   0     1.230082516544     0.00000000     0.00000000
 C      2   1   0     1.538290605417   119.79377489     0.00000000
 C      3   2   1     1.538209184163   110.93192959   297.77656830
 C      4   3   2     1.534547322168   102.79940258   267.44632146
 C      5   4   3     1.530138873387   103.08753991   319.82924873
 N      3   2   1     1.471374474108   114.97015377   180.92517897
 C      7   3   2     1.360321214834   120.91842120   282.91764428
 O      8   7   3     1.241119010410   121.90285065     5.66346199
 N      2   1   3     1.361008893491   123.85627750   179.22407512
 C     10   2   1     1.453041907649   122.40859188   355.10443798
 C     11  10   2     1.545099684036   109.56314181   242.32423792
 N     12  11  10     1.373833168459   114.80714818    37.42070784
 C     13  12  11     1.455914487787   119.82229737   202.77751369
 C     14  13  12     1.549130213299   107.60989042    62.22425434
 N     15  14  13     1.347792424688   117.66447284   173.04131703
 C     16  15  14     1.462092255768   124.50573895   189.13569083
 C     17  16  15     1.536714165025   114.76776690   263.64796940
 C     18  17  16     1.548496200766   113.78887170    76.76468889
 C     19  18  17     1.545527676448   114.21195744    63.99299315
 N     20  19  18     1.362814298612   113.20257677   255.05533419
 C     21  20  19     1.449489939167   124.06279544   178.09010908
 C     22  21  20     1.541754807926   114.23169181   250.86892810
 N     23  22  21     1.362557447632   115.53860360   344.93552660
 C     24  23  22     1.460279211317   124.18757552   182.35404664
 C     25  24  23     1.525340206504   111.36142387   240.32160769
 O     23  22  21     1.232556998959   120.48001910   167.96736974
 C     22  21  20     1.541747491332   110.63799187   128.28417433
 C     28  22  21     1.535582734594   114.31930187   306.38944047
 C     29  28  22     1.532242264425   112.15876474   302.45108822
 C     29  28  22     1.532028711653   109.82223917   178.01496338
 O     20  19  18     1.228362691318   122.26057927    77.01158482
 C     19  18  17     1.532246370355   110.95461486   184.94420698
 C     33  19  18     1.515087915767   117.37238169   164.32447521
 C     34  33  19     1.535747830584   114.52528714   313.00579913
 C     35  34  33     1.530617301163   112.98578250   304.15078476
 C     36  35  34     1.528858615182   113.29334110   174.34462119
 C     37  36  35     1.530236298906   113.08746330   191.62418277
 C     38  37  36     1.529997913838   113.28765230   172.97571900
 C     39  38  37     1.529491467740   113.38038689   186.93994493
 C     40  39  38     1.530438273022   113.52756989   176.47018391
 C     41  40  39     1.529670982142   113.16612670   181.52069051
 O     33  19  18     1.224304767865   120.82495165   341.94523090
 O     18  17  16     1.413405162198   105.39753904   201.37632409
 O     15  14  13     1.241997336141   120.11466529   356.73523895
 C     14  13  12     1.544930769095   112.72899417   293.06914077
 C     46  14  13     1.529865325364   115.62385673   196.60591274
 O     12  11  10     1.229767693313   122.08747521   216.43645451
 C     11  10   2     1.548487928081   113.34599412   116.28367867
 C     49  11  10     1.533514062837   110.45393189   199.30687310
 C     49  11  10     1.532459984531   111.02715138   321.98676333
 H      3   2   1     1.099289547958   105.26945585    60.12166629
 H      4   3   2     1.099815123088   109.66601178   149.97047974
 H      4   3   2     1.095558037361   111.02708250    30.23107653
 H      5   4   3     1.100625574575   110.13658246    77.25874204
 H      5   4   3     1.096779211162   113.49702781   198.38199824
 H      6   5   4     1.096074997776   114.00606979   154.17420115
 H      6   5   4     1.103020839943   110.74016511   275.89900452
 H     10   2   1     1.017129552139   118.50638331   182.54710663
 H     11  10   2     1.104607021804   104.65429794   358.11424807
 H     13  12  11     1.021831924616   114.81608893   342.72591690
 H     14  13  12     1.102845254611   105.92839436   175.04103518
 H     16  15  14     1.015069108022   117.55149820     3.06934151
 H     17  16  15     1.097948704906   107.95391471   144.77391094
 H     17  16  15     1.097188918767   108.99745913    28.21834571
 H     18  17  16     1.111104414793   107.76239995   319.65026486
 H     19  18  17     1.100786297435   107.58385592   303.19335353
 H     21  20  19     1.021329112473   116.71837869     5.79531321
 H     22  21  20     1.098357021158   106.72159889     7.99549580
 H     24  23  22     1.024983254435   119.59379279   358.97825749
 H     25  24  23     1.098398437301   105.97563605     0.50629685
 H     26  25  24     1.097379873140   109.65569625    57.55725418
 H     26  25  24     1.098509715568   110.66413654   177.74405746
 H     26  25  24     1.097737074943   110.40291114   296.84173023
 H     28  22  21     1.100877206101   107.67565564   183.38081889
 H     28  22  21     1.105526214114   108.65304467    68.21465121
 H     29  28  22     1.104167282928   107.55699605    60.94618296
 H     30  29  28     1.099145655756   112.15681356    61.60875366
 H     30  29  28     1.099750579871   110.61262529   181.91126090
 H     30  29  28     1.101697175808   110.71470890   301.10095737
 H     31  29  28     1.099830572776   111.34540031   303.69857183
 H     31  29  28     1.101389289849   110.85238813    63.63753587
 H     31  29  28     1.099534469422   111.08038062   183.36863384
 H     34  33  19     1.099202570763   107.01335944   188.82136320
 H     34  33  19     1.104525584291   106.25238155    74.57453073
 H     35  34  33     1.101283022886   108.78705248   181.65086287
 H     35  34  33     1.102790808915   109.87923437    66.52802696
 H     36  35  34     1.105991851193   109.11456623    53.57032772
 H     36  35  34     1.103454493550   109.67760055   298.65387187
 H     37  36  35     1.103775561510   109.83915651    68.44241132
 H     37  36  35     1.101310236561   109.05789287   312.18410210
 H     38  37  36     1.105841500356   108.40873909    52.20702224
 H     38  37  36     1.104295682247   110.37006124   296.95061599
 H     39  38  37     1.104009801354   109.60579866    64.20205650
 H     39  38  37     1.102706808429   108.53837818   308.65941493
 H     40  39  38     1.105385777039   108.98561799    54.83233875
 H     40  39  38     1.104543150991   109.85874341   299.41793487
 H     41  40  39     1.103201420044   109.18545011    59.05547778
 H     41  40  39     1.103326569755   108.94225058   303.84294744
 H     42  41  40     1.099422501966   111.71128521   179.87147501
 H     42  41  40     1.100730642332   111.13289449   300.18130932
 H     42  41  40     1.101090543447   111.05529430    59.68562888
 H     44  18  17     0.981633740269   105.00578392   184.84549997
 H     46  14  13     1.095499150944   109.01952078    70.83519156
 H     46  14  13     1.099804612729   105.35865690   317.16624268
 H     47  46  14     1.098432922786   109.91223591   166.57139698
 H     47  46  14     1.100528408505   112.71712433   284.30988642
 H     47  46  14     1.101874227783   112.12932354    47.44498309
 H     49  11  10     1.103982625952   107.60368956    81.28806912
 H     50  49  11     1.095411685094   111.34590168   302.80679825
 H     50  49  11     1.101688264196   110.21198687    63.66332689
 H     50  49  11     1.099458440944   110.32226038   182.43540530
 H     51  49  11     1.098458857833   112.27946017    64.88448218
 H     51  49  11     1.099071935681   110.04102470   184.89417913
 H     51  49  11     1.100581398126   110.93336870   304.18585687

---------------------------
INTERNAL COORDINATES (A.U.)
---------------------------
 O      0   0   0     0.000000000000     0.00000000     0.00000000
 C      1   0   0     2.324519078392     0.00000000     0.00000000
 C      2   1   0     2.906947958622   119.79377489     0.00000000
 C      3   2   1     2.906794094751   110.93192959   297.77656830
 C      4   3   2     2.899874178440   102.79940258   267.44632146
 C      5   4   3     2.891543417569   103.08753991   319.82924873
 N      3   2   1     2.780494796506   114.97015377   180.92517897
 C      7   3   2     2.570634550199   120.91842120   282.91764428
 O      8   7   3     2.345375029278   121.90285065     5.66346199
 N      2   1   3     2.571934074529   123.85627750   179.22407512
 C     10   2   1     2.745851266568   122.40859188   355.10443798
 C     11  10   2     2.919815252436   109.56314181   242.32423792
 N     12  11  10     2.596168442084   114.80714818    37.42070784
 C     13  12  11     2.751279656326   119.82229737   202.77751369
 C     14  13  12     2.927431848918   107.60989042    62.22425434
 N     15  14  13     2.546958568035   117.66447284   173.04131703
 C     16  15  14     2.762953945929   124.50573895   189.13569083
 C     17  16  15     2.903968918014   114.76776690   263.64796940
 C     18  17  16     2.926233738866   113.78887170    76.76468889
 C     19  18  17     2.920624040883   114.21195744    63.99299315
 N     20  19  18     2.575345795769   113.20257677   255.05533419
 C     21  20  19     2.739139018900   124.06279544   178.09010908
 C     22  21  20     2.913494352637   114.23169181   250.86892810
 N     23  22  21     2.574860417759   115.53860360   344.93552660
 C     24  23  22     2.759527788448   124.18757552   182.35404664
 C     25  24  23     2.882475251351   111.36142387   240.32160769
 O     23  22  21     2.329195172481   120.48001910   167.96736974
 C     22  21  20     2.913480526277   110.63799187   128.28417433
 C     28  22  21     2.901830824360   114.31930187   306.38944047
 C     29  28  22     2.895518250582   112.15876474   302.45108822
 C     29  28  22     2.895114694328   109.82223917   178.01496338
 O     20  19  18     2.321269079717   122.26057927    77.01158482
 C     19  18  17     2.895526009666   110.95461486   184.94420698
 C     33  19  18     2.863101229614   117.37238169   164.32447521
 C     34  33  19     2.902142810567   114.52528714   313.00579913
 C     35  34  33     2.892447515040   112.98578250   304.15078476
 C     36  35  34     2.889124080181   113.29334110   174.34462119
 C     37  36  35     2.891727525118   113.08746330   191.62418277
 C     38  37  36     2.891277042624   113.28765230   172.97571900
 C     39  38  37     2.890319998198   113.38038689   186.93994493
 C     40  39  38     2.892109200882   113.52756989   176.47018391
 C     41  40  39     2.890659231254   113.16612670   181.52069051
 O     33  19  18     2.313600715719   120.82495165   341.94523090
 O     18  17  16     2.670948672824   105.39753904   201.37632409
 O     15  14  13     2.347034824366   120.11466529   356.73523895
 C     14  13  12     2.919496049458   112.72899417   293.06914077
 C     46  14  13     2.891026486720   115.62385673   196.60591274
 O     12  11  10     2.323924148705   122.08747521   216.43645451
 C     11  10   2     2.926218105756   113.34599412   116.28367867
 C     49  11  10     2.897921601279   110.45393189   199.30687310
 C     49  11  10     2.895929681956   111.02715138   321.98676333
 H      3   2   1     2.077356187523   105.26945585    60.12166629
 H      4   3   2     2.078349380582   109.66601178   149.97047974
 H      4   3   2     2.070304654428   111.02708250    30.23107653
 H      5   4   3     2.079880911936   110.13658246    77.25874204
 H      5   4   3     2.072612338474   113.49702781   198.38199824
 H      6   5   4     2.071281568035   114.00606979   154.17420115
[...]
freq.      81.31  E(vib)   ...       0.48 
freq.      83.40  E(vib)   ...       0.48 
freq.      96.40  E(vib)   ...       0.47 
freq.     102.32  E(vib)   ...       0.46 
freq.     110.25  E(vib)   ...       0.45 
freq.     112.87  E(vib)   ...       0.45 
freq.     116.09  E(vib)   ...       0.44 
freq.     118.80  E(vib)   ...       0.44 
freq.     123.09  E(vib)   ...       0.43 
freq.     132.30  E(vib)   ...       0.42 
freq.     137.96  E(vib)   ...       0.42 
freq.     140.25  E(vib)   ...       0.41 
freq.     146.59  E(vib)   ...       0.41 
freq.     149.45  E(vib)   ...       0.40 
freq.     155.44  E(vib)   ...       0.40 
freq.     159.60  E(vib)   ...       0.39 
freq.     169.55  E(vib)   ...       0.38 
freq.     172.09  E(vib)   ...       0.38 
freq.     175.63  E(vib)   ...       0.38 
freq.     191.68  E(vib)   ...       0.36 
freq.     200.15  E(vib)   ...       0.35 
freq.     205.09  E(vib)   ...       0.35 
freq.     209.70  E(vib)   ...       0.34 
freq.     214.94  E(vib)   ...       0.34 
freq.     222.31  E(vib)   ...       0.33 
freq.     226.58  E(vib)   ...       0.33 
freq.     228.48  E(vib)   ...       0.32 
freq.     233.91  E(vib)   ...       0.32 
freq.     237.07  E(vib)   ...       0.32 
freq.     238.97  E(vib)   ...       0.32 
freq.     244.10  E(vib)   ...       0.31 
freq.     249.56  E(vib)   ...       0.31 
freq.     251.50  E(vib)   ...       0.30 
freq.     256.13  E(vib)   ...       0.30 
freq.     258.71  E(vib)   ...       0.30 
freq.     269.42  E(vib)   ...       0.29 
freq.     277.10  E(vib)   ...       0.28 
freq.     277.52  E(vib)   ...       0.28 
freq.     281.09  E(vib)   ...       0.28 
freq.     288.45  E(vib)   ...       0.27 
freq.     306.80  E(vib)   ...       0.26 
freq.     311.78  E(vib)   ...       0.25 
freq.     318.70  E(vib)   ...       0.25 
freq.     324.37  E(vib)   ...       0.25 
freq.     326.24  E(vib)   ...       0.24 
freq.     342.13  E(vib)   ...       0.23 
freq.     346.19  E(vib)   ...       0.23 
freq.     353.33  E(vib)   ...       0.22 
freq.     356.30  E(vib)   ...       0.22 
freq.     381.23  E(vib)   ...       0.21 
freq.     389.27  E(vib)   ...       0.20 
freq.     395.90  E(vib)   ...       0.20 
freq.     407.48  E(vib)   ...       0.19 
freq.     414.57  E(vib)   ...       0.19 
freq.     423.65  E(vib)   ...       0.18 
freq.     425.91  E(vib)   ...       0.18 
freq.     440.30  E(vib)   ...       0.17 
freq.     444.92  E(vib)   ...       0.17 
freq.     453.87  E(vib)   ...       0.16 
freq.     464.31  E(vib)   ...       0.16 
freq.     467.41  E(vib)   ...       0.16 
freq.     478.34  E(vib)   ...       0.15 
freq.     489.82  E(vib)   ...       0.15 
freq.     509.13  E(vib)   ...       0.14 
freq.     524.77  E(vib)   ...       0.13 
freq.     527.53  E(vib)   ...       0.13 
freq.     539.49  E(vib)   ...       0.12 
freq.     550.34  E(vib)   ...       0.12 
freq.     550.97  E(vib)   ...       0.12 
freq.     554.98  E(vib)   ...       0.12 
freq.     564.80  E(vib)   ...       0.11 
freq.     578.14  E(vib)   ...       0.11 
freq.     588.93  E(vib)   ...       0.10 
freq.     598.48  E(vib)   ...       0.10 
freq.     616.78  E(vib)   ...       0.09 
freq.     625.07  E(vib)   ...       0.09 
freq.     649.95  E(vib)   ...       0.08 
freq.     659.97  E(vib)   ...       0.08 
freq.     670.84  E(vib)   ...       0.08 
freq.     693.17  E(vib)   ...       0.07 
freq.     698.08  E(vib)   ...       0.07 
freq.     702.78  E(vib)   ...       0.07 
freq.     710.50  E(vib)   ...       0.07 
freq.     712.44  E(vib)   ...       0.07 
freq.     715.18  E(vib)   ...       0.07 
freq.     730.97  E(vib)   ...       0.06 
freq.     732.83  E(vib)   ...       0.06 
freq.     734.95  E(vib)   ...       0.06 
freq.     750.96  E(vib)   ...       0.06 
freq.     759.75  E(vib)   ...       0.06 
freq.     774.78  E(vib)   ...       0.05 
freq.     789.22  E(vib)   ...       0.05 
freq.     800.45  E(vib)   ...       0.05 
freq.     811.77  E(vib)   ...       0.05 
freq.     823.23  E(vib)   ...       0.05 
freq.     824.54  E(vib)   ...       0.04 
freq.     829.28  E(vib)   ...       0.04 
freq.     838.40  E(vib)   ...       0.04 
freq.     840.06  E(vib)   ...       0.04 
freq.     840.93  E(vib)   ...       0.04 
freq.     862.58  E(vib)   ...       0.04 
freq.     864.18  E(vib)   ...       0.04 
freq.     867.87  E(vib)   ...       0.04 
freq.     877.45  E(vib)   ...       0.04 
freq.     885.39  E(vib)   ...       0.04 
freq.     887.77  E(vib)   ...       0.04 
freq.     891.70  E(vib)   ...       0.03 
freq.     903.01  E(vib)   ...       0.03 
freq.     904.61  E(vib)   ...       0.03 
freq.     906.21  E(vib)   ...       0.03 
freq.     912.90  E(vib)   ...       0.03 
freq.     917.72  E(vib)   ...       0.03 
freq.     918.96  E(vib)   ...       0.03 
freq.     926.40  E(vib)   ...       0.03 
freq.     941.12  E(vib)   ...       0.03 
freq.     942.42  E(vib)   ...       0.03 
freq.     942.55  E(vib)   ...       0.03 
freq.     946.84  E(vib)   ...       0.03 
freq.     954.56  E(vib)   ...       0.03 
freq.     964.71  E(vib)   ...       0.03 
freq.     968.54  E(vib)   ...       0.03 
freq.     978.84  E(vib)   ...       0.03 
freq.     983.21  E(vib)   ...       0.02 
freq.     985.91  E(vib)   ...       0.02 
freq.     989.28  E(vib)   ...       0.02 
freq.     996.63  E(vib)   ...       0.02 
freq.    1017.80  E(vib)   ...       0.02 
freq.    1021.57  E(vib)   ...       0.02 
freq.    1025.87  E(vib)   ...       0.02 
freq.    1029.15  E(vib)   ...       0.02 
freq.    1032.56  E(vib)   ...       0.02 
freq.    1035.03  E(vib)   ...       0.02 
freq.    1037.06  E(vib)   ...       0.02 
freq.    1047.70  E(vib)   ...       0.02 
freq.    1051.78  E(vib)   ...       0.02 
freq.    1052.98  E(vib)   ...       0.02 
freq.    1061.20  E(vib)   ...       0.02 
freq.    1067.21  E(vib)   ...       0.02 
freq.    1072.15  E(vib)   ...       0.02 
freq.    1074.36  E(vib)   ...       0.02 
freq.    1082.00  E(vib)   ...       0.02 
freq.    1095.57  E(vib)   ...       0.02 
freq.    1097.70  E(vib)   ...       0.02 
freq.    1099.53  E(vib)   ...       0.02 
freq.    1104.48  E(vib)   ...       0.02 
freq.    1106.75  E(vib)   ...       0.02 
freq.    1108.81  E(vib)   ...       0.02 
freq.    1123.20  E(vib)   ...       0.01 
freq.    1125.54  E(vib)   ...       0.01 
freq.    1132.06  E(vib)   ...       0.01 
freq.    1136.29  E(vib)   ...       0.01 
freq.    1137.16  E(vib)   ...       0.01 
freq.    1148.16  E(vib)   ...       0.01 
freq.    1151.54  E(vib)   ...       0.01 
freq.    1156.11  E(vib)   ...       0.01 
freq.    1157.35  E(vib)   ...       0.01 
freq.    1160.96  E(vib)   ...       0.01 
freq.    1164.15  E(vib)   ...       0.01 
freq.    1176.24  E(vib)   ...       0.01 
freq.    1188.78  E(vib)   ...       0.01 
freq.    1197.27  E(vib)   ...       0.01 
freq.    1206.58  E(vib)   ...       0.01 
freq.    1209.28  E(vib)   ...       0.01 
freq.    1212.96  E(vib)   ...       0.01 
freq.    1213.44  E(vib)   ...       0.01 
freq.    1214.85  E(vib)   ...       0.01 
freq.    1219.19  E(vib)   ...       0.01 
freq.    1231.59  E(vib)   ...       0.01 
freq.    1237.26  E(vib)   ...       0.01 
freq.    1243.28  E(vib)   ...       0.01 
freq.    1245.17  E(vib)   ...       0.01 
freq.    1247.53  E(vib)   ...       0.01 
freq.    1249.13  E(vib)   ...       0.01 
freq.    1249.40  E(vib)   ...       0.01 
freq.    1250.40  E(vib)   ...       0.01 
freq.    1253.40  E(vib)   ...       0.01 
freq.    1266.05  E(vib)   ...       0.01 
freq.    1271.25  E(vib)   ...       0.01 
freq.    1278.64  E(vib)   ...       0.01 
freq.    1279.63  E(vib)   ...       0.01 
freq.    1280.88  E(vib)   ...       0.01 
freq.    1284.31  E(vib)   ...       0.01 
freq.    1285.73  E(vib)   ...       0.01 
freq.    1286.14  E(vib)   ...       0.01 
freq.    1290.14  E(vib)   ...       0.01 
freq.    1291.11  E(vib)   ...       0.01 
freq.    1293.30  E(vib)   ...       0.01 
freq.    1296.56  E(vib)   ...       0.01 
freq.    1298.24  E(vib)   ...       0.01 
freq.    1299.30  E(vib)   ...       0.01 
freq.    1300.26  E(vib)   ...       0.01 
freq.    1302.71  E(vib)   ...       0.01 
freq.    1308.96  E(vib)   ...       0.01 
freq.    1309.44  E(vib)   ...       0.01 
freq.    1311.07  E(vib)   ...       0.01 
freq.    1323.88  E(vib)   ...       0.01 
freq.    1327.13  E(vib)   ...       0.01 
freq.    1328.10  E(vib)   ...       0.01 
freq.    1329.99  E(vib)   ...       0.01 
freq.    1332.04  E(vib)   ...       0.01 
freq.    1332.87  E(vib)   ...       0.01 
freq.    1339.85  E(vib)   ...       0.01 
freq.    1345.02  E(vib)   ...       0.01 
freq.    1345.62  E(vib)   ...       0.01 
freq.    1348.34  E(vib)   ...       0.01 
freq.    1351.87  E(vib)   ...       0.01 
freq.    1353.09  E(vib)   ...       0.01 
freq.    1357.45  E(vib)   ...       0.01 
freq.    1358.53  E(vib)   ...       0.01 
freq.    1362.79  E(vib)   ...       0.01 
freq.    1363.70  E(vib)   ...       0.01 
freq.    1368.17  E(vib)   ...       0.01 
freq.    1374.04  E(vib)   ...       0.01 
freq.    1391.59  E(vib)   ...       0.00 
freq.    1393.40  E(vib)   ...       0.00 
freq.    1409.09  E(vib)   ...       0.00 
freq.    1426.21  E(vib)   ...       0.00 
freq.    1428.96  E(vib)   ...       0.00 
freq.    1431.62  E(vib)   ...       0.00 
freq.    1434.79  E(vib)   ...       0.00 
freq.    1436.76  E(vib)   ...       0.00 
freq.    1437.11  E(vib)   ...       0.00 
freq.    1437.87  E(vib)   ...       0.00 
freq.    1438.91  E(vib)   ...       0.00 
freq.    1440.87  E(vib)   ...       0.00 
freq.    1443.52  E(vib)   ...       0.00 
freq.    1445.63  E(vib)   ...       0.00 
freq.    1446.21  E(vib)   ...       0.00 
freq.    1446.68  E(vib)   ...       0.00 
freq.    1446.95  E(vib)   ...       0.00 
freq.    1447.60  E(vib)   ...       0.00 
freq.    1450.76  E(vib)   ...       0.00 
freq.    1451.73  E(vib)   ...       0.00 
freq.    1451.80  E(vib)   ...       0.00 
freq.    1453.39  E(vib)   ...       0.00 
freq.    1456.34  E(vib)   ...       0.00 
freq.    1457.60  E(vib)   ...       0.00 
freq.    1461.15  E(vib)   ...       0.00 
freq.    1466.39  E(vib)   ...       0.00 
freq.    1467.40  E(vib)   ...       0.00 
freq.    1469.84  E(vib)   ...       0.00 
freq.    1470.88  E(vib)   ...       0.00 
freq.    1474.05  E(vib)   ...       0.00 
freq.    1474.29  E(vib)   ...       0.00 
freq.    1491.38  E(vib)   ...       0.00 
freq.    1505.77  E(vib)   ...       0.00 
freq.    1517.11  E(vib)   ...       0.00 
freq.    1542.79  E(vib)   ...       0.00 
freq.    1630.85  E(vib)   ...       0.00 
freq.    1640.07  E(vib)   ...       0.00 
freq.    1669.76  E(vib)   ...       0.00 
freq.    1681.30  E(vib)   ...       0.00 
freq.    1683.29  E(vib)   ...       0.00 
freq.    1686.22  E(vib)   ...       0.00 
freq.    1702.83  E(vib)   ...       0.00 
freq.    2856.43  E(vib)   ...       0.00 
freq.    2916.21  E(vib)   ...       0.00 
freq.    2918.80  E(vib)   ...       0.00 
freq.    2922.10  E(vib)   ...       0.00 
freq.    2926.61  E(vib)   ...       0.00 
freq.    2935.99  E(vib)   ...       0.00 
freq.    2938.27  E(vib)   ...       0.00 
freq.    2938.33  E(vib)   ...       0.00 
freq.    2943.22  E(vib)   ...       0.00 
freq.    2944.66  E(vib)   ...       0.00 
freq.    2945.32  E(vib)   ...       0.00 
freq.    2946.78  E(vib)   ...       0.00 
freq.    2949.73  E(vib)   ...       0.00 
freq.    2952.30  E(vib)   ...       0.00 
freq.    2952.79  E(vib)   ...       0.00 
freq.    2953.44  E(vib)   ...       0.00 
freq.    2954.99  E(vib)   ...       0.00 
freq.    2955.39  E(vib)   ...       0.00 
freq.    2956.97  E(vib)   ...       0.00 
freq.    2958.05  E(vib)   ...       0.00 
freq.    2959.98  E(vib)   ...       0.00 
freq.    2960.84  E(vib)   ...       0.00 
freq.    2964.40  E(vib)   ...       0.00 
freq.    2965.57  E(vib)   ...       0.00 
freq.    2973.30  E(vib)   ...       0.00 
freq.    2979.17  E(vib)   ...       0.00 
freq.    2979.50  E(vib)   ...       0.00 
freq.    2988.68  E(vib)   ...       0.00 
freq.    2989.45  E(vib)   ...       0.00 
freq.    2990.09  E(vib)   ...       0.00 
freq.    2990.14  E(vib)   ...       0.00 
freq.    2992.60  E(vib)   ...       0.00 
freq.    3000.44  E(vib)   ...       0.00 
freq.    3004.06  E(vib)   ...       0.00 
freq.    3005.86  E(vib)   ...       0.00 
freq.    3006.74  E(vib)   ...       0.00 
freq.    3012.05  E(vib)   ...       0.00 
freq.    3015.69  E(vib)   ...       0.00 
freq.    3017.68  E(vib)   ...       0.00 
freq.    3017.91  E(vib)   ...       0.00 
freq.    3022.11  E(vib)   ...       0.00 
freq.    3022.15  E(vib)   ...       0.00 
freq.    3022.82  E(vib)   ...       0.00 
freq.    3026.24  E(vib)   ...       0.00 
freq.    3027.27  E(vib)   ...       0.00 
freq.    3030.56  E(vib)   ...       0.00 
freq.    3031.34  E(vib)   ...       0.00 
freq.    3033.76  E(vib)   ...       0.00 
freq.    3034.15  E(vib)   ...       0.00 
freq.    3035.95  E(vib)   ...       0.00 
freq.    3044.14  E(vib)   ...       0.00 
freq.    3049.41  E(vib)   ...       0.00 
freq.    3052.24  E(vib)   ...       0.00 
freq.    3054.86  E(vib)   ...       0.00 
freq.    3063.26  E(vib)   ...       0.00 
freq.    3063.37  E(vib)   ...       0.00 
freq.    3063.97  E(vib)   ...       0.00 
freq.    3071.21  E(vib)   ...       0.00 
freq.    3327.40  E(vib)   ...       0.00 
freq.    3400.08  E(vib)   ...       0.00 
freq.    3424.02  E(vib)   ...       0.00 
freq.    3490.23  E(vib)   ...       0.00 
freq.    3515.46  E(vib)   ...       0.00 
freq.    3542.28  E(vib)   ...       0.00 

------------
INNER ENERGY
------------

The inner energy is: U= E(el) + E(ZPE) + E(vib) + E(rot) + E(trans)
    E(el)   - is the total energy from the electronic structure calculation
              = E(kin-el) + E(nuc-el) + E(el-el) + E(nuc-nuc)
    E(ZPE)  - the the zero temperature vibrational energy from the frequency calculation
    E(vib)  - the the finite temperature correction to E(ZPE) due to population
              of excited vibrational states
    E(rot)  - is the rotational thermal energy
    E(trans)- is the translational thermal energy

Summary of contributions to the inner energy U:
Electronic energy                ...  -2380.08877973 Eh
Zero point energy                ...      0.97802498 Eh     613.72 kcal/mol
Thermal vibrational correction   ...      0.05544868 Eh      34.79 kcal/mol
Thermal rotational correction    ...      0.00141627 Eh       0.89 kcal/mol
Thermal translational correction ...      0.00141627 Eh       0.89 kcal/mol
-----------------------------------------------------------------------
Total thermal energy                  -2379.05247353 Eh


Summary of corrections to the electronic energy:
(perhaps to be used in another calculation)
Total thermal correction                  0.05828123 Eh      36.57 kcal/mol
Non-thermal (ZPE) correction              0.97802498 Eh     613.72 kcal/mol
-----------------------------------------------------------------------
Total correction                          1.03630621 Eh     650.29 kcal/mol


--------
ENTHALPY
--------

The enthalpy is H = U + kB*T
                kB is Boltzmann's constant
Total free energy                 ...  -2379.05247353 Eh 
Thermal Enthalpy correction       ...      0.00094421 Eh       0.59 kcal/mol
-----------------------------------------------------------------------
Total Enthalpy                    ...  -2379.05152932 Eh


Note: Only C1 symmetry has been detected, increase convergence thresholds 
      if your molecule has a higher symmetry. Symmetry factor of 1.0 is   
      used for the rotational entropy correction. 
 

Note: Rotational entropy computed according to Herzberg 
Infrared and Raman Spectra, Chapter V,1, Van Nostrand Reinhold, 1945 
Point Group:  C1, Symmetry Number:   1  
Rotational constants in cm-1:     0.002101     0.001753     0.001362 

Vibrational entropy computed according to the QRRHO of S. Grimme
Chem.Eur.J. 2012 18 9955


-------
ENTROPY
-------

The entropy contributions are T*S = T*(S(el)+S(vib)+S(rot)+S(trans))
     S(el)   - electronic entropy
     S(vib)  - vibrational entropy
     S(rot)  - rotational entropy
     S(trans)- translational entropy
The entropies will be listed as mutliplied by the temperature to get
units of energy

Electronic entropy                ...      0.00000000 Eh      0.00 kcal/mol
Vibrational entropy               ...      0.10191414 Eh     63.95 kcal/mol
Rotational entropy                ...      0.01853268 Eh     11.63 kcal/mol
Translational entropy             ...      0.02166895 Eh     13.60 kcal/mol
-----------------------------------------------------------------------
Final entropy term                ...      0.14211577 Eh     89.18 kcal/mol

In case the symmetry of your molecule has not been determined correctly
or in case you have a reason to use a different symmetry number we print 
out the resulting rotational entropy values for sn=1,12 :
 --------------------------------------------------------
|  sn= 1 | S(rot)=       0.01853268 Eh     11.63 kcal/mol|
|  sn= 2 | S(rot)=       0.01787822 Eh     11.22 kcal/mol|
|  sn= 3 | S(rot)=       0.01749539 Eh     10.98 kcal/mol|
|  sn= 4 | S(rot)=       0.01722377 Eh     10.81 kcal/mol|
|  sn= 5 | S(rot)=       0.01701308 Eh     10.68 kcal/mol|
|  sn= 6 | S(rot)=       0.01684094 Eh     10.57 kcal/mol|
|  sn= 7 | S(rot)=       0.01669539 Eh     10.48 kcal/mol|
|  sn= 8 | S(rot)=       0.01656931 Eh     10.40 kcal/mol|
|  sn= 9 | S(rot)=       0.01645810 Eh     10.33 kcal/mol|
|  sn=10 | S(rot)=       0.01635862 Eh     10.27 kcal/mol|
|  sn=11 | S(rot)=       0.01626863 Eh     10.21 kcal/mol|
|  sn=12 | S(rot)=       0.01618648 Eh     10.16 kcal/mol|
 --------------------------------------------------------


-------------------
GIBBS FREE ENERGY
-------------------

The Gibbs free energy is G = H - T*S

Total enthalpy                    ...  -2379.05152932 Eh 
Total entropy correction          ...     -0.14211577 Eh    -89.18 kcal/mol
-----------------------------------------------------------------------
Final Gibbs free energy         ...  -2379.19364508 Eh

For completeness - the Gibbs free energy minus the electronic energy
G-E(el)                           ...      0.89513465 Eh    561.70 kcal/mol

--------------------------------------------------------------------------
WARNING: No preset parameters were found for the device that Open MPI
detected:

  Local host:            eu-g1-042-2
  Device name:           mlx5_0
  Device vendor ID:      0x02c9
  Device vendor part ID: 4123

Default device parameters will be used, which may result in lower
performance.  You can edit any of the files specified by the
btl_openib_device_param_files MCA parameter to set values for your
device.

NOTE: You can turn off this warning by setting the MCA parameter
      btl_openib_warn_no_device_params_found to 0.
--------------------------------------------------------------------------
--------------------------------------------------------------------------
WARNING: There was an error initializing an OpenFabrics device.

  Local host:   eu-g1-042-2
  Local device: mlx5_0
--------------------------------------------------------------------------

Timings for individual modules:

Sum of individual times         ...    31859.932 sec (= 530.999 min)
GTO integral calculation        ...       61.151 sec (=   1.019 min)   0.2 %
SCF iterations                  ...     1430.015 sec (=  23.834 min)   4.5 %
SCF Gradient evaluation         ...      656.846 sec (=  10.947 min)   2.1 %
Geometry relaxation             ...       24.347 sec (=   0.406 min)   0.1 %
Analytical frequency calculation...    29687.574 sec (= 494.793 min)  93.2 %
                             ****ORCA TERMINATED NORMALLY****
TOTAL RUN TIME: 0 days 8 hours 51 minutes 30 seconds 771 msec
