
                                 *****************
                                 * O   R   C   A *
                                 *****************

           --- An Ab Initio, DFT and Semiempirical electronic structure package ---

                  #######################################################
                  #                        -***-                        #
                  #          Department of theory and spectroscopy      #
                  #               Directorship: Frank Neese             #
                  #        Max Planck Institute fuer Kohlenforschung    #
                  #                Kaiser Wilhelm Platz 1               #
                  #                 D-45470 Muelheim/Ruhr               #
                  #                      Germany                        #
                  #                                                     #
                  #                  All rights reserved                #
                  #                        -***-                        #
                  #######################################################


                         Program Version 4.2.0 -  RELEASE  -


 With contributions from (in alphabetic order):
   Daniel Aravena         : Magnetic Suceptibility
   Michael Atanasov       : Ab Initio Ligand Field Theory (pilot matlab implementation)
   Alexander A. Auer      : GIAO ZORA, VPT2
   Ute Becker             : Parallelization
   Giovanni Bistoni       : ED, misc. LED, open-shell LED, HFLED
   Martin Brehm           : Molecular dynamics
   Dmytro Bykov           : SCF Hessian
   Vijay G. Chilkuri      : MRCI spin determinant printing, contributions to CSF-ICE
   Dipayan Datta          : RHF DLPNO-CCSD density
   Achintya Kumar Dutta   : EOM-CC, STEOM-CC
   Dmitry Ganyushin       : Spin-Orbit,Spin-Spin,Magnetic field MRCI
   Miquel Garcia          : C-PCM Hessian, Gaussian charge scheme
   Yang Guo               : DLPNO-NEVPT2, CIM, IAO-localization
   Andreas Hansen         : Spin unrestricted coupled pair/coupled cluster methods
   Benjamin Helmich-Paris : CASSCF linear response (MC-RPA)
   Lee Huntington         : MR-EOM, pCC
   Robert Izsak           : Overlap fitted RIJCOSX, COSX-SCS-MP3, EOM
   Christian Kollmar      : KDIIS, OOCD, Brueckner-CCSD(T), CCSD density
   Simone Kossmann        : Meta GGA functionals, TD-DFT gradient, OOMP2, MP2 Hessian
   Martin Krupicka        : AUTO-CI
   Lucas Lang             : DCDCAS
   Dagmar Lenk            : GEPOL surface, SMD
   Dimitrios Liakos       : Extrapolation schemes; Compound Job, initial MDCI parallelization
   Dimitrios Manganas     : Further ROCIS development; embedding schemes
   Dimitrios Pantazis     : SARC Basis sets
   Taras Petrenko         : DFT Hessian,TD-DFT gradient, ASA, ECA, R-Raman, ABS, FL, XAS/XES, NRVS
   Peter Pinski           : DLPNO-MP2, DLPNO-MP2 Gradient
   Christoph Reimann      : Effective Core Potentials
   Marius Retegan         : Local ZFS, SOC
   Christoph Riplinger    : Optimizer, TS searches, QM/MM, DLPNO-CCSD(T), (RO)-DLPNO pert. Triples
   Tobias Risthaus        : Range-separated hybrids, TD-DFT gradient, RPA, STAB
   Michael Roemelt        : Original ROCIS implementation
   Masaaki Saitow         : Open-shell DLPNO-CCSD energy and density
   Barbara Sandhoefer     : DKH picture change effects
   Avijit Sen             : IP-ROCIS
   Kantharuban Sivalingam : CASSCF convergence, NEVPT2, FIC-MRCI
   Bernardo de Souza      : ESD, SOC TD-DFT
   Georgi Stoychev        : AutoAux, RI-MP2 NMR
   Willem Van den Heuvel  : Paramagnetic NMR
   Boris Wezisla          : Elementary symmetry handling
   Frank Wennmohs         : Technical directorship


 We gratefully acknowledge several colleagues who have allowed us to
 interface, adapt or use parts of their codes:
   Stefan Grimme, W. Hujo, H. Kruse,             : VdW corrections, initial TS optimization,
                  C. Bannwarth                     DFT functionals, gCP, sTDA/sTD-DF
   Ed Valeev, F. Pavosevic, A. Kumar             : LibInt (2-el integral package), F12 methods
   Garnet Chan, S. Sharma, J. Yang, R. Olivares  : DMRG
   Ulf Ekstrom                                   : XCFun DFT Library
   Mihaly Kallay                                 : mrcc  (arbitrary order and MRCC methods)
   Andreas Klamt, Michael Diedenhofen            : otool_cosmo (COSMO solvation model)
   Jiri Pittner, Ondrej Demel                    : Mk-CCSD
   Frank Weinhold                                : gennbo (NPA and NBO analysis)
   Christopher J. Cramer and Donald G. Truhlar   : smd solvation model
   Lars Goerigk                                  : TD-DFT with DH, B97 family of functionals
   V. Asgeirsson, H. Jonsson                     : NEB implementation
   FAccTs GmbH                                   : IRC, NEB, NEB-TS, Multilevel, MM, QM/MM, CI optimization
   S Lehtola, MJT Oliveira, MAL Marques          : LibXC Library


 Your calculation uses the libint2 library for the computation of 2-el integrals
 For citations please refer to: http://libint.valeyev.net

 Your ORCA version has been built with support for libXC version: 4.2.3
 For citations please refer to: https://tddft.org/programs/libxc/

 This ORCA versions uses:
   CBLAS   interface :  Fast vector & matrix operations
   LAPACKE interface :  Fast linear algebra routines
   SCALAPACK package :  Parallel linear algebra routines




***************************************
The coordinates will be read from file: 21.xyz
***************************************


Your calculation utilizes the atom-pairwise dispersion correction
with the Becke-Johnson damping scheme (D3BJ)
Cite in your paper:
S.Grimme, S.Ehrlich, L.Goerigk, J Comput Chem, (2011), 32, 1456–1465 
S.Grimme, J.Antony, S.Ehrlich and H.Krieg, J.Chem.Phys., 132, (2010), 154104 
   

----- Orbital basis set information -----
Your calculation utilizes the basis: def2-TZVP
   F. Weigend and R. Ahlrichs, Phys. Chem. Chem. Phys. 7, 3297 (2005).

----- AuxJ basis set information -----
Your calculation utilizes the auxiliary basis: def2/J
   F. Weigend, Phys. Chem. Chem. Phys. 8, 1057 (2006).

================================================================================
                                        WARNINGS
                       Please study these warnings very carefully!
================================================================================


WARNING: Geometry Optimization
  ===> : Switching off AutoStart
         For restart on a previous wavefunction, please use MOREAD

INFO   : the flag for use of LIBINT has been found!

================================================================================
                                       INPUT FILE
================================================================================
NAME = 21.inp
|  1> !RI BP86 def2-tzvp def2/J D3BJ TIGHTSCF TightOpt Grid5 FinalGrid6 freq
|  2> %maxcore 4000
|  3> %pal nprocs 24
|  4> end
|  5> * xyzfile 0 1 21.xyz 
|  6> 
|  7>                          ****END OF INPUT****
================================================================================

                       *****************************
                       * Geometry Optimization Run *
                       *****************************

Geometry optimization settings:
Update method            Update   .... BFGS
Choice of coordinates    CoordSys .... Z-matrix Internals
Initial Hessian          InHess   .... Almoef's Model

Convergence Tolerances:
Energy Change            TolE     ....  1.0000e-06 Eh
Max. Gradient            TolMAXG  ....  1.0000e-04 Eh/bohr
RMS Gradient             TolRMSG  ....  3.0000e-05 Eh/bohr
Max. Displacement        TolMAXD  ....  1.0000e-03 bohr
RMS Displacement         TolRMSD  ....  6.0000e-04 bohr
Strict Convergence                ....  False
------------------------------------------------------------------------------
                        ORCA OPTIMIZATION COORDINATE SETUP
------------------------------------------------------------------------------

The optimization will be done in new redundant internal coordinates
Making redundant internal coordinates   ...  (new redundants) done
Evaluating the initial hessian          ...  (Almloef) done
Evaluating the coordinates              ...  done
Calculating the B-matrix                .... done
Calculating the G-matrix                .... done
Diagonalizing the G-matrix              .... done
Small eigenvalue found = 1.297e-03
Small eigenvalue found = 2.350e-03
Small eigenvalue found = 3.450e-03
Small eigenvalue found = 4.093e-03
Small eigenvalue found = 5.926e-03
Small eigenvalue found = 6.696e-03
Small eigenvalue found = 8.458e-03
Small eigenvalue found = 8.827e-03
Small eigenvalue found = 1.106e-02
Small eigenvalue found = 1.197e-02
Small eigenvalue found = 1.308e-02
Small eigenvalue found = 1.629e-02
Small eigenvalue found = 1.926e-02
Small eigenvalue found = 2.003e-02
Small eigenvalue found = 2.130e-02
Small eigenvalue found = 2.330e-02
Small eigenvalue found = 2.559e-02
Small eigenvalue found = 2.897e-02
The first mode is                       ....  328
The number of degrees of freedom        ....  339

    -----------------------------------------------------------------
                    Redundant Internal Coordinates


    -----------------------------------------------------------------
         Definition                    Initial Value    Approx d2E/dq
    -----------------------------------------------------------------
      1. B(C   1,O   0)                  1.2314         1.001979   
      2. B(C   2,C   1)                  1.5541         0.341880   
      3. B(C   3,C   2)                  1.5269         0.377879   
      4. B(C   4,C   3)                  1.5364         0.364885   
      5. B(C   5,C   4)                  1.5352         0.366557   
      6. B(N   6,C   5)                  1.4783         0.404525   
      7. B(N   6,C   2)                  1.4818         0.399435   
      8. B(C   7,N   6)                  1.3520         0.643335   
      9. B(O   8,C   7)                  1.2461         0.949440   
     10. B(N   9,C   1)                  1.3572         0.631305   
     11. B(C  10,N   9)                  1.4442         0.458511   
     12. B(C  11,C  10)                  1.5349         0.366849   
     13. B(N  12,C  11)                  1.3594         0.626160   
     14. B(C  13,N  12)                  1.4648         0.425108   
     15. B(C  14,C  13)                  1.5443         0.354484   
     16. B(N  15,C  14)                  1.3651         0.613228   
     17. B(C  16,N  15)                  1.4570         0.437434   
     18. B(C  17,C  16)                  1.5480         0.349726   
     19. B(C  18,C  17)                  1.5439         0.354992   
     20. B(C  19,C  18)                  1.5356         0.365956   
     21. B(N  20,C  19)                  1.3650         0.613364   
     22. B(C  21,N  20)                  1.4518         0.445879   
     23. B(C  22,C  21)                  1.5405         0.359382   
     24. B(N  23,C  22)                  1.3635         0.616732   
     25. B(C  24,C   7)                  1.5317         0.371195   
     26. B(C  24,N  23)                  1.4509         0.447498   
     27. B(C  25,C  24)                  1.5351         0.366580   
     28. B(O  26,C  22)                  1.2320         1.000012   
     29. B(C  27,C  21)                  1.5365         0.364744   
     30. B(C  28,C  27)                  1.5342         0.367905   
     31. B(C  29,C  28)                  1.5323         0.370381   
     32. B(C  30,C  28)                  1.5331         0.369382   
     33. B(O  31,C  19)                  1.2320         0.999818   
     34. B(C  32,C  18)                  1.5502         0.346847   
     35. B(C  33,C  32)                  1.5147         0.395155   
     36. B(C  34,C  33)                  1.5260         0.379143   
     37. B(C  35,C  34)                  1.5305         0.372906   
     38. B(C  36,C  35)                  1.5321         0.370640   
     39. B(C  37,C  36)                  1.5340         0.368169   
     40. B(C  38,C  37)                  1.5409         0.358877   
     41. B(C  39,C  38)                  1.5320         0.370838   
     42. B(C  40,C  39)                  1.5295         0.374240   
     43. B(C  41,C  40)                  1.5284         0.375790   
     44. B(O  42,C  32)                  1.2175         1.054725   
     45. B(O  43,C  17)                  1.4321         0.479484   
     46. B(O  44,C  14)                  1.2271         1.017928   
     47. B(C  45,C  13)                  1.5381         0.362667   
     48. B(C  46,C  45)                  1.5278         0.376597   
     49. B(O  47,C  11)                  1.2377         0.979272   
     50. B(C  48,C  10)                  1.5600         0.334589   
     51. B(C  49,C  48)                  1.5306         0.372735   
     52. B(C  50,C  48)                  1.5306         0.372770   
     53. B(H  51,C   2)                  1.1000         0.347155   
     54. B(H  52,C   3)                  1.0981         0.349552   
     55. B(H  53,C   3)                  1.0952         0.353224   
     56. B(H  54,C   4)                  1.0988         0.348657   
     57. B(H  55,C   4)                  1.0967         0.351292   
     58. B(H  56,C   5)                  1.0985         0.349044   
     59. B(H  57,C   5)                  1.1010         0.345802   
     60. B(H  58,N   9)                  1.0290         0.403473   
     61. B(H  59,C  10)                  1.1036         0.342593   
     62. B(H  60,N  12)                  1.0164         0.422651   
     63. B(H  61,C  13)                  1.1007         0.346244   
     64. B(H  62,N  15)                  1.0159         0.423491   
     65. B(H  63,C  16)                  1.0985         0.349041   
     66. B(H  64,C  16)                  1.0985         0.349040   
     67. B(H  65,C  17)                  1.1014         0.345274   
     68. B(H  66,C  18)                  1.0990         0.348430   
     69. B(H  67,N  20)                  1.0246         0.410059   
     70. B(H  68,C  21)                  1.1020         0.344527   
     71. B(H  69,N  23)                  1.0185         0.419333   
     72. B(H  70,C  24)                  1.0984         0.349094   
     73. B(H  71,C  25)                  1.0972         0.350706   
     74. B(H  72,C  25)                  1.0984         0.349157   
     75. B(H  73,C  25)                  1.0986         0.348866   
     76. B(H  74,C  27)                  1.1001         0.346923   
     77. B(H  75,C  27)                  1.1028         0.343597   
     78. B(H  76,C  28)                  1.1052         0.340487   
     79. B(H  77,C  29)                  1.0982         0.349464   
     80. B(H  78,C  29)                  1.0997         0.347458   
     81. B(H  79,C  29)                  1.1018         0.344768   
     82. B(H  80,H  62)                  4.5523         0.000000   
     83. B(H  80,C  30)                  1.1009         0.345912   
     84. B(H  81,C  30)                  1.1015         0.345225   
     85. B(H  82,C  30)                  1.0996         0.347559   
     86. B(H  83,H  58)                  4.0489         0.000001   
     87. B(H  83,C  33)                  1.1067         0.338716   
     88. B(H  84,C  33)                  1.1037         0.342414   
     89. B(H  85,C  34)                  1.1021         0.344476   
     90. B(H  86,C  34)                  1.1007         0.346251   
     91. B(H  87,C  35)                  1.1035         0.342635   
     92. B(H  88,H  73)                  2.3153         0.000765   
     93. B(H  88,C  35)                  1.1038         0.342279   
     94. B(H  89,C  36)                  1.1043         0.341705   
     95. B(H  90,C  36)                  1.1035         0.342718   
     96. B(H  91,C  37)                  1.1015         0.345265   
     97. B(H  92,C  37)                  1.1042         0.341833   
     98. B(H  93,C  38)                  1.1046         0.341332   
     99. B(H  94,C  38)                  1.1028         0.343599   
    100. B(H  95,C  39)                  1.1046         0.341257   
    101. B(H  96,H  51)                  3.7679         0.000004   
    102. B(H  96,C  39)                  1.1027         0.343654   
    103. B(H  97,C  40)                  1.1031         0.343131   
    104. B(H  98,C  40)                  1.1031         0.343143   
    105. B(H  99,C  41)                  1.0999         0.347210   
    106. B(H 100,H  72)                  2.3719         0.000621   
    107. B(H 100,C  41)                  1.1000         0.347112   
    108. B(H 101,C  41)                  1.1008         0.346120   
    109. B(H 102,O  43)                  0.9884         0.468505   
    110. B(H 103,C  45)                  1.1033         0.342965   
    111. B(H 104,C  45)                  1.1035         0.342666   
    112. B(H 105,C  46)                  1.0983         0.349288   
    113. B(H 106,C  46)                  1.0970         0.350961   
    114. B(H 107,C  46)                  1.0989         0.348557   
    115. B(H 108,C  48)                  1.1044         0.341494   
    116. B(H 109,C  49)                  1.0976         0.350170   
    117. B(H 110,C  49)                  1.0989         0.348545   
    118. B(H 111,C  49)                  1.0992         0.348112   
    119. B(H 112,H 102)                  2.6704         0.000207   
    120. B(H 112,C  50)                  1.0999         0.347237   
    121. B(H 113,H  75)                  2.2337         0.001032   
    122. B(H 113,C  50)                  1.0977         0.350039   
    123. B(H 114,C  50)                  1.0993         0.348034   
    124. A(O   0,C   1,N   9)          124.2230         0.468914   
    125. A(C   2,C   1,N   9)          113.3589         0.389315   
    126. A(O   0,C   1,C   2)          122.3958         0.422415   
    127. A(C   1,C   2,H  51)          108.7199         0.317740   
    128. A(N   6,C   2,H  51)          108.4769         0.323990   
    129. A(C   1,C   2,N   6)          110.8715         0.359759   
    130. A(C   1,C   2,C   3)          111.4141         0.358599   
    131. A(C   3,C   2,H  51)          114.0897         0.322983   
    132. A(C   3,C   2,N   6)          103.1432         0.365965   
    133. A(C   4,C   3,H  53)          112.5405         0.322049   
    134. A(C   4,C   3,H  52)          111.0259         0.321499   
    135. A(C   2,C   3,C   4)          102.9804         0.362602   
    136. A(C   2,C   3,H  53)          110.9363         0.323903   
    137. A(C   2,C   3,H  52)          109.7526         0.323348   
    138. A(H  52,C   3,H  53)          109.4548         0.288613   
    139. A(H  54,C   4,H  55)          108.1043         0.288250   
    140. A(C   3,C   4,H  55)          113.2438         0.321760   
    141. A(C   3,C   4,C   5)          104.1061         0.360725   
    142. A(C   3,C   4,H  54)          109.3262         0.321364   
    143. A(C   5,C   4,H  55)          111.7698         0.322001   
    144. A(C   5,C   4,H  54)          110.2467         0.321605   
    145. A(H  56,C   5,H  57)          108.2836         0.287590   
    146. A(C   4,C   5,N   6)          103.6788         0.364854   
    147. A(C   4,C   5,H  56)          112.6953         0.321663   
    148. A(N   6,C   5,H  57)          109.8362         0.324456   
    149. A(N   6,C   5,H  56)          110.8943         0.324954   
    150. A(C   4,C   5,H  57)          111.4093         0.321172   
    151. A(C   5,N   6,C   7)          126.3723         0.399730   
    152. A(C   2,N   6,C   7)          121.6710         0.398841   
    153. A(C   2,N   6,C   5)          111.7598         0.367955   
    154. A(O   8,C   7,C  24)          119.7740         0.424566   
    155. A(N   6,C   7,O   8)          122.2007         0.465918   
    156. A(N   6,C   7,C  24)          118.0250         0.396270   
    157. A(C   1,N   9,C  10)          122.3581         0.407304   
    158. A(C  10,N   9,H  58)          119.7490         0.336910   
    159. A(C   1,N   9,H  58)          117.8806         0.355520   
    160. A(C  48,C  10,H  59)          108.1755         0.315947   
    161. A(C  11,C  10,H  59)          108.8504         0.320724   
    162. A(N   9,C  10,C  11)          108.7113         0.372838   
    163. A(N   9,C  10,C  48)          111.6987         0.366986   
    164. A(N   9,C  10,H  59)          107.1536         0.330717   
    165. A(C  11,C  10,C  48)          112.0945         0.355494   
    166. A(N  12,C  11,O  47)          121.2947         0.466249   
    167. A(C  10,C  11,O  47)          122.4338         0.426024   
    168. A(C  10,C  11,N  12)          116.2376         0.393581   
    169. A(C  13,N  12,H  60)          117.9336         0.335277   
    170. A(C  11,N  12,C  13)          122.4531         0.401322   
    171. A(C  11,N  12,H  60)          118.9936         0.357838   
    172. A(C  14,C  13,C  45)          111.4460         0.358301   
    173. A(N  12,C  13,H  61)          109.2459         0.327185   
    174. A(C  14,C  13,H  61)          104.3275         0.319486   
    175. A(N  12,C  13,C  14)          112.9736         0.365863   
    176. A(C  45,C  13,H  61)          110.0228         0.320679   
    177. A(N  12,C  13,C  45)          108.7338         0.367297   
    178. A(C  13,C  14,N  15)          115.8688         0.389802   
    179. A(N  15,C  14,O  44)          123.5257         0.467776   
    180. A(C  13,C  14,O  44)          120.5487         0.426362   
    181. A(C  14,N  15,H  62)          116.5936         0.356691   
    182. A(C  16,N  15,H  62)          117.1261         0.336987   
    183. A(C  14,N  15,C  16)          121.4722         0.401867   
    184. A(H  63,C  16,H  64)          108.5726         0.288009   
    185. A(C  17,C  16,H  64)          108.9816         0.319200   
    186. A(N  15,C  16,H  63)          107.6890         0.329167   
    187. A(C  17,C  16,H  63)          110.5995         0.319200   
    188. A(N  15,C  16,C  17)          111.7332         0.366809   
    189. A(N  15,C  16,H  64)          109.2015         0.329167   
    190. A(O  43,C  17,H  65)          109.5378         0.333607   
    191. A(C  18,C  17,H  65)          108.0818         0.319414   
    192. A(C  16,C  17,H  65)          107.7455         0.318636   
    193. A(C  16,C  17,C  18)          111.5449         0.356182   
    194. A(C  18,C  17,O  43)          108.6951         0.373602   
    195. A(C  16,C  17,O  43)          111.1707         0.372641   
    196. A(C  19,C  18,H  66)          105.9591         0.321484   
    197. A(C  17,C  18,H  66)          107.8810         0.319889   
    198. A(C  17,C  18,C  32)          108.5791         0.355683   
    199. A(C  17,C  18,C  19)          117.8956         0.358939   
    200. A(C  19,C  18,C  32)          110.9872         0.357525   
    201. A(C  32,C  18,H  66)          104.6589         0.318679   
    202. A(C  18,C  19,N  20)          116.5709         0.391993   
    203. A(N  20,C  19,O  31)          123.4585         0.466259   
    204. A(C  18,C  19,O  31)          119.9367         0.427425   
    205. A(C  19,N  20,H  67)          116.5915         0.354759   
    206. A(C  19,N  20,C  21)          123.3565         0.403240   
    207. A(C  21,N  20,H  67)          119.9462         0.336252   
    208. A(C  27,C  21,H  68)          109.5091         0.320718   
    209. A(C  22,C  21,H  68)          106.9267         0.319943   
    210. A(N  20,C  21,H  68)          105.9951         0.329500   
    211. A(N  20,C  21,C  22)          111.9066         0.369739   
    212. A(C  22,C  21,C  27)          110.0512         0.359488   
    213. A(N  20,C  21,C  27)          112.2159         0.370682   
    214. A(C  21,C  22,N  23)          115.5532         0.391127   
    215. A(C  21,C  22,O  26)          121.4851         0.426054   
    216. A(N  23,C  22,O  26)          122.9598         0.466743   
    217. A(C  22,N  23,C  24)          121.9109         0.403888   
    218. A(C  24,N  23,H  69)          116.6469         0.337711   
    219. A(C  22,N  23,H  69)          120.5121         0.356439   
    220. A(C  25,C  24,H  70)          109.5282         0.321674   
    221. A(N  23,C  24,H  70)          105.9667         0.330415   
    222. A(C   7,C  24,H  70)          111.5314         0.322333   
    223. A(N  23,C  24,C  25)          112.0134         0.371234   
    224. A(C   7,C  24,N  23)          107.1949         0.372034   
    225. A(C   7,C  24,C  25)          110.5219         0.361785   
    226. A(H  71,C  25,H  73)          109.0037         0.288201   
    227. A(C  24,C  25,H  73)          110.2311         0.321640   
    228. A(H  71,C  25,H  72)          108.6068         0.288239   
    229. A(C  24,C  25,H  72)          111.1600         0.321683   
    230. A(C  24,C  25,H  71)          109.4062         0.321917   
    231. A(H  72,C  25,H  73)          108.3861         0.288002   
    232. A(C  28,C  27,H  75)          109.3902         0.321029   
    233. A(C  21,C  27,C  28)          114.5945         0.360927   
    234. A(H  74,C  27,H  75)          106.3393         0.287030   
    235. A(C  21,C  27,H  75)          108.1153         0.320576   
    236. A(C  28,C  27,H  74)          110.3070         0.321535   
    237. A(C  21,C  27,H  74)          107.7488         0.321082   
    238. A(C  29,C  28,C  30)          111.1288         0.362120   
    239. A(C  27,C  28,C  30)          109.7098         0.361706   
    240. A(C  27,C  28,C  29)          112.1408         0.361873   
    241. A(C  30,C  28,H  76)          107.8381         0.320762   
    242. A(C  29,C  28,H  76)          107.8424         0.320904   
    243. A(C  27,C  28,H  76)          108.0195         0.320552   
    244. A(C  28,C  29,H  79)          110.5448         0.321560   
    245. A(H  78,C  29,H  79)          107.7562         0.287251   
    246. A(H  77,C  29,H  79)          108.7280         0.287510   
    247. A(H  77,C  29,H  78)          107.3709         0.287859   
    248. A(C  28,C  29,H  78)          110.6802         0.321970   
    249. A(C  28,C  29,H  77)          111.6212         0.322274   
    250. A(H  81,C  30,H  82)          107.6707         0.287324   
    251. A(H  80,C  30,H  82)          107.9604         0.287413   
    252. A(C  28,C  30,H  82)          111.1771         0.321843   
    253. A(H  80,C  30,H  81)          107.6386         0.287111   
    254. A(C  28,C  30,H  81)          110.7398         0.321488   
    255. A(C  28,C  30,H  80)          111.4878         0.321593   
    256. A(C  33,C  32,O  42)          123.1829         0.437549   
    257. A(C  18,C  32,O  42)          119.0805         0.427412   
    258. A(C  18,C  32,C  33)          117.5979         0.362231   
    259. A(C  32,C  33,C  34)          114.0305         0.367793   
    260. A(C  34,C  33,H  84)          111.7246         0.322432   
    261. A(H  83,C  33,H  84)          105.1205         0.285806   
    262. A(C  32,C  33,H  84)          108.3182         0.324628   
    263. A(C  34,C  33,H  83)          111.2875         0.321859   
    264. A(C  32,C  33,H  83)          105.8109         0.324049   
    265. A(C  33,C  34,C  35)          113.5473         0.364160   
    266. A(H  85,C  34,H  86)          105.5613         0.287057   
    267. A(C  35,C  34,H  86)          109.2147         0.322145   
    268. A(C  33,C  34,H  86)          108.5535         0.323022   
    269. A(C  35,C  34,H  85)          110.0814         0.321874   
    270. A(C  33,C  34,H  85)          109.5617         0.322750   
    271. A(C  34,C  35,C  36)          111.6783         0.362751   
    272. A(H  87,C  35,H  88)          105.9579         0.286301   
    273. A(C  36,C  35,H  88)          109.9530         0.321216   
    274. A(C  34,C  35,H  88)          110.0273         0.321537   
    275. A(C  36,C  35,H  87)          110.0938         0.321271   
    276. A(C  34,C  35,H  87)          108.9659         0.321591   
    277. A(C  35,C  36,C  37)          116.1368         0.361960   
    278. A(H  89,C  36,H  90)          105.7462         0.286237   
    279. A(C  37,C  36,H  90)          108.2713         0.320932   
    280. A(C  35,C  36,H  90)          108.3847         0.321283   
    281. A(C  37,C  36,H  89)          109.0676         0.320777   
    282. A(C  35,C  36,H  89)          108.7402         0.321128   
    283. A(C  36,C  37,C  38)          115.6113         0.359975   
    284. A(H  91,C  37,H  92)          105.7816         0.286585   
    285. A(C  38,C  37,H  92)          108.9035         0.319459   
    286. A(C  36,C  37,H  92)          109.1935         0.320796   
    287. A(C  38,C  37,H  91)          109.2247         0.319981   
    288. A(C  36,C  37,H  91)          107.6770         0.321321   
    289. A(C  37,C  38,C  39)          114.3250         0.360418   
    290. A(H  93,C  38,H  94)          105.6617         0.286303   
    291. A(C  39,C  38,H  94)          107.8513         0.321447   
    292. A(C  37,C  38,H  94)          109.3482         0.319728   
    293. A(C  39,C  38,H  93)          109.6493         0.321099   
    294. A(C  37,C  38,H  93)          109.6330         0.319383   
    295. A(C  38,C  39,C  40)          113.3343         0.363006   
    296. A(H  95,C  39,H  96)          105.6372         0.286300   
    297. A(C  40,C  39,H  96)          109.4239         0.321936   
    298. A(C  38,C  39,H  96)          110.4588         0.321455   
    299. A(C  40,C  39,H  95)          109.0332         0.321567   
    300. A(C  38,C  39,H  95)          108.6532         0.321087   
    301. A(C  39,C  40,C  41)          112.5805         0.363830   
    302. A(H  97,C  40,H  98)          105.8404         0.286479   
    303. A(C  41,C  40,H  98)          109.6380         0.322075   
    304. A(C  39,C  40,H  98)          109.3666         0.321858   
    305. A(C  41,C  40,H  97)          109.8786         0.322074   
    306. A(C  39,C  40,H  97)          109.3121         0.321856   
    307. A(H 100,C  41,H 101)          107.1416         0.287382   
    308. A(H  99,C  41,H 101)          107.7046         0.287395   
    309. A(C  40,C  41,H 101)          110.9330         0.322532   
    310. A(H  99,C  41,H 100)          108.0926         0.287524   
    311. A(C  40,C  41,H 100)          110.6349         0.322683   
    312. A(C  40,C  41,H  99)          112.1376         0.322698   
    313. A(C  17,O  43,H 102)          111.0789         0.348048   
    314. A(C  13,C  45,C  46)          113.7714         0.362015   
    315. A(C  46,C  45,H 104)          109.5506         0.322115   
    316. A(C  13,C  45,H 104)          107.6138         0.320135   
    317. A(C  46,C  45,H 103)          110.0853         0.322161   
    318. A(C  13,C  45,H 103)          108.6165         0.320181   
    319. A(H 103,C  45,H 104)          106.9537         0.286395   
    320. A(H 106,C  46,H 107)          107.3674         0.288194   
    321. A(H 105,C  46,H 107)          108.1443         0.287979   
    322. A(C  45,C  46,H 107)          111.0344         0.323016   
    323. A(H 105,C  46,H 106)          108.4275         0.288289   
    324. A(C  45,C  46,H 106)          111.5470         0.323381   
    325. A(C  45,C  46,H 105)          110.1944         0.323127   
    326. A(C  50,C  48,H 108)          108.5361         0.321397   
    327. A(C  49,C  48,H 108)          107.6830         0.321392   
    328. A(C  10,C  48,H 108)          107.0482         0.315782   
    329. A(C  49,C  48,C  50)          110.5660         0.363078   
    330. A(C  10,C  48,C  50)          111.5471         0.356462   
    331. A(C  10,C  48,C  49)          111.2806         0.356456   
    332. A(H 110,C  49,H 111)          107.6539         0.287825   
    333. A(H 109,C  49,H 111)          108.8333         0.288035   
    334. A(C  48,C  49,H 111)          110.1139         0.322403   
    335. A(H 109,C  49,H 110)          107.5655         0.288091   
    336. A(C  48,C  49,H 110)          110.5892         0.322469   
    337. A(C  48,C  49,H 109)          111.9494         0.322715   
    338. A(H 113,C  50,H 114)          107.5251         0.288008   
    339. A(H 112,C  50,H 114)          106.7090         0.287646   
    340. A(C  48,C  50,H 114)          110.6076         0.322397   
    341. A(H 112,C  50,H 113)          108.3947         0.287905   
    342. A(C  48,C  50,H 113)          110.6028         0.322700   
    343. A(C  48,C  50,H 112)          112.7838         0.322276   
    344. D(H  51,C   2,C   1,N   9)    -63.6292         0.008871   
    345. D(C   3,C   2,C   1,N   9)    169.7997         0.008871   
    346. D(N   6,C   2,C   1,N   9)     55.5361         0.008871   
    347. D(N   6,C   2,C   1,O   0)   -122.8114         0.008871   
    348. D(C   3,C   2,C   1,O   0)     -8.5479         0.008871   
    349. D(H  51,C   2,C   1,O   0)    118.0232         0.008871   
    350. D(C   4,C   3,C   2,N   6)     33.8724         0.011387   
    351. D(H  53,C   3,C   2,H  51)    -88.0598         0.011387   
    352. D(H  53,C   3,C   2,C   1)     35.5116         0.011387   
    353. D(C   4,C   3,C   2,H  51)    151.3172         0.011387   
    354. D(H  53,C   3,C   2,N   6)    154.4953         0.011387   
    355. D(H  52,C   3,C   2,H  51)     33.0236         0.011387   
    356. D(C   4,C   3,C   2,C   1)    -85.1114         0.011387   
    357. D(H  52,C   3,C   2,C   1)    156.5950         0.011387   
    358. D(H  52,C   3,C   2,N   6)    -84.4213         0.011387   
    359. D(H  55,C   4,C   3,H  53)     81.1308         0.010662   
    360. D(H  55,C   4,C   3,H  52)    -41.9532         0.010662   
    361. D(H  54,C   4,C   3,H  52)   -162.5521         0.010662   
    362. D(H  55,C   4,C   3,C   2)   -159.3509         0.010662   
    363. D(H  54,C   4,C   3,H  53)    -39.4680         0.010662   
    364. D(C   5,C   4,C   3,C   2)    -37.7417         0.010662   
    365. D(H  54,C   4,C   3,C   2)     80.0502         0.010662   
    366. D(C   5,C   4,C   3,H  53)   -157.2600         0.010662   
    367. D(C   5,C   4,C   3,H  52)     79.6560         0.010662   
    368. D(N   6,C   5,C   4,C   3)     26.4791         0.010754   
    369. D(H  57,C   5,C   4,C   3)    -91.5908         0.010754   
    370. D(H  56,C   5,C   4,H  55)    -90.9612         0.010754   
    371. D(H  56,C   5,C   4,C   3)    146.4558         0.010754   
    372. D(H  57,C   5,C   4,H  54)    151.2541         0.010754   
    373. D(H  56,C   5,C   4,H  54)     29.3008         0.010754   
    374. D(H  57,C   5,C   4,H  55)     30.9922         0.010754   
    375. D(N   6,C   5,C   4,H  54)    -90.6760         0.010754   
    376. D(N   6,C   5,C   4,H  55)    149.0621         0.010754   
    377. D(C   5,N   6,C   2,C   3)    -18.1787         0.013623   
    378. D(C   7,N   6,C   5,H  57)    -61.0043         0.013966   
    379. D(C   7,N   6,C   5,H  56)     58.6453         0.013966   
    380. D(C   7,N   6,C   5,C   4)    179.8404         0.013966   
    381. D(C   2,N   6,C   5,H  57)    113.9290         0.013966   
    382. D(C   2,N   6,C   5,H  56)   -126.4214         0.013966   
    383. D(C   7,N   6,C   2,H  51)     35.6996         0.013623   
    384. D(C   2,N   6,C   5,C   4)     -5.2262         0.013966   
    385. D(C   7,N   6,C   2,C   3)    157.0285         0.013623   
    386. D(C   5,N   6,C   2,C   1)    101.1808         0.013623   
    387. D(C   7,N   6,C   2,C   1)    -83.6119         0.013623   
    388. D(C   5,N   6,C   2,H  51)   -139.5077         0.013623   
    389. D(C  24,C   7,N   6,C   5)     -1.3552         0.033717   
    390. D(C  24,C   7,N   6,C   2)   -175.8248         0.033717   
    391. D(O   8,C   7,N   6,C   5)    178.8573         0.033717   
    392. D(O   8,C   7,N   6,C   2)      4.3877         0.033717   
    393. D(H  58,N   9,C   1,O   0)   -172.1373         0.032366   
    394. D(C  10,N   9,C   1,C   2)   -171.7299         0.032366   
    395. D(H  58,N   9,C   1,C   2)      9.5501         0.032366   
    396. D(C  10,N   9,C   1,O   0)      6.5827         0.032366   
    397. D(H  59,C  10,N   9,C   1)    -25.5639         0.017944   
    398. D(C  48,C  10,N   9,H  58)    -88.5617         0.017944   
    399. D(C  48,C  10,N   9,C   1)     92.7415         0.017944   
    400. D(C  11,C  10,N   9,C   1)   -143.0513         0.017944   
    401. D(H  59,C  10,N   9,H  58)    153.1329         0.017944   
    402. D(C  11,C  10,N   9,H  58)     35.6455         0.017944   
    403. D(O  47,C  11,C  10,N   9)     -0.3781         0.010090   
    404. D(N  12,C  11,C  10,H  59)     65.3137         0.010090   
    405. D(N  12,C  11,C  10,C  48)    -54.3115         0.010090   
    406. D(N  12,C  11,C  10,N   9)   -178.2837         0.010090   
    407. D(O  47,C  11,C  10,H  59)   -116.7808         0.010090   
    408. D(O  47,C  11,C  10,C  48)    123.5941         0.010090   
    409. D(H  60,N  12,C  11,O  47)    174.7927         0.031798   
    410. D(H  60,N  12,C  11,C  10)     -7.2760         0.031798   
    411. D(C  13,N  12,C  11,O  47)      4.0087         0.031798   
    412. D(C  13,N  12,C  11,C  10)   -178.0600         0.031798   
    413. D(H  61,C  13,N  12,C  11)     55.1431         0.015408   
    414. D(H  61,C  13,N  12,H  60)   -115.7337         0.015408   
    415. D(C  45,C  13,N  12,H  60)      4.3561         0.015408   
    416. D(C  45,C  13,N  12,C  11)    175.2328         0.015408   
    417. D(C  14,C  13,N  12,C  11)    -60.4961         0.015408   
    418. D(C  14,C  13,N  12,H  60)    128.6272         0.015408   
    419. D(O  44,C  14,C  13,C  45)    -87.3104         0.009474   
    420. D(O  44,C  14,C  13,N  12)    149.9161         0.009474   
    421. D(N  15,C  14,C  13,H  61)   -151.2717         0.009474   
    422. D(N  15,C  14,C  13,C  45)     90.0427         0.009474   
    423. D(O  44,C  14,C  13,H  61)     31.3751         0.009474   
    424. D(N  15,C  14,C  13,N  12)    -32.7307         0.009474   
    425. D(H  62,N  15,C  14,O  44)   -170.7949         0.030399   
    426. D(H  62,N  15,C  14,C  13)     11.9395         0.030399   
    427. D(C  16,N  15,C  14,O  44)    -16.0670         0.030399   
    428. D(C  16,N  15,C  14,C  13)    166.6674         0.030399   
    429. D(H  64,C  16,N  15,H  62)   -150.6283         0.016315   
    430. D(H  64,C  16,N  15,C  14)     54.7715         0.016315   
    431. D(H  63,C  16,N  15,H  62)    -32.9129         0.016315   
    432. D(H  63,C  16,N  15,C  14)    172.4869         0.016315   
    433. D(C  17,C  16,N  15,C  14)    -65.8661         0.016315   
    434. D(C  17,C  16,N  15,H  62)     88.7341         0.016315   
    435. D(H  65,C  17,C  16,H  64)    -47.1360         0.009855   
    436. D(H  65,C  17,C  16,H  63)   -166.4183         0.009855   
    437. D(H  65,C  17,C  16,N  15)     73.6298         0.009855   
    438. D(O  43,C  17,C  16,H  64)   -167.1682         0.009855   
    439. D(O  43,C  17,C  16,H  63)     73.5494         0.009855   
    440. D(O  43,C  17,C  16,N  15)    -46.4024         0.009855   
    441. D(C  18,C  17,C  16,H  64)     71.3345         0.009855   
    442. D(C  18,C  17,C  16,H  63)    -47.9478         0.009855   
    443. D(C  18,C  17,C  16,N  15)   -167.8997         0.009855   
    444. D(H  66,C  18,C  17,H  65)     67.0722         0.010131   
    445. D(H  66,C  18,C  17,O  43)   -174.1195         0.010131   
    446. D(H  66,C  18,C  17,C  16)    -51.1970         0.010131   
    447. D(C  32,C  18,C  17,O  43)     72.9899         0.010131   
    448. D(C  32,C  18,C  17,C  16)   -164.0876         0.010131   
    449. D(C  32,C  18,C  17,H  65)    -45.8184         0.010131   
    450. D(C  19,C  18,C  17,H  65)   -173.0812         0.010131   
    451. D(C  19,C  18,C  17,O  43)    -54.2728         0.010131   
    452. D(C  19,C  18,C  17,C  16)     68.6496         0.010131   
    453. D(O  31,C  19,C  18,H  66)    -41.7944         0.010045   
    454. D(O  31,C  19,C  18,C  32)     71.2604         0.010045   
    455. D(O  31,C  19,C  18,C  17)   -162.6398         0.010045   
    456. D(N  20,C  19,C  18,H  66)    140.2525         0.010045   
    457. D(N  20,C  19,C  18,C  17)     19.4071         0.010045   
    458. D(N  20,C  19,C  18,C  32)   -106.6926         0.010045   
    459. D(H  67,N  20,C  19,O  31)   -176.9893         0.030414   
    460. D(H  67,N  20,C  19,C  18)      0.8845         0.030414   
    461. D(C  21,N  20,C  19,O  31)     -0.7385         0.030414   
    462. D(C  21,N  20,C  19,C  18)    177.1353         0.030414   
    463. D(H  68,C  21,N  20,H  67)    164.2497         0.016956   
    464. D(H  68,C  21,N  20,C  19)    -11.8809         0.016956   
    465. D(C  27,C  21,N  20,H  67)    -76.2560         0.016956   
    466. D(C  27,C  21,N  20,C  19)    107.6134         0.016956   
    467. D(C  22,C  21,N  20,H  67)     48.0362         0.016956   
    468. D(C  22,C  21,N  20,C  19)   -128.0945         0.016956   
    469. D(N  23,C  22,C  21,C  27)    141.9813         0.009715   
    470. D(N  23,C  22,C  21,N  20)     16.4893         0.009715   
    471. D(O  26,C  22,C  21,H  68)     80.3489         0.009715   
    472. D(O  26,C  22,C  21,C  27)    -38.5116         0.009715   
    473. D(O  26,C  22,C  21,N  20)   -164.0036         0.009715   
    474. D(N  23,C  22,C  21,H  68)    -99.1581         0.009715   
    475. D(H  69,N  23,C  22,O  26)    174.6527         0.030774   
    476. D(H  69,N  23,C  22,C  21)     -5.8483         0.030774   
    477. D(C  24,N  23,C  22,O  26)      6.0611         0.030774   
    478. D(C  24,N  23,C  22,C  21)   -174.4398         0.030774   
    479. D(H  70,C  24,N  23,H  69)   -158.1013         0.017081   
    480. D(H  70,C  24,N  23,C  22)     10.9073         0.017081   
    481. D(C  25,C  24,N  23,H  69)     82.5120         0.017081   
    482. D(C  25,C  24,N  23,C  22)   -108.4794         0.017081   
    483. D(C   7,C  24,N  23,H  69)    -38.8830         0.017081   
    484. D(C   7,C  24,N  23,C  22)    130.1256         0.017081   
    485. D(H  70,C  24,C   7,O   8)    151.6839         0.010313   
    486. D(H  70,C  24,C   7,N   6)    -28.1089         0.010313   
    487. D(C  25,C  24,C   7,O   8)    -86.2171         0.010313   
    488. D(C  25,C  24,C   7,N   6)     93.9900         0.010313   
    489. D(N  23,C  24,C   7,O   8)     36.1120         0.010313   
    490. D(N  23,C  24,C   7,N   6)   -143.6809         0.010313   
    491. D(H  73,C  25,C  24,H  70)   -179.2180         0.010755   
    492. D(H  73,C  25,C  24,N  23)    -61.9461         0.010755   
    493. D(H  73,C  25,C  24,C   7)     57.5138         0.010755   
    494. D(H  72,C  25,C  24,H  70)     60.5757         0.010755   
    495. D(H  72,C  25,C  24,N  23)    177.8476         0.010755   
    496. D(H  72,C  25,C  24,C   7)    -62.6925         0.010755   
    497. D(H  71,C  25,C  24,H  70)    -59.3652         0.010755   
    498. D(H  71,C  25,C  24,N  23)     57.9067         0.010755   
    499. D(H  71,C  25,C  24,C   7)    177.3666         0.010755   
    500. D(H  75,C  27,C  21,H  68)    178.6967         0.010654   
    501. D(H  75,C  27,C  21,C  22)    -64.0372         0.010654   
    502. D(H  75,C  27,C  21,N  20)     61.2785         0.010654   
    503. D(H  74,C  27,C  21,H  68)    -66.7524         0.010654   
    504. D(H  74,C  27,C  21,C  22)     50.5137         0.010654   
    505. D(H  74,C  27,C  21,N  20)    175.8294         0.010654   
    506. D(C  28,C  27,C  21,H  68)     56.4267         0.010654   
    507. D(C  28,C  27,C  21,C  22)    173.6929         0.010654   
    508. D(C  28,C  27,C  21,N  20)    -60.9915         0.010654   
    509. D(H  76,C  28,C  27,H  75)    -67.9196         0.010828   
    510. D(H  76,C  28,C  27,H  74)    175.4489         0.010828   
    511. D(H  76,C  28,C  27,C  21)     53.6555         0.010828   
    512. D(C  30,C  28,C  27,H  75)     49.3843         0.010828   
    513. D(C  30,C  28,C  27,H  74)    -67.2472         0.010828   
    514. D(C  30,C  28,C  27,C  21)    170.9594         0.010828   
    515. D(C  29,C  28,C  27,H  75)    173.3810         0.010828   
    516. D(C  29,C  28,C  27,H  74)     56.7496         0.010828   
    517. D(C  29,C  28,C  27,C  21)    -65.0438         0.010828   
    518. D(H  79,C  29,C  28,C  30)     65.1025         0.010965   
    519. D(H  79,C  29,C  28,C  27)    -58.0990         0.010965   
    520. D(H  78,C  29,C  28,H  76)     63.7842         0.010965   
    521. D(H  78,C  29,C  28,C  30)    -54.2104         0.010965   
    522. D(H  78,C  29,C  28,C  27)   -177.4120         0.010965   
    523. D(H  77,C  29,C  28,H  76)    -55.7461         0.010965   
    524. D(H  77,C  29,C  28,C  30)   -173.7408         0.010965   
    525. D(H  79,C  29,C  28,H  76)   -176.9028         0.010965   
    526. D(H  77,C  29,C  28,C  27)     63.0576         0.010965   
    527. D(H  82,C  30,C  28,H  76)    -60.5779         0.010910   
    528. D(H  82,C  30,C  28,C  29)     57.4194         0.010910   
    529. D(H  82,C  30,C  28,C  27)   -177.9952         0.010910   
    530. D(H  81,C  30,C  28,H  76)    179.7665         0.010910   
    531. D(H  81,C  30,C  28,C  29)    -62.2362         0.010910   
    532. D(H  81,C  30,C  28,C  27)     62.3492         0.010910   
    533. D(H  80,C  30,C  28,H  76)     59.9464         0.010910   
    534. D(H  80,C  30,C  28,C  29)    177.9437         0.010910   
    535. D(H  80,C  30,C  28,C  27)    -57.4709         0.010910   
    536. D(O  42,C  32,C  18,H  66)    -23.8890         0.009105   
    537. D(O  42,C  32,C  18,C  19)   -137.7638         0.009105   
    538. D(O  42,C  32,C  18,C  17)     91.1191         0.009105   
    539. D(C  33,C  32,C  18,H  66)    160.2542         0.009105   
    540. D(C  33,C  32,C  18,C  19)     46.3794         0.009105   
    541. D(C  33,C  32,C  18,C  17)    -84.7377         0.009105   
    542. D(H  84,C  33,C  32,O  42)    129.3935         0.011602   
    543. D(H  84,C  33,C  32,C  18)    -54.9333         0.011602   
    544. D(H  83,C  33,C  32,O  42)   -118.3143         0.011602   
    545. D(H  83,C  33,C  32,C  18)     57.3589         0.011602   
    546. D(C  34,C  33,C  32,O  42)      4.3277         0.011602   
    547. D(C  34,C  33,C  32,C  18)   -179.9991         0.011602   
    548. D(H  86,C  34,C  33,H  84)   -159.4953         0.011460   
    549. D(H  86,C  34,C  33,H  83)     83.3367         0.011460   
    550. D(H  86,C  34,C  33,C  32)    -36.2597         0.011460   
    551. D(H  85,C  34,C  33,H  84)    -44.6877         0.011460   
    552. D(H  85,C  34,C  33,H  83)   -161.8557         0.011460   
    553. D(H  85,C  34,C  33,C  32)     78.5479         0.011460   
    554. D(C  35,C  34,C  33,H  84)     78.8398         0.011460   
    555. D(C  35,C  34,C  33,H  83)    -38.3282         0.011460   
    556. D(C  35,C  34,C  33,C  32)   -157.9246         0.011460   
    557. D(H  88,C  35,C  34,H  86)   -175.6467         0.011106   
    558. D(H  88,C  35,C  34,H  85)     68.8922         0.011106   
    559. D(H  88,C  35,C  34,C  33)    -54.3511         0.011106   
    560. D(H  87,C  35,C  34,H  86)    -59.8811         0.011106   
    561. D(H  87,C  35,C  34,H  85)   -175.3422         0.011106   
    562. D(H  87,C  35,C  34,C  33)     61.4145         0.011106   
    563. D(C  36,C  35,C  34,H  86)     61.9582         0.011106   
    564. D(C  36,C  35,C  34,H  85)    -53.5029         0.011106   
    565. D(C  36,C  35,C  34,C  33)   -176.7462         0.011106   
    566. D(H  90,C  36,C  35,H  87)     75.3962         0.010979   
    567. D(H  90,C  36,C  35,C  34)    -45.7905         0.010979   
    568. D(H  89,C  36,C  35,H  88)    -53.7252         0.010979   
    569. D(H  89,C  36,C  35,H  87)   -170.1009         0.010979   
    570. D(H  89,C  36,C  35,C  34)     68.7124         0.010979   
    571. D(C  37,C  36,C  35,H  88)     69.6924         0.010979   
    572. D(C  37,C  36,C  35,H  87)    -46.6833         0.010979   
    573. D(H  90,C  36,C  35,H  88)   -168.2281         0.010979   
    574. D(C  37,C  36,C  35,C  34)   -167.8700         0.010979   
    575. D(H  92,C  37,C  36,H  90)    -57.6094         0.010842   
    576. D(H  92,C  37,C  36,H  89)   -172.2228         0.010842   
    577. D(H  92,C  37,C  36,C  35)     64.5300         0.010842   
    578. D(H  91,C  37,C  36,H  90)     56.7961         0.010842   
    579. D(H  91,C  37,C  36,H  89)    -57.8173         0.010842   
    580. D(H  91,C  37,C  36,C  35)    178.9355         0.010842   
    581. D(C  38,C  37,C  36,H  90)    179.2091         0.010842   
    582. D(C  38,C  37,C  36,H  89)     64.5957         0.010842   
    583. D(C  38,C  37,C  36,C  35)    -58.6515         0.010842   
    584. D(H  94,C  38,C  37,H  92)     91.7888         0.010337   
    585. D(H  94,C  38,C  37,H  91)    -23.2905         0.010337   
    586. D(H  94,C  38,C  37,C  36)   -144.8771         0.010337   
    587. D(H  93,C  38,C  37,H  92)   -152.8046         0.010337   
    588. D(H  93,C  38,C  37,H  91)     92.1162         0.010337   
    589. D(H  93,C  38,C  37,C  36)    -29.4704         0.010337   
    590. D(C  39,C  38,C  37,H  92)    -29.2275         0.010337   
    591. D(C  39,C  38,C  37,H  91)   -144.3067         0.010337   
    592. D(C  39,C  38,C  37,C  36)     94.1067         0.010337   
    593. D(H  95,C  39,C  38,H  94)    -65.8545         0.010990   
    594. D(H  95,C  39,C  38,H  93)    179.5545         0.010990   
    595. D(H  95,C  39,C  38,C  37)     55.9862         0.010990   
    596. D(C  40,C  39,C  38,H  94)     55.5097         0.010990   
    597. D(C  40,C  39,C  38,H  93)    -59.0813         0.010990   
    598. D(C  40,C  39,C  38,C  37)    177.3503         0.010990   
    599. D(H  96,C  39,C  38,H  94)    178.7048         0.010990   
    600. D(H  96,C  39,C  38,H  93)     64.1138         0.010990   
    601. D(H  96,C  39,C  38,C  37)    -59.4546         0.010990   
    602. D(H  98,C  40,C  39,H  95)     67.0625         0.011181   
    603. D(H  98,C  40,C  39,C  38)    -54.0880         0.011181   
    604. D(H  97,C  40,C  39,H  96)    -62.3987         0.011181   
    605. D(H  97,C  40,C  39,H  95)   -177.4853         0.011181   
    606. D(H  97,C  40,C  39,C  38)     61.3642         0.011181   
    607. D(C  41,C  40,C  39,H  96)     60.0095         0.011181   
    608. D(C  41,C  40,C  39,H  95)    -55.0771         0.011181   
    609. D(H  98,C  40,C  39,H  96)   -177.8509         0.011181   
    610. D(C  41,C  40,C  39,C  38)   -176.2276         0.011181   
    611. D(H 101,C  41,C  40,H  98)    -59.7561         0.011269   
    612. D(H 101,C  41,C  40,H  97)   -175.6815         0.011269   
    613. D(H 101,C  41,C  40,C  39)     62.2301         0.011269   
    614. D(H 100,C  41,C  40,H  98)   -178.5226         0.011269   
    615. D(H 100,C  41,C  40,H  97)     65.5521         0.011269   
    616. D(H 100,C  41,C  40,C  39)    -56.5364         0.011269   
    617. D(H  99,C  41,C  40,H  98)     60.7168         0.011269   
    618. D(H  99,C  41,C  40,H  97)    -55.2085         0.011269   
    619. D(H  99,C  41,C  40,C  39)   -177.2970         0.011269   
    620. D(H 102,O  43,C  17,H  65)    -39.9457         0.018136   
    621. D(H 102,O  43,C  17,C  18)   -157.8348         0.018136   
    622. D(H 102,O  43,C  17,C  16)     79.0177         0.018136   
    623. D(H 104,C  45,C  13,H  61)     66.3534         0.010541   
    624. D(H 104,C  45,C  13,C  14)   -178.4245         0.010541   
    625. D(H 104,C  45,C  13,N  12)    -53.2533         0.010541   
    626. D(H 103,C  45,C  13,H  61)   -178.1929         0.010541   
    627. D(H 103,C  45,C  13,C  14)    -62.9708         0.010541   
    628. D(H 103,C  45,C  13,N  12)     62.2004         0.010541   
    629. D(C  46,C  45,C  13,H  61)    -55.2130         0.010541   
    630. D(C  46,C  45,C  13,C  14)     60.0091         0.010541   
    631. D(C  46,C  45,C  13,N  12)   -174.8197         0.010541   
    632. D(H 107,C  46,C  45,H 104)    -61.1924         0.011314   
    633. D(H 107,C  46,C  45,H 103)   -178.5361         0.011314   
    634. D(H 107,C  46,C  45,C  13)     59.2913         0.011314   
    635. D(H 106,C  46,C  45,H 104)    179.0930         0.011314   
    636. D(H 106,C  46,C  45,H 103)     61.7493         0.011314   
    637. D(H 106,C  46,C  45,C  13)    -60.4233         0.011314   
    638. D(H 105,C  46,C  45,H 104)     58.6056         0.011314   
    639. D(H 105,C  46,C  45,H 103)    -58.7382         0.011314   
    640. D(H 105,C  46,C  45,C  13)    179.0893         0.011314   
    641. D(H 108,C  48,C  10,H  59)    -65.4229         0.009092   
    642. D(H 108,C  48,C  10,C  11)     54.5965         0.009092   
    643. D(H 108,C  48,C  10,N   9)    176.8838         0.009092   
    644. D(C  50,C  48,C  10,H  59)    175.9843         0.009092   
    645. D(C  50,C  48,C  10,C  11)    -63.9963         0.009092   
    646. D(C  50,C  48,C  10,N   9)     58.2910         0.009092   
    647. D(C  49,C  48,C  10,H  59)     51.9899         0.009092   
    648. D(C  49,C  48,C  10,C  11)    172.0093         0.009092   
    649. D(C  49,C  48,C  10,N   9)    -65.7034         0.009092   
    650. D(H 111,C  49,C  48,C  50)     59.1681         0.011096   
    651. D(H 111,C  49,C  48,C  10)   -176.2831         0.011096   
    652. D(H 110,C  49,C  48,H 108)   -178.1099         0.011096   
    653. D(H 110,C  49,C  48,C  50)    -59.6856         0.011096   
    654. D(H 110,C  49,C  48,C  10)     64.8632         0.011096   
    655. D(H 109,C  49,C  48,H 108)     61.9579         0.011096   
    656. D(H 109,C  49,C  48,C  50)   -179.6177         0.011096   
    657. D(H 111,C  49,C  48,H 108)    -59.2562         0.011096   
    658. D(H 109,C  49,C  48,C  10)    -55.0690         0.011096   
    659. D(H 114,C  50,C  48,H 108)    175.4880         0.011098   
    660. D(H 114,C  50,C  48,C  49)     57.5847         0.011098   
    661. D(H 114,C  50,C  48,C  10)    -66.8118         0.011098   
    662. D(H 113,C  50,C  48,H 108)     56.4722         0.011098   
    663. D(H 113,C  50,C  48,C  49)    -61.4311         0.011098   
    664. D(H 113,C  50,C  48,C  10)    174.1724         0.011098   
    665. D(H 112,C  50,C  48,H 108)    -65.0989         0.011098   
    666. D(H 112,C  50,C  48,C  49)    176.9978         0.011098   
    667. D(H 112,C  50,C  48,C  10)     52.6013         0.011098   
    -----------------------------------------------------------------

Number of atoms                         .... 115
Number of degrees of freedom            .... 667

         *************************************************************
         *                GEOMETRY OPTIMIZATION CYCLE   1            *
         *************************************************************
---------------------------------
CARTESIAN COORDINATES (ANGSTROEM)
---------------------------------
  O      5.609284    1.681853   -0.225404
  C      4.387885    1.619163   -0.369221
  C      3.510132    2.881730   -0.594626
  C      4.317155    4.163455   -0.401593
  C      4.243761    4.392237    1.115911
  C      2.816503    3.967999    1.489648
  N      2.458606    2.985983    0.444171
  C      1.288094    2.317513    0.338997
  O      1.060667    1.518867   -0.590085
  N      3.670806    0.468247   -0.313316
  C      4.263513   -0.794335    0.061375
  C      3.627114   -1.906953   -0.783099
  N      4.051398   -3.172872   -0.527332
  C      3.565935   -4.331792   -1.280285
  C      2.039393   -4.532043   -1.160435
  N      1.481939   -4.163245    0.029816
  C      0.039615   -4.025993    0.184215
  C     -0.520213   -2.862945   -0.670234
  C     -1.976473   -2.525620   -0.284082
  C     -2.226753   -1.894662    1.093361
  N     -1.153901   -1.308346    1.700420
  C     -1.236995   -0.616539    2.974128
  C     -0.628993    0.797066    2.901153
  N     -0.448347    1.295492    1.644900
  C      0.221372    2.561073    1.410916
  C     -0.756503    3.654517    0.958357
  O     -0.339383    1.426302    3.919944
  C     -0.581332   -1.413909    4.112185
  C     -1.214210   -2.786037    4.377494
  C     -2.657064   -2.669081    4.880039
  C     -0.346628   -3.573055    5.366542
  O     -3.360182   -1.902040    1.576228
  C     -2.599187   -1.662803   -1.411431
  C     -2.354789   -0.168576   -1.367740
  C     -3.003824    0.601042   -2.514489
  C     -2.351233    1.958441   -2.786490
  C     -3.084414    2.727935   -3.890029
  C     -2.362765    3.961386   -4.447592
  C     -2.021453    5.055607   -3.417719
  C     -0.611751    4.949012   -2.827460
  C     -0.274008    6.081997   -1.857051
  C      1.165945    6.010477   -1.349710
  O     -3.189310   -2.215133   -2.321879
  O      0.278345   -1.683172   -0.524527
  O      1.403201   -5.041297   -2.077919
  C      4.335047   -5.580131   -0.815780
  C      4.007015   -6.839070   -1.616817
  O      2.747725   -1.681265   -1.624273
  C      4.123465   -1.065844    1.591171
  C      4.929658   -0.055377    2.410797
  C      2.657155   -1.066408    2.030067
  H      3.022581    2.801875   -1.577398
  H      3.840293    4.988071   -0.947870
  H      5.345017    4.036136   -0.757763
  H      4.976470    3.744741    1.617136
  H      4.449447    5.429239    1.407732
  H      2.756735    3.515709    2.488918
  H      2.121418    4.821162    1.454521
  H      2.674749    0.508993   -0.568537
  H      5.338544   -0.733757   -0.180489
  H      4.829875   -3.312000    0.111173
  H      3.734993   -4.163106   -2.354745
  H      2.068617   -3.622486    0.658594
  H     -0.167448   -3.857256    1.249736
  H     -0.447266   -4.961559   -0.122946
  H     -0.511784   -3.185719   -1.723290
  H     -2.554348   -3.460286   -0.297802
  H     -0.269558   -1.323123    1.183123
  H     -2.311971   -0.493065    3.183075
  H     -0.624344    0.713823    0.827512
  H      0.672400    2.846301    2.371026
  H     -1.538630    3.781023    1.717378
  H     -0.241689    4.615188    0.822111
  H     -1.225131    3.374238    0.005041
  H     -0.618425   -0.794281    5.020486
  H      0.486344   -1.544064    3.868814
  H     -1.231969   -3.344502    3.423886
  H     -3.310453   -2.204253    4.129722
  H     -3.071349   -3.662422    5.105966
  H     -2.697365   -2.070114    5.803984
  H      0.682581   -3.692005    4.994181
  H     -0.292698   -3.054240    6.336690
  H     -0.760016   -4.575960    5.546873
  H     -1.255316   -0.042657   -1.370875
  H     -2.684935    0.208313   -0.384312
  H     -4.078618    0.732260   -2.309140
  H     -2.950228   -0.015544   -3.424674
  H     -1.297177    1.798935   -3.071638
  H     -2.327604    2.558849   -1.860551
  H     -4.076825    3.030761   -3.512093
  H     -3.281005    2.034873   -4.725887
  H     -2.998321    4.392184   -5.237325
  H     -1.433525    3.641601   -4.951025
  H     -2.767144    5.043967   -2.602927
  H     -2.115007    6.046406   -3.892761
  H      0.119313    4.954028   -3.655547
  H     -0.478874    3.979294   -2.319530
  H     -0.973848    6.053177   -1.004812
  H     -0.444296    7.052100   -2.353838
  H      1.386758    6.800046   -0.616462
  H      1.361506    5.038130   -0.874005
  H      1.881103    6.115158   -2.179954
  H      1.098357   -1.738938   -1.073465
  H      4.123718   -5.746113    0.254266
  H      5.412855   -5.358990   -0.900389
  H      4.598309   -7.687941   -1.247968
  H      2.943771   -7.098539   -1.542039
  H      4.236440   -6.699511   -2.682369
  H      4.547588   -2.067511    1.782411
  H      5.984859   -0.031467    2.109581
  H      4.524790    0.957968    2.281390
  H      4.871399   -0.303601    3.480034
  H      2.032649   -1.742812    1.428192
  H      2.569560   -1.360164    3.084111
  H      2.222722   -0.061663    1.929249

----------------------------
CARTESIAN COORDINATES (A.U.)
----------------------------
  NO LB      ZA    FRAG     MASS         X           Y           Z
   0 O     8.0000    0    15.999   10.600010    3.178242   -0.425951
   1 C     6.0000    0    12.011    8.291901    3.059774   -0.697727
   2 C     6.0000    0    12.011    6.633189    5.445680   -1.123680
   3 C     6.0000    0    12.011    8.158241    7.867789   -0.758900
   4 C     6.0000    0    12.011    8.019546    8.300124    2.108766
   5 C     6.0000    0    12.011    5.322419    7.498431    2.815028
   6 N     7.0000    0    14.007    4.646093    5.642690    0.839361
   7 C     6.0000    0    12.011    2.434145    4.379465    0.640611
   8 O     8.0000    0    15.999    2.004370    2.870242   -1.115098
   9 N     7.0000    0    14.007    6.936818    0.884859   -0.592081
  10 C     6.0000    0    12.011    8.056872   -1.501076    0.115982
  11 C     6.0000    0    12.011    6.854252   -3.603618   -1.479842
  12 N     7.0000    0    14.007    7.656033   -5.995860   -0.996514
  13 C     6.0000    0    12.011    6.738641   -8.185901   -2.419389
  14 C     6.0000    0    12.011    3.853894   -8.564319   -2.192903
  15 N     7.0000    0    14.007    2.800459   -7.867393    0.056344
  16 C     6.0000    0    12.011    0.074861   -7.608025    0.348116
  17 C     6.0000    0    12.011   -0.983060   -5.410182   -1.266558
  18 C     6.0000    0    12.011   -3.734992   -4.772730   -0.536837
  19 C     6.0000    0    12.011   -4.207953   -3.580392    2.066152
  20 N     7.0000    0    14.007   -2.180556   -2.472415    3.213327
  21 C     6.0000    0    12.011   -2.337582   -1.165090    5.620287
  22 C     6.0000    0    12.011   -1.188624    1.506237    5.482385
  23 N     7.0000    0    14.007   -0.847253    2.448125    3.108411
  24 C     6.0000    0    12.011    0.418333    4.839727    2.666245
  25 C     6.0000    0    12.011   -1.429584    6.906037    1.811033
  26 O     8.0000    0    15.999   -0.641341    2.695320    7.407620
  27 C     6.0000    0    12.011   -1.098559   -2.671901    7.770904
  28 C     6.0000    0    12.011   -2.294524   -5.264847    8.272265
  29 C     6.0000    0    12.011   -5.021123   -5.043832    9.221937
  30 C     6.0000    0    12.011   -0.655032   -6.752095   10.141295
  31 O     8.0000    0    15.999   -6.349823   -3.594336    2.978638
  32 C     6.0000    0    12.011   -4.911751   -3.142243   -2.667219
  33 C     6.0000    0    12.011   -4.449906   -0.318563   -2.584654
  34 C     6.0000    0    12.011   -5.676406    1.135805   -4.751696
  35 C     6.0000    0    12.011   -4.443187    3.700918   -5.265703
  36 C     6.0000    0    12.011   -5.828698    5.155050   -7.351090
  37 C     6.0000    0    12.011   -4.464979    7.485936   -8.404732
  38 C     6.0000    0    12.011   -3.819993    9.553713   -6.458552
  39 C     6.0000    0    12.011   -1.156042    9.352277   -5.343125
  40 C     6.0000    0    12.011   -0.517801   11.493308   -3.509319
  41 C     6.0000    0    12.011    2.203317   11.358156   -2.550581
  42 O     8.0000    0    15.999   -6.026923   -4.185995   -4.387715
  43 O     8.0000    0    15.999    0.525996   -3.180734   -0.991212
  44 O     8.0000    0    15.999    2.651666   -9.526671   -3.926698
  45 C     6.0000    0    12.011    8.192052  -10.544920   -1.541601
  46 C     6.0000    0    12.011    7.572161  -12.923970   -3.055341
  47 O     8.0000    0    15.999    5.192448   -3.177130   -3.069432
  48 C     6.0000    0    12.011    7.792220   -2.014153    3.006878
  49 C     6.0000    0    12.011    9.315704   -0.104647    4.555746
  50 C     6.0000    0    12.011    5.021295   -2.015220    3.836270
  51 H     1.0000    0     1.008    5.711851    5.294777   -2.980850
  52 H     1.0000    0     1.008    7.257103    9.426088   -1.791215
  53 H     1.0000    0     1.008   10.100619    7.627193   -1.431965
  54 H     1.0000    0     1.008    9.404166    7.076535    3.055945
  55 H     1.0000    0     1.008    8.408236   10.259775    2.660228
  56 H     1.0000    0     1.008    5.209474    6.643728    4.703373
  57 H     1.0000    0     1.008    4.008899    9.110676    2.748647
  58 H     1.0000    0     1.008    5.054543    0.961857   -1.074379
  59 H     1.0000    0     1.008   10.088386   -1.386599   -0.341074
  60 H     1.0000    0     1.008    9.127142   -6.258773    0.210086
  61 H     1.0000    0     1.008    7.058115   -7.867130   -4.449822
  62 H     1.0000    0     1.008    3.909120   -6.845507    1.244562
  63 H     1.0000    0     1.008   -0.316432   -7.289158    2.361658
  64 H     1.0000    0     1.008   -0.845209   -9.375988   -0.232335
  65 H     1.0000    0     1.008   -0.967131   -6.020136   -3.256546
  66 H     1.0000    0     1.008   -4.827019   -6.538994   -0.562764
  67 H     1.0000    0     1.008   -0.509392   -2.500341    2.235778
  68 H     1.0000    0     1.008   -4.368993   -0.931757    6.015139
  69 H     1.0000    0     1.008   -1.179839    1.348929    1.563771
  70 H     1.0000    0     1.008    1.270652    5.378730    4.480590
  71 H     1.0000    0     1.008   -2.907590    7.145098    3.245373
  72 H     1.0000    0     1.008   -0.456727    8.721440    1.553564
  73 H     1.0000    0     1.008   -2.315163    6.376385    0.009526
  74 H     1.0000    0     1.008   -1.168655   -1.500974    9.487344
  75 H     1.0000    0     1.008    0.919057   -2.917858    7.310998
  76 H     1.0000    0     1.008   -2.328085   -6.320194    6.470207
  77 H     1.0000    0     1.008   -6.255849   -4.165435    7.804043
  78 H     1.0000    0     1.008   -5.804009   -6.920975    9.648878
  79 H     1.0000    0     1.008   -5.097281   -3.911948   10.967939
  80 H     1.0000    0     1.008    1.289891   -6.976879    9.437634
  81 H     1.0000    0     1.008   -0.553119   -5.771676   11.974610
  82 H     1.0000    0     1.008   -1.436222   -8.647311   10.482070
  83 H     1.0000    0     1.008   -2.372203   -0.080610   -2.590578
  84 H     1.0000    0     1.008   -5.073791    0.393654   -0.726244
  85 H     1.0000    0     1.008   -7.707471    1.383770   -4.363643
  86 H     1.0000    0     1.008   -5.575123   -0.029374   -6.471696
  87 H     1.0000    0     1.008   -2.451310    3.399495   -5.804555
  88 H     1.0000    0     1.008   -4.398534    4.835524   -3.515932
  89 H     1.0000    0     1.008   -7.704083    5.727308   -6.636894
  90 H     1.0000    0     1.008   -6.200200    3.845353   -8.930632
  91 H     1.0000    0     1.008   -5.666006    8.300024   -9.897110
  92 H     1.0000    0     1.008   -2.708971    6.881629   -9.356082
  93 H     1.0000    0     1.008   -5.229144    9.531717   -4.918819
  94 H     1.0000    0     1.008   -3.996784   11.426051   -7.356252
  95 H     1.0000    0     1.008    0.225469    9.361756   -6.907983
  96 H     1.0000    0     1.008   -0.904941    7.519776   -4.383276
  97 H     1.0000    0     1.008   -1.840306   11.438846   -1.898820
  98 H     1.0000    0     1.008   -0.839598   13.326538   -4.448110
  99 H     1.0000    0     1.008    2.620592   12.850225   -1.164944
 100 H     1.0000    0     1.008    2.572874    9.520686   -1.651631
 101 H     1.0000    0     1.008    3.554769   11.555974   -4.119516
 102 H     1.0000    0     1.008    2.075594   -3.286116   -2.028555
 103 H     1.0000    0     1.008    7.792697  -10.858580    0.480493
 104 H     1.0000    0     1.008   10.228814  -10.127023   -1.701489
 105 H     1.0000    0     1.008    8.689544  -14.528103   -2.358318
 106 H     1.0000    0     1.008    5.562921  -13.414296   -2.914031
 107 H     1.0000    0     1.008    8.005710  -12.660240   -5.068942
 108 H     1.0000    0     1.008    8.593697   -3.907030    3.368269
 109 H     1.0000    0     1.008   11.309744   -0.059463    3.986530
 110 H     1.0000    0     1.008    8.550613    1.810298    4.311202
 111 H     1.0000    0     1.008    9.205610   -0.573723    6.576310
 112 H     1.0000    0     1.008    3.841150   -3.293438    2.698891
 113 H     1.0000    0     1.008    4.855764   -2.570338    5.828126
 114 H     1.0000    0     1.008    4.200336   -0.116525    3.645752

--------------------------------
INTERNAL COORDINATES (ANGSTROEM)
--------------------------------
 O      0   0   0     0.000000000000     0.00000000     0.00000000
 C      1   0   0     1.231433202383     0.00000000     0.00000000
 C      2   1   0     1.554134067636   122.39576036     0.00000000
 C      3   2   1     1.526881298965   111.41405325   351.45211307
 C      4   3   2     1.536406867216   102.98038213   274.88862900
 C      5   4   3     1.535162219574   104.10611329   322.25825965
 N      6   5   4     1.478333005275   103.67882020    26.47909845
 C      7   6   5     1.352040445570   126.37227602   179.84042067
 O      8   7   6     1.246094482965   122.20071729   178.85727409
 N      2   1   3     1.357179020880   124.22300447   181.83471944
 C     10   2   1     1.444233114380   122.35811488     6.58266424
 C     11  10   2     1.534945477863   108.71134044   216.94868297
 N     12  11  10     1.359406693496   116.23763301   181.71634478
 C     13  12  11     1.464823365435   122.45311503   181.94002623
 C     14  13  12     1.544278432303   112.97361849   299.50391340
 N     15  14  13     1.365087211443   115.86880108   327.26926122
 C     16  15  14     1.457043304963   121.47217680   166.66740316
 C     17  16  15     1.547957081717   111.73324629   294.13386516
 C     18  17  16     1.543889135818   111.54487961   192.10034208
 C     19  18  17     1.535609218982   117.89563471    68.64964242
 N     20  19  18     1.365027001277   116.57085847    19.40709569
 C     21  20  19     1.451837946763   123.35650186   177.13527163
 C     22  21  20     1.540542950823   111.90662104   231.90554305
 N     23  22  21     1.363536592198   115.55317086    16.48931699
 C     24  23  22     1.450851005732   121.91091973   185.56015654
 C     25  24  23     1.535144895049   112.01338781   251.52062253
 O     23  22  21     1.231968191315   121.48507743   195.99640581
 C     22  21  20     1.536511563894   112.21585085   107.61339323
 C     28  22  21     1.534163300107   114.59448480   299.00854536
 C     29  28  22     1.532337246750   112.14082734   294.95617761
 C     29  28  22     1.533072502763   109.70975204   170.95943711
 O     20  19  18     1.232020947822   119.93669620   197.36016619
 C     19  18  17     1.550207224570   108.57914879   195.91235789
 C     33  19  18     1.514712489778   117.59793089   275.26227612
 C     34  33  19     1.525972801835   114.03049304   180.00091732
 C     35  34  33     1.530487843196   113.54734246   202.07540010
 C     36  35  34     1.532146595269   111.67830382   183.25380602
 C     37  36  35     1.533967511899   116.13675435   192.12999528
 C     38  37  36     1.540925836411   115.61134525   301.34851801
 C     39  38  37     1.532001208860   114.32502055    94.10667387
 C     40  39  38     1.529515414386   113.33430184   177.35032408
 C     41  40  39     1.528390503125   112.58053358   183.77236096
 O     33  19  18     1.217468089875   119.08045098    91.11905479
 O     18  17  16     1.432058226480   111.17067883   313.59756705
 O     15  14  13     1.227134328470   120.54868992   149.91607750
 C     14  13  12     1.538066595107   108.73381134   175.23281840
 C     46  14  13     1.527806703285   113.77135392   185.18031223
 O     12  11  10     1.237672948934   122.43377207   359.62190422
 C     11  10   2     1.560002065898   111.69873043    92.74148560
 C     49  11  10     1.530612851381   111.28063029   294.29662721
 C     49  11  10     1.530586975213   111.54708011    58.29102704
 H      3   2   1     1.099965527003   108.71991282   118.02322295
 H      4   3   2     1.098092640899   109.75263696   156.59496626
 H      4   3   2     1.095248044553   110.93634499    35.51158880
 H      5   4   3     1.098790451114   109.32620251    80.05019511
 H      5   4   3     1.096740644274   113.24376411   200.64905470
 H      6   5   4     1.098488505549   112.69525610   146.45583134
 H      6   5   4     1.101028641271   111.40934562   268.40917702
 H     10   2   1     1.029041848934   117.88056224   187.86270936
 H     11  10   2     1.103566816182   107.15362769   334.43612264
 H     13  12  11     1.016401236710   118.99363262   352.72400876
 H     14  13  12     1.100680980637   109.24587850    55.14308820
 H     16  15  14     1.015861054972   116.59364670    11.93948910
 H     17  16  15     1.098490687423   107.68901821   172.48685021
 H     17  16  15     1.098491737516   109.20145053    54.77150617
 H     18  17  16     1.101444887114   107.74548602    73.62981922
 H     19  18  17     1.098967720750   107.88101655   308.80296286
 H     21  20  19     1.024634286995   116.59150937     0.88449253
 H     22  21  20     1.102033975535   105.99514393   348.11910914
 H     24  23  22     1.018546982291   120.51206350   354.15171867
 H     25  24  23     1.098449925140   105.96674851    10.90730262
 H     26  25  24     1.097195500048   109.40619074    57.90668572
 H     26  25  24     1.098400651937   111.15998987   177.84757172
 H     26  25  24     1.098627137795   110.23109178   298.05386136
 H     28  22  21     1.100147730679   107.74877992   175.82940827
 H     28  22  21     1.102770334896   108.11531088    61.27849132
 H     29  28  22     1.105245091178   108.01947037    53.65550927
 H     30  29  28     1.098161036614   111.62119053    63.05762910
 H     30  29  28     1.099728394512   110.68019583   182.58798952
 H     30  29  28     1.101843906343   110.54480163   301.90096101
 H     31  29  28     1.100942175271   111.48783075   302.52911526
 H     31  29  28     1.101483508516   110.73983461    62.34916389
 H     31  29  28     1.099648811904   111.17706773   182.00480328
 H     34  33  19     1.106664816916   105.81088830    57.35890393
 H     34  33  19     1.103708906698   108.31823004   305.06672473
 H     35  34  33     1.102074231249   109.56174650    78.54786699
 H     35  34  33     1.100675768284   108.55347132   323.74034510
 H     36  35  34     1.103533115265   108.96586079    61.41452356
 H     36  35  34     1.103816307231   110.02727331   305.64887244
 H     37  36  35     1.104272908809   108.74019953    68.71236494
 H     37  36  35     1.103467412708   108.38472814   314.20949444
 H     38  37  36     1.101451513208   107.67699912   178.93553131
 H     38  37  36     1.104171157534   109.19349679    64.53000807
 H     39  38  37     1.104570413915   109.63301280   330.52958551
 H     39  38  37     1.102768819483   109.34822058   215.12292192
 H     40  39  38     1.104630491236   108.65320761    55.98616449
 H     40  39  38     1.102724700876   110.45883021   300.54543315
 H     41  40  39     1.103139626318   109.31205330    61.36417962
 H     41  40  39     1.103130037763   109.36660828   305.91196698
 H     42  41  40     1.099922307662   112.13763005   182.70300504
 H     42  41  40     1.099999088680   110.63491226   303.46357302
 H     42  41  40     1.100778888852   110.93302212    62.23007000
 H     44  18  17     0.988363486901   111.07892767    79.01768392
 H     46  14  13     1.103271506136   108.61651190    62.20038242
 H     46  14  13     1.103508793155   107.61382736   306.74665778
 H     47  46  14     1.098298153455   110.19435947   179.08927986
 H     47  46  14     1.096997775403   111.54696585   299.57673315
 H     47  46  14     1.098868757987   111.03441301    59.29133196
 H     49  11  10     1.104441368584   107.04821246   176.88378761
 H     50  49  11     1.097611642867   111.94943140   304.93104332
 H     50  49  11     1.098878043445   110.58915827    64.86315917
 H     50  49  11     1.099216359267   110.11393979   183.71687293
 H     51  49  11     1.099901504569   112.78378261    52.60130316
 H     51  49  11     1.097713630568   110.60283078   174.17240274
 H     51  49  11     1.099277145772   110.60764269   293.18817292

---------------------------
INTERNAL COORDINATES (A.U.)
---------------------------
 O      0   0   0     0.000000000000     0.00000000     0.00000000
 C      1   0   0     2.327071504721     0.00000000     0.00000000
 C      2   1   0     2.936887763229   122.39576036     0.00000000
 C      3   2   1     2.885387494050   111.41405325   351.45211307
 C      4   3   2     2.903388209315   102.98038213   274.88862900
 C      5   4   3     2.901036166137   104.10611329   322.25825965
 N      6   5   4     2.793644514707   103.67882020    26.47909845
 C      7   6   5     2.554986164112   126.37227602   179.84042067
 O      8   7   6     2.354777309795   122.20071729   178.85727409
 N      2   1   3     2.564696664167   124.22300447   181.83471944
 C     10   2   1     2.729205059719   122.35811488     6.58266424
 C     11  10   2     2.900626583662   108.71134044   216.94868297
 N     12  11  10     2.568906355328   116.23763301   181.71634478
 C     13  12  11     2.768114995242   122.45311503   181.94002623
 C     14  13  12     2.918263311573   112.97361849   299.50391340
 N     15  14  13     2.579640978545   115.86880108   327.26926122
 C     16  15  14     2.753412811644   121.47217680   166.66740316
 C     17  16  15     2.925214951510   111.73324629   294.13386516
 C     18  17  16     2.917527647832   111.54487961   192.10034208
 C     19  18  17     2.901880872600   117.89563471    68.64964242
 N     20  19  18     2.579527197822   116.57085847    19.40709569
 C     21  20  19     2.743576110216   123.35650186   177.13527163
 C     22  21  20     2.911204274598   111.90662104   231.90554305
 N     23  22  21     2.576710732834   115.55317086    16.48931699
 C     24  23  22     2.741711061958   121.91091973   185.56015654
 C     25  24  23     2.901003427530   112.01338781   251.52062253
 O     23  22  21     2.328082487287   121.48507743   195.99640581
 C     22  21  20     2.903586057363   112.21585085   107.61339323
 C     28  22  21     2.899148481915   114.59448480   299.00854536
 C     29  28  22     2.895697741164   112.14082734   294.95617761
 C     29  28  22     2.897087173666   109.70975204   170.95943711
 O     20  19  18     2.328182182638   119.93669620   197.36016619
 C     19  18  17     2.929467105264   108.57914879   195.91235789
 C     33  19  18     2.862391777311   117.59793089   275.26227612
 C     34  33  19     2.883670683281   114.03049304   180.00091732
 C     35  34  33     2.892202874936   113.54734246   202.07540010
 C     36  35  34     2.895337462078   111.67830382   183.25380602
 C     37  36  35     2.898778495823   116.13675435   192.12999528
 C     38  37  36     2.911927823501   115.61134525   301.34851801
 C     39  38  37     2.895062721581   114.32502055    94.10667387
 C     40  39  38     2.890365250800   113.33430184   177.35032408
 C     41  40  39     2.888239476593   112.58053358   183.77236096
 O     33  19  18     2.300681266651   119.08045098    91.11905479
 O     18  17  16     2.706197855876   111.17067883   313.59756705
 O     15  14  13     2.318947810342   120.54868992   149.91607750
 C     14  13  12     2.906524640485   108.73381134   175.23281840
 C     46  14  13     2.887136254778   113.77135392   185.18031223
 O     12  11  10     2.338862916849   122.43377207   359.62190422
 C     11  10   2     2.947976672898   111.69873043    92.74148560
 C     49  11  10     2.892439106171   111.28063029   294.29662721
 C     49  11  10     2.892390207299   111.54708011    58.29102704
 H      3   2   1     2.078633602789   108.71991282   118.02322295
 H      4   3   2     2.075094360974   109.75263696   156.59496626
 H      4   3   2     2.069718852918   110.93634499    35.51158880
 H      5   4   3     2.076413031172   109.32620251    80.05019511
 H      5   4   3     2.072539457619   113.24376411   200.64905470
 H      6   5   4     2.075842436749   112.69525610   146.45583134
[...]
freq.      91.19  E(vib)   ...       0.47 
freq.      92.38  E(vib)   ...       0.47 
freq.      98.23  E(vib)   ...       0.46 
freq.     100.05  E(vib)   ...       0.46 
freq.     105.48  E(vib)   ...       0.45 
freq.     108.39  E(vib)   ...       0.45 
freq.     117.47  E(vib)   ...       0.44 
freq.     120.07  E(vib)   ...       0.44 
freq.     121.24  E(vib)   ...       0.44 
freq.     130.65  E(vib)   ...       0.43 
freq.     132.76  E(vib)   ...       0.42 
freq.     136.86  E(vib)   ...       0.42 
freq.     144.09  E(vib)   ...       0.41 
freq.     146.71  E(vib)   ...       0.41 
freq.     151.86  E(vib)   ...       0.40 
freq.     158.13  E(vib)   ...       0.39 
freq.     161.91  E(vib)   ...       0.39 
freq.     166.39  E(vib)   ...       0.39 
freq.     173.47  E(vib)   ...       0.38 
freq.     185.45  E(vib)   ...       0.37 
freq.     191.11  E(vib)   ...       0.36 
freq.     192.12  E(vib)   ...       0.36 
freq.     201.37  E(vib)   ...       0.35 
freq.     208.29  E(vib)   ...       0.34 
freq.     215.04  E(vib)   ...       0.34 
freq.     222.50  E(vib)   ...       0.33 
freq.     226.02  E(vib)   ...       0.33 
freq.     229.97  E(vib)   ...       0.32 
freq.     234.31  E(vib)   ...       0.32 
freq.     234.98  E(vib)   ...       0.32 
freq.     236.81  E(vib)   ...       0.32 
freq.     239.20  E(vib)   ...       0.31 
freq.     246.37  E(vib)   ...       0.31 
freq.     249.29  E(vib)   ...       0.31 
freq.     252.74  E(vib)   ...       0.30 
freq.     258.85  E(vib)   ...       0.30 
freq.     269.17  E(vib)   ...       0.29 
freq.     283.81  E(vib)   ...       0.28 
freq.     286.53  E(vib)   ...       0.27 
freq.     294.87  E(vib)   ...       0.27 
freq.     307.09  E(vib)   ...       0.26 
freq.     317.09  E(vib)   ...       0.25 
freq.     324.86  E(vib)   ...       0.24 
freq.     329.20  E(vib)   ...       0.24 
freq.     341.80  E(vib)   ...       0.23 
freq.     348.70  E(vib)   ...       0.23 
freq.     352.35  E(vib)   ...       0.23 
freq.     358.23  E(vib)   ...       0.22 
freq.     368.09  E(vib)   ...       0.21 
freq.     371.07  E(vib)   ...       0.21 
freq.     377.15  E(vib)   ...       0.21 
freq.     388.93  E(vib)   ...       0.20 
freq.     393.37  E(vib)   ...       0.20 
freq.     398.73  E(vib)   ...       0.19 
freq.     409.33  E(vib)   ...       0.19 
freq.     412.28  E(vib)   ...       0.19 
freq.     413.80  E(vib)   ...       0.19 
freq.     432.19  E(vib)   ...       0.18 
freq.     454.04  E(vib)   ...       0.16 
freq.     463.71  E(vib)   ...       0.16 
freq.     471.08  E(vib)   ...       0.15 
freq.     479.19  E(vib)   ...       0.15 
freq.     486.86  E(vib)   ...       0.15 
freq.     492.91  E(vib)   ...       0.14 
freq.     511.44  E(vib)   ...       0.14 
freq.     520.77  E(vib)   ...       0.13 
freq.     544.66  E(vib)   ...       0.12 
freq.     549.33  E(vib)   ...       0.12 
freq.     558.71  E(vib)   ...       0.12 
freq.     569.79  E(vib)   ...       0.11 
freq.     573.97  E(vib)   ...       0.11 
freq.     585.82  E(vib)   ...       0.11 
freq.     621.88  E(vib)   ...       0.09 
freq.     628.05  E(vib)   ...       0.09 
freq.     637.50  E(vib)   ...       0.09 
freq.     653.79  E(vib)   ...       0.08 
freq.     663.28  E(vib)   ...       0.08 
freq.     670.47  E(vib)   ...       0.08 
freq.     683.43  E(vib)   ...       0.07 
freq.     697.99  E(vib)   ...       0.07 
freq.     701.75  E(vib)   ...       0.07 
freq.     708.16  E(vib)   ...       0.07 
freq.     715.54  E(vib)   ...       0.07 
freq.     718.61  E(vib)   ...       0.07 
freq.     721.84  E(vib)   ...       0.07 
freq.     738.15  E(vib)   ...       0.06 
freq.     743.25  E(vib)   ...       0.06 
freq.     745.29  E(vib)   ...       0.06 
freq.     753.16  E(vib)   ...       0.06 
freq.     760.18  E(vib)   ...       0.06 
freq.     774.38  E(vib)   ...       0.05 
freq.     782.53  E(vib)   ...       0.05 
freq.     795.86  E(vib)   ...       0.05 
freq.     799.11  E(vib)   ...       0.05 
freq.     814.93  E(vib)   ...       0.05 
freq.     817.32  E(vib)   ...       0.05 
freq.     821.80  E(vib)   ...       0.05 
freq.     830.08  E(vib)   ...       0.04 
freq.     839.26  E(vib)   ...       0.04 
freq.     847.15  E(vib)   ...       0.04 
freq.     850.70  E(vib)   ...       0.04 
freq.     852.59  E(vib)   ...       0.04 
freq.     859.92  E(vib)   ...       0.04 
freq.     871.02  E(vib)   ...       0.04 
freq.     879.39  E(vib)   ...       0.04 
freq.     884.49  E(vib)   ...       0.04 
freq.     889.36  E(vib)   ...       0.04 
freq.     897.45  E(vib)   ...       0.03 
freq.     905.12  E(vib)   ...       0.03 
freq.     906.90  E(vib)   ...       0.03 
freq.     908.94  E(vib)   ...       0.03 
freq.     912.61  E(vib)   ...       0.03 
freq.     919.39  E(vib)   ...       0.03 
freq.     931.48  E(vib)   ...       0.03 
freq.     940.03  E(vib)   ...       0.03 
freq.     941.98  E(vib)   ...       0.03 
freq.     942.82  E(vib)   ...       0.03 
freq.     947.53  E(vib)   ...       0.03 
freq.     948.86  E(vib)   ...       0.03 
freq.     960.10  E(vib)   ...       0.03 
freq.     964.05  E(vib)   ...       0.03 
freq.     971.95  E(vib)   ...       0.03 
freq.     974.96  E(vib)   ...       0.03 
freq.     980.03  E(vib)   ...       0.02 
freq.     987.99  E(vib)   ...       0.02 
freq.    1009.22  E(vib)   ...       0.02 
freq.    1016.15  E(vib)   ...       0.02 
freq.    1021.03  E(vib)   ...       0.02 
freq.    1025.76  E(vib)   ...       0.02 
freq.    1028.30  E(vib)   ...       0.02 
freq.    1031.33  E(vib)   ...       0.02 
freq.    1041.12  E(vib)   ...       0.02 
freq.    1042.35  E(vib)   ...       0.02 
freq.    1044.26  E(vib)   ...       0.02 
freq.    1050.45  E(vib)   ...       0.02 
freq.    1058.60  E(vib)   ...       0.02 
freq.    1061.58  E(vib)   ...       0.02 
freq.    1069.32  E(vib)   ...       0.02 
freq.    1073.46  E(vib)   ...       0.02 
freq.    1075.45  E(vib)   ...       0.02 
freq.    1078.51  E(vib)   ...       0.02 
freq.    1087.22  E(vib)   ...       0.02 
freq.    1092.31  E(vib)   ...       0.02 
freq.    1096.92  E(vib)   ...       0.02 
freq.    1101.19  E(vib)   ...       0.02 
freq.    1103.61  E(vib)   ...       0.02 
freq.    1111.85  E(vib)   ...       0.01 
freq.    1113.90  E(vib)   ...       0.01 
freq.    1119.27  E(vib)   ...       0.01 
freq.    1129.22  E(vib)   ...       0.01 
freq.    1139.15  E(vib)   ...       0.01 
freq.    1141.44  E(vib)   ...       0.01 
freq.    1146.63  E(vib)   ...       0.01 
freq.    1153.16  E(vib)   ...       0.01 
freq.    1158.32  E(vib)   ...       0.01 
freq.    1163.02  E(vib)   ...       0.01 
freq.    1166.88  E(vib)   ...       0.01 
freq.    1172.29  E(vib)   ...       0.01 
freq.    1188.77  E(vib)   ...       0.01 
freq.    1191.50  E(vib)   ...       0.01 
freq.    1192.46  E(vib)   ...       0.01 
freq.    1197.08  E(vib)   ...       0.01 
freq.    1202.02  E(vib)   ...       0.01 
freq.    1204.05  E(vib)   ...       0.01 
freq.    1213.22  E(vib)   ...       0.01 
freq.    1214.07  E(vib)   ...       0.01 
freq.    1219.84  E(vib)   ...       0.01 
freq.    1225.05  E(vib)   ...       0.01 
freq.    1230.49  E(vib)   ...       0.01 
freq.    1231.56  E(vib)   ...       0.01 
freq.    1232.40  E(vib)   ...       0.01 
freq.    1240.38  E(vib)   ...       0.01 
freq.    1241.78  E(vib)   ...       0.01 
freq.    1249.68  E(vib)   ...       0.01 
freq.    1256.37  E(vib)   ...       0.01 
freq.    1258.26  E(vib)   ...       0.01 
freq.    1268.02  E(vib)   ...       0.01 
freq.    1270.28  E(vib)   ...       0.01 
freq.    1273.89  E(vib)   ...       0.01 
freq.    1279.29  E(vib)   ...       0.01 
freq.    1280.85  E(vib)   ...       0.01 
freq.    1281.70  E(vib)   ...       0.01 
freq.    1287.86  E(vib)   ...       0.01 
freq.    1288.74  E(vib)   ...       0.01 
freq.    1290.66  E(vib)   ...       0.01 
freq.    1292.70  E(vib)   ...       0.01 
freq.    1295.72  E(vib)   ...       0.01 
freq.    1299.42  E(vib)   ...       0.01 
freq.    1302.45  E(vib)   ...       0.01 
freq.    1303.04  E(vib)   ...       0.01 
freq.    1304.10  E(vib)   ...       0.01 
freq.    1306.77  E(vib)   ...       0.01 
freq.    1308.78  E(vib)   ...       0.01 
freq.    1312.43  E(vib)   ...       0.01 
freq.    1315.22  E(vib)   ...       0.01 
freq.    1320.62  E(vib)   ...       0.01 
freq.    1322.21  E(vib)   ...       0.01 
freq.    1323.49  E(vib)   ...       0.01 
freq.    1327.29  E(vib)   ...       0.01 
freq.    1330.24  E(vib)   ...       0.01 
freq.    1333.18  E(vib)   ...       0.01 
freq.    1334.95  E(vib)   ...       0.01 
freq.    1343.20  E(vib)   ...       0.01 
freq.    1344.17  E(vib)   ...       0.01 
freq.    1347.59  E(vib)   ...       0.01 
freq.    1347.90  E(vib)   ...       0.01 
freq.    1350.73  E(vib)   ...       0.01 
freq.    1354.46  E(vib)   ...       0.01 
freq.    1355.67  E(vib)   ...       0.01 
freq.    1360.26  E(vib)   ...       0.01 
freq.    1371.76  E(vib)   ...       0.01 
freq.    1375.74  E(vib)   ...       0.01 
freq.    1376.65  E(vib)   ...       0.01 
freq.    1379.51  E(vib)   ...       0.01 
freq.    1409.15  E(vib)   ...       0.00 
freq.    1413.13  E(vib)   ...       0.00 
freq.    1418.10  E(vib)   ...       0.00 
freq.    1424.62  E(vib)   ...       0.00 
freq.    1426.06  E(vib)   ...       0.00 
freq.    1429.25  E(vib)   ...       0.00 
freq.    1430.20  E(vib)   ...       0.00 
freq.    1432.57  E(vib)   ...       0.00 
freq.    1437.59  E(vib)   ...       0.00 
freq.    1439.44  E(vib)   ...       0.00 
freq.    1439.54  E(vib)   ...       0.00 
freq.    1442.03  E(vib)   ...       0.00 
freq.    1442.43  E(vib)   ...       0.00 
freq.    1442.63  E(vib)   ...       0.00 
freq.    1442.76  E(vib)   ...       0.00 
freq.    1445.52  E(vib)   ...       0.00 
freq.    1446.34  E(vib)   ...       0.00 
freq.    1448.32  E(vib)   ...       0.00 
freq.    1448.57  E(vib)   ...       0.00 
freq.    1449.33  E(vib)   ...       0.00 
freq.    1451.52  E(vib)   ...       0.00 
freq.    1454.72  E(vib)   ...       0.00 
freq.    1455.73  E(vib)   ...       0.00 
freq.    1456.81  E(vib)   ...       0.00 
freq.    1458.62  E(vib)   ...       0.00 
freq.    1459.03  E(vib)   ...       0.00 
freq.    1463.09  E(vib)   ...       0.00 
freq.    1467.44  E(vib)   ...       0.00 
freq.    1468.58  E(vib)   ...       0.00 
freq.    1472.40  E(vib)   ...       0.00 
freq.    1473.10  E(vib)   ...       0.00 
freq.    1484.71  E(vib)   ...       0.00 
freq.    1512.74  E(vib)   ...       0.00 
freq.    1523.73  E(vib)   ...       0.00 
freq.    1614.36  E(vib)   ...       0.00 
freq.    1649.88  E(vib)   ...       0.00 
freq.    1670.84  E(vib)   ...       0.00 
freq.    1671.58  E(vib)   ...       0.00 
freq.    1684.00  E(vib)   ...       0.00 
freq.    1698.20  E(vib)   ...       0.00 
freq.    1717.83  E(vib)   ...       0.00 
freq.    2924.37  E(vib)   ...       0.00 
freq.    2928.75  E(vib)   ...       0.00 
freq.    2930.49  E(vib)   ...       0.00 
freq.    2931.93  E(vib)   ...       0.00 
freq.    2932.60  E(vib)   ...       0.00 
freq.    2933.15  E(vib)   ...       0.00 
freq.    2936.89  E(vib)   ...       0.00 
freq.    2938.59  E(vib)   ...       0.00 
freq.    2939.20  E(vib)   ...       0.00 
freq.    2946.31  E(vib)   ...       0.00 
freq.    2949.63  E(vib)   ...       0.00 
freq.    2954.43  E(vib)   ...       0.00 
freq.    2955.37  E(vib)   ...       0.00 
freq.    2955.99  E(vib)   ...       0.00 
freq.    2958.38  E(vib)   ...       0.00 
freq.    2959.82  E(vib)   ...       0.00 
freq.    2961.69  E(vib)   ...       0.00 
freq.    2963.55  E(vib)   ...       0.00 
freq.    2964.46  E(vib)   ...       0.00 
freq.    2967.81  E(vib)   ...       0.00 
freq.    2968.66  E(vib)   ...       0.00 
freq.    2970.78  E(vib)   ...       0.00 
freq.    2970.92  E(vib)   ...       0.00 
freq.    2973.01  E(vib)   ...       0.00 
freq.    2974.51  E(vib)   ...       0.00 
freq.    2975.63  E(vib)   ...       0.00 
freq.    2978.12  E(vib)   ...       0.00 
freq.    2979.57  E(vib)   ...       0.00 
freq.    2984.39  E(vib)   ...       0.00 
freq.    2984.68  E(vib)   ...       0.00 
freq.    2991.60  E(vib)   ...       0.00 
freq.    2992.85  E(vib)   ...       0.00 
freq.    2993.72  E(vib)   ...       0.00 
freq.    2994.70  E(vib)   ...       0.00 
freq.    2997.97  E(vib)   ...       0.00 
freq.    3008.15  E(vib)   ...       0.00 
freq.    3009.24  E(vib)   ...       0.00 
freq.    3011.17  E(vib)   ...       0.00 
freq.    3014.40  E(vib)   ...       0.00 
freq.    3014.61  E(vib)   ...       0.00 
freq.    3015.37  E(vib)   ...       0.00 
freq.    3015.87  E(vib)   ...       0.00 
freq.    3020.06  E(vib)   ...       0.00 
freq.    3020.28  E(vib)   ...       0.00 
freq.    3025.71  E(vib)   ...       0.00 
freq.    3028.45  E(vib)   ...       0.00 
freq.    3032.37  E(vib)   ...       0.00 
freq.    3038.17  E(vib)   ...       0.00 
freq.    3042.95  E(vib)   ...       0.00 
freq.    3044.32  E(vib)   ...       0.00 
freq.    3045.07  E(vib)   ...       0.00 
freq.    3048.05  E(vib)   ...       0.00 
freq.    3050.10  E(vib)   ...       0.00 
freq.    3050.96  E(vib)   ...       0.00 
freq.    3052.36  E(vib)   ...       0.00 
freq.    3060.12  E(vib)   ...       0.00 
freq.    3060.28  E(vib)   ...       0.00 
freq.    3071.17  E(vib)   ...       0.00 
freq.    3285.62  E(vib)   ...       0.00 
freq.    3333.14  E(vib)   ...       0.00 
freq.    3376.07  E(vib)   ...       0.00 
freq.    3472.98  E(vib)   ...       0.00 
freq.    3496.05  E(vib)   ...       0.00 
freq.    3499.57  E(vib)   ...       0.00 

------------
INNER ENERGY
------------

The inner energy is: U= E(el) + E(ZPE) + E(vib) + E(rot) + E(trans)
    E(el)   - is the total energy from the electronic structure calculation
              = E(kin-el) + E(nuc-el) + E(el-el) + E(nuc-nuc)
    E(ZPE)  - the the zero temperature vibrational energy from the frequency calculation
    E(vib)  - the the finite temperature correction to E(ZPE) due to population
              of excited vibrational states
    E(rot)  - is the rotational thermal energy
    E(trans)- is the translational thermal energy

Summary of contributions to the inner energy U:
Electronic energy                ...  -2380.08564550 Eh
Zero point energy                ...      0.97735652 Eh     613.30 kcal/mol
Thermal vibrational correction   ...      0.05535899 Eh      34.74 kcal/mol
Thermal rotational correction    ...      0.00141627 Eh       0.89 kcal/mol
Thermal translational correction ...      0.00141627 Eh       0.89 kcal/mol
-----------------------------------------------------------------------
Total thermal energy                  -2379.05009745 Eh


Summary of corrections to the electronic energy:
(perhaps to be used in another calculation)
Total thermal correction                  0.05819154 Eh      36.52 kcal/mol
Non-thermal (ZPE) correction              0.97735652 Eh     613.30 kcal/mol
-----------------------------------------------------------------------
Total correction                          1.03554805 Eh     649.81 kcal/mol


--------
ENTHALPY
--------

The enthalpy is H = U + kB*T
                kB is Boltzmann's constant
Total free energy                 ...  -2379.05009745 Eh 
Thermal Enthalpy correction       ...      0.00094421 Eh       0.59 kcal/mol
-----------------------------------------------------------------------
Total Enthalpy                    ...  -2379.04915324 Eh


Note: Only C1 symmetry has been detected, increase convergence thresholds 
      if your molecule has a higher symmetry. Symmetry factor of 1.0 is   
      used for the rotational entropy correction. 
 

Note: Rotational entropy computed according to Herzberg 
Infrared and Raman Spectra, Chapter V,1, Van Nostrand Reinhold, 1945 
Point Group:  C1, Symmetry Number:   1  
Rotational constants in cm-1:     0.002016     0.001517     0.001325 

Vibrational entropy computed according to the QRRHO of S. Grimme
Chem.Eur.J. 2012 18 9955


-------
ENTROPY
-------

The entropy contributions are T*S = T*(S(el)+S(vib)+S(rot)+S(trans))
     S(el)   - electronic entropy
     S(vib)  - vibrational entropy
     S(rot)  - rotational entropy
     S(trans)- translational entropy
The entropies will be listed as mutliplied by the temperature to get
units of energy

Electronic entropy                ...      0.00000000 Eh      0.00 kcal/mol
Vibrational entropy               ...      0.10118030 Eh     63.49 kcal/mol
Rotational entropy                ...      0.01863355 Eh     11.69 kcal/mol
Translational entropy             ...      0.02166895 Eh     13.60 kcal/mol
-----------------------------------------------------------------------
Final entropy term                ...      0.14148280 Eh     88.78 kcal/mol

In case the symmetry of your molecule has not been determined correctly
or in case you have a reason to use a different symmetry number we print 
out the resulting rotational entropy values for sn=1,12 :
 --------------------------------------------------------
|  sn= 1 | S(rot)=       0.01863355 Eh     11.69 kcal/mol|
|  sn= 2 | S(rot)=       0.01797910 Eh     11.28 kcal/mol|
|  sn= 3 | S(rot)=       0.01759626 Eh     11.04 kcal/mol|
|  sn= 4 | S(rot)=       0.01732464 Eh     10.87 kcal/mol|
|  sn= 5 | S(rot)=       0.01711395 Eh     10.74 kcal/mol|
|  sn= 6 | S(rot)=       0.01694181 Eh     10.63 kcal/mol|
|  sn= 7 | S(rot)=       0.01679626 Eh     10.54 kcal/mol|
|  sn= 8 | S(rot)=       0.01667018 Eh     10.46 kcal/mol|
|  sn= 9 | S(rot)=       0.01655898 Eh     10.39 kcal/mol|
|  sn=10 | S(rot)=       0.01645950 Eh     10.33 kcal/mol|
|  sn=11 | S(rot)=       0.01636951 Eh     10.27 kcal/mol|
|  sn=12 | S(rot)=       0.01628735 Eh     10.22 kcal/mol|
 --------------------------------------------------------


-------------------
GIBBS FREE ENERGY
-------------------

The Gibbs free energy is G = H - T*S

Total enthalpy                    ...  -2379.04915324 Eh 
Total entropy correction          ...     -0.14148280 Eh    -88.78 kcal/mol
-----------------------------------------------------------------------
Final Gibbs free energy         ...  -2379.19063604 Eh

For completeness - the Gibbs free energy minus the electronic energy
G-E(el)                           ...      0.89500946 Eh    561.63 kcal/mol

--------------------------------------------------------------------------
WARNING: No preset parameters were found for the device that Open MPI
detected:

  Local host:            eu-g1-003-3
  Device name:           mlx5_0
  Device vendor ID:      0x02c9
  Device vendor part ID: 4123

Default device parameters will be used, which may result in lower
performance.  You can edit any of the files specified by the
btl_openib_device_param_files MCA parameter to set values for your
device.

NOTE: You can turn off this warning by setting the MCA parameter
      btl_openib_warn_no_device_params_found to 0.
--------------------------------------------------------------------------
--------------------------------------------------------------------------
WARNING: There was an error initializing an OpenFabrics device.

  Local host:   eu-g1-003-3
  Local device: mlx5_0
--------------------------------------------------------------------------

Timings for individual modules:

Sum of individual times         ...    26790.161 sec (= 446.503 min)
GTO integral calculation        ...       53.309 sec (=   0.888 min)   0.2 %
SCF iterations                  ...     1290.047 sec (=  21.501 min)   4.8 %
SCF Gradient evaluation         ...      567.975 sec (=   9.466 min)   2.1 %
Geometry relaxation             ...       23.673 sec (=   0.395 min)   0.1 %
Analytical frequency calculation...    24855.157 sec (= 414.253 min)  92.8 %
                             ****ORCA TERMINATED NORMALLY****
TOTAL RUN TIME: 0 days 7 hours 39 minutes 15 seconds 310 msec
