
                                 *****************
                                 * O   R   C   A *
                                 *****************

           --- An Ab Initio, DFT and Semiempirical electronic structure package ---

                  #######################################################
                  #                        -***-                        #
                  #          Department of theory and spectroscopy      #
                  #               Directorship: Frank Neese             #
                  #        Max Planck Institute fuer Kohlenforschung    #
                  #                Kaiser Wilhelm Platz 1               #
                  #                 D-45470 Muelheim/Ruhr               #
                  #                      Germany                        #
                  #                                                     #
                  #                  All rights reserved                #
                  #                        -***-                        #
                  #######################################################


                         Program Version 4.2.0 -  RELEASE  -


 With contributions from (in alphabetic order):
   Daniel Aravena         : Magnetic Suceptibility
   Michael Atanasov       : Ab Initio Ligand Field Theory (pilot matlab implementation)
   Alexander A. Auer      : GIAO ZORA, VPT2
   Ute Becker             : Parallelization
   Giovanni Bistoni       : ED, misc. LED, open-shell LED, HFLED
   Martin Brehm           : Molecular dynamics
   Dmytro Bykov           : SCF Hessian
   Vijay G. Chilkuri      : MRCI spin determinant printing, contributions to CSF-ICE
   Dipayan Datta          : RHF DLPNO-CCSD density
   Achintya Kumar Dutta   : EOM-CC, STEOM-CC
   Dmitry Ganyushin       : Spin-Orbit,Spin-Spin,Magnetic field MRCI
   Miquel Garcia          : C-PCM Hessian, Gaussian charge scheme
   Yang Guo               : DLPNO-NEVPT2, CIM, IAO-localization
   Andreas Hansen         : Spin unrestricted coupled pair/coupled cluster methods
   Benjamin Helmich-Paris : CASSCF linear response (MC-RPA)
   Lee Huntington         : MR-EOM, pCC
   Robert Izsak           : Overlap fitted RIJCOSX, COSX-SCS-MP3, EOM
   Christian Kollmar      : KDIIS, OOCD, Brueckner-CCSD(T), CCSD density
   Simone Kossmann        : Meta GGA functionals, TD-DFT gradient, OOMP2, MP2 Hessian
   Martin Krupicka        : AUTO-CI
   Lucas Lang             : DCDCAS
   Dagmar Lenk            : GEPOL surface, SMD
   Dimitrios Liakos       : Extrapolation schemes; Compound Job, initial MDCI parallelization
   Dimitrios Manganas     : Further ROCIS development; embedding schemes
   Dimitrios Pantazis     : SARC Basis sets
   Taras Petrenko         : DFT Hessian,TD-DFT gradient, ASA, ECA, R-Raman, ABS, FL, XAS/XES, NRVS
   Peter Pinski           : DLPNO-MP2, DLPNO-MP2 Gradient
   Christoph Reimann      : Effective Core Potentials
   Marius Retegan         : Local ZFS, SOC
   Christoph Riplinger    : Optimizer, TS searches, QM/MM, DLPNO-CCSD(T), (RO)-DLPNO pert. Triples
   Tobias Risthaus        : Range-separated hybrids, TD-DFT gradient, RPA, STAB
   Michael Roemelt        : Original ROCIS implementation
   Masaaki Saitow         : Open-shell DLPNO-CCSD energy and density
   Barbara Sandhoefer     : DKH picture change effects
   Avijit Sen             : IP-ROCIS
   Kantharuban Sivalingam : CASSCF convergence, NEVPT2, FIC-MRCI
   Bernardo de Souza      : ESD, SOC TD-DFT
   Georgi Stoychev        : AutoAux, RI-MP2 NMR
   Willem Van den Heuvel  : Paramagnetic NMR
   Boris Wezisla          : Elementary symmetry handling
   Frank Wennmohs         : Technical directorship


 We gratefully acknowledge several colleagues who have allowed us to
 interface, adapt or use parts of their codes:
   Stefan Grimme, W. Hujo, H. Kruse,             : VdW corrections, initial TS optimization,
                  C. Bannwarth                     DFT functionals, gCP, sTDA/sTD-DF
   Ed Valeev, F. Pavosevic, A. Kumar             : LibInt (2-el integral package), F12 methods
   Garnet Chan, S. Sharma, J. Yang, R. Olivares  : DMRG
   Ulf Ekstrom                                   : XCFun DFT Library
   Mihaly Kallay                                 : mrcc  (arbitrary order and MRCC methods)
   Andreas Klamt, Michael Diedenhofen            : otool_cosmo (COSMO solvation model)
   Jiri Pittner, Ondrej Demel                    : Mk-CCSD
   Frank Weinhold                                : gennbo (NPA and NBO analysis)
   Christopher J. Cramer and Donald G. Truhlar   : smd solvation model
   Lars Goerigk                                  : TD-DFT with DH, B97 family of functionals
   V. Asgeirsson, H. Jonsson                     : NEB implementation
   FAccTs GmbH                                   : IRC, NEB, NEB-TS, Multilevel, MM, QM/MM, CI optimization
   S Lehtola, MJT Oliveira, MAL Marques          : LibXC Library


 Your calculation uses the libint2 library for the computation of 2-el integrals
 For citations please refer to: http://libint.valeyev.net

 Your ORCA version has been built with support for libXC version: 4.2.3
 For citations please refer to: https://tddft.org/programs/libxc/

 This ORCA versions uses:
   CBLAS   interface :  Fast vector & matrix operations
   LAPACKE interface :  Fast linear algebra routines
   SCALAPACK package :  Parallel linear algebra routines




***************************************
The coordinates will be read from file: 22.xyz
***************************************


Your calculation utilizes the atom-pairwise dispersion correction
with the Becke-Johnson damping scheme (D3BJ)
Cite in your paper:
S.Grimme, S.Ehrlich, L.Goerigk, J Comput Chem, (2011), 32, 1456–1465 
S.Grimme, J.Antony, S.Ehrlich and H.Krieg, J.Chem.Phys., 132, (2010), 154104 
   

----- Orbital basis set information -----
Your calculation utilizes the basis: def2-TZVP
   F. Weigend and R. Ahlrichs, Phys. Chem. Chem. Phys. 7, 3297 (2005).

----- AuxJ basis set information -----
Your calculation utilizes the auxiliary basis: def2/J
   F. Weigend, Phys. Chem. Chem. Phys. 8, 1057 (2006).

================================================================================
                                        WARNINGS
                       Please study these warnings very carefully!
================================================================================


WARNING: Geometry Optimization
  ===> : Switching off AutoStart
         For restart on a previous wavefunction, please use MOREAD

INFO   : the flag for use of LIBINT has been found!

================================================================================
                                       INPUT FILE
================================================================================
NAME = 22.inp
|  1> !RI BP86 def2-tzvp def2/J D3BJ VeryTightSCF VeryTightOpt Grid5 FinalGrid6 freq
|  2> %maxcore 4000
|  3> %pal nprocs 24
|  4> end
|  5> * xyzfile 0 1 22.xyz 
|  6> 
|  7>                          ****END OF INPUT****
================================================================================

                       *****************************
                       * Geometry Optimization Run *
                       *****************************

Geometry optimization settings:
Update method            Update   .... BFGS
Choice of coordinates    CoordSys .... Z-matrix Internals
Initial Hessian          InHess   .... Almoef's Model

Convergence Tolerances:
Energy Change            TolE     ....  2.0000e-07 Eh
Max. Gradient            TolMAXG  ....  3.0000e-05 Eh/bohr
RMS Gradient             TolRMSG  ....  8.0000e-06 Eh/bohr
Max. Displacement        TolMAXD  ....  2.0000e-04 bohr
RMS Displacement         TolRMSD  ....  1.0000e-04 bohr
Strict Convergence                ....  False
------------------------------------------------------------------------------
                        ORCA OPTIMIZATION COORDINATE SETUP
------------------------------------------------------------------------------

The optimization will be done in new redundant internal coordinates
Making redundant internal coordinates   ...  (new redundants) done
Evaluating the initial hessian          ...  (Almloef) done
Evaluating the coordinates              ...  done
Calculating the B-matrix                .... done
Calculating the G-matrix                .... done
Diagonalizing the G-matrix              .... done
Small eigenvalue found = 8.965e-04
Small eigenvalue found = 2.111e-03
Small eigenvalue found = 2.597e-03
Small eigenvalue found = 3.395e-03
Small eigenvalue found = 4.028e-03
Small eigenvalue found = 5.923e-03
Small eigenvalue found = 6.961e-03
Small eigenvalue found = 8.868e-03
Small eigenvalue found = 1.045e-02
Small eigenvalue found = 1.120e-02
Small eigenvalue found = 1.265e-02
Small eigenvalue found = 1.396e-02
Small eigenvalue found = 1.472e-02
Small eigenvalue found = 1.561e-02
Small eigenvalue found = 1.917e-02
Small eigenvalue found = 2.012e-02
Small eigenvalue found = 2.056e-02
Small eigenvalue found = 2.254e-02
Small eigenvalue found = 2.962e-02
The first mode is                       ....  326
The number of degrees of freedom        ....  339

    -----------------------------------------------------------------
                    Redundant Internal Coordinates


    -----------------------------------------------------------------
         Definition                    Initial Value    Approx d2E/dq
    -----------------------------------------------------------------
      1. B(C   1,O   0)                  1.2279         1.015141   
      2. B(C   2,C   1)                  1.5281         0.376151   
      3. B(C   3,C   2)                  1.5452         0.353270   
      4. B(C   4,C   3)                  1.5338         0.368442   
      5. B(C   5,C   4)                  1.5292         0.374637   
      6. B(N   6,C   5)                  1.4756         0.408662   
      7. B(N   6,C   2)                  1.4819         0.399270   
      8. B(C   7,N   6)                  1.3619         0.620473   
      9. B(O   8,C   7)                  1.2405         0.969219   
     10. B(N   9,C   1)                  1.3618         0.620600   
     11. B(C  10,N   9)                  1.4514         0.446575   
     12. B(C  11,C  10)                  1.5443         0.354404   
     13. B(N  12,C  11)                  1.3635         0.616891   
     14. B(C  13,N  12)                  1.4639         0.426480   
     15. B(C  14,C  13)                  1.5379         0.362846   
     16. B(N  15,C  14)                  1.3548         0.636730   
     17. B(C  16,N  15)                  1.4422         0.461886   
     18. B(C  17,C  16)                  1.5429         0.356316   
     19. B(C  18,C  17)                  1.5655         0.327878   
     20. B(C  19,C  18)                  1.5229         0.383387   
     21. B(N  20,C  19)                  1.3647         0.614122   
     22. B(C  21,N  20)                  1.4591         0.434180   
     23. B(C  22,C  21)                  1.5450         0.353485   
     24. B(N  23,C  22)                  1.3568         0.632140   
     25. B(C  24,N  23)                  1.4496         0.449553   
     26. B(C  24,C   7)                  1.5289         0.375073   
     27. B(C  25,C  24)                  1.5444         0.354338   
     28. B(O  26,C  22)                  1.2336         0.993896   
     29. B(C  27,C  21)                  1.5258         0.379340   
     30. B(C  28,C  27)                  1.5374         0.363494   
     31. B(C  29,C  28)                  1.5324         0.370279   
     32. B(C  30,C  28)                  1.5328         0.369688   
     33. B(O  31,C  19)                  1.2371         0.981246   
     34. B(C  32,C  18)                  1.5476         0.350121   
     35. B(C  33,C  32)                  1.4956         0.423864   
     36. B(C  34,C  33)                  1.5216         0.385331   
     37. B(C  35,C  34)                  1.5384         0.362260   
     38. B(C  36,C  35)                  1.5431         0.356003   
     39. B(C  37,C  36)                  1.5366         0.364617   
     40. B(C  38,C  37)                  1.5289         0.375138   
     41. B(C  39,C  38)                  1.5285         0.375627   
     42. B(C  40,C  39)                  1.5293         0.374593   
     43. B(C  41,C  40)                  1.5285         0.375625   
     44. B(O  42,C  32)                  1.2260         1.022182   
     45. B(O  43,C  17)                  1.4243         0.493390   
     46. B(O  44,C  14)                  1.2342         0.992015   
     47. B(C  45,C  13)                  1.5356         0.365931   
     48. B(C  46,C  45)                  1.5270         0.377713   
     49. B(O  47,C  11)                  1.2300         1.007235   
     50. B(C  48,C  10)                  1.5439         0.354981   
     51. B(C  49,C  48)                  1.5299         0.373714   
     52. B(C  50,C  48)                  1.5327         0.369834   
     53. B(H  51,C   2)                  1.1001         0.346996   
     54. B(H  52,C   3)                  1.0950         0.353536   
     55. B(H  53,C   3)                  1.1004         0.346551   
     56. B(H  54,C   4)                  1.0972         0.350719   
     57. B(H  55,C   4)                  1.1006         0.346376   
     58. B(H  56,C   5)                  1.1033         0.342908   
     59. B(H  57,C   5)                  1.0938         0.355045   
     60. B(H  58,N   9)                  1.0158         0.423543   
     61. B(H  59,C  10)                  1.1010         0.345806   
     62. B(H  60,N  12)                  1.0221         0.413850   
     63. B(H  61,C  13)                  1.1021         0.344501   
     64. B(H  62,N  15)                  1.0146         0.425432   
     65. B(H  63,C  16)                  1.1002         0.346915   
     66. B(H  64,C  16)                  1.0979         0.349846   
     67. B(H  65,C  17)                  1.1028         0.343562   
     68. B(H  66,C  18)                  1.1037         0.342423   
     69. B(H  67,N  20)                  1.0152         0.424564   
     70. B(H  68,C  21)                  1.0999         0.347276   
     71. B(H  69,H  60)                  3.3967         0.000014   
     72. B(H  69,N  23)                  1.0227         0.412964   
     73. B(H  70,C  24)                  1.1015         0.345252   
     74. B(H  71,C  25)                  1.0966         0.351526   
     75. B(H  72,C  25)                  1.0979         0.349862   
     76. B(H  73,C  25)                  1.0974         0.350505   
     77. B(H  74,C  27)                  1.1021         0.344418   
     78. B(H  75,C  27)                  1.1036         0.342565   
     79. B(H  76,C  28)                  1.1029         0.343462   
     80. B(H  77,C  29)                  1.0997         0.347471   
     81. B(H  78,C  29)                  1.0994         0.347868   
     82. B(H  79,C  29)                  1.1018         0.344808   
     83. B(H  80,C  30)                  1.0984         0.349140   
     84. B(H  81,C  30)                  1.1018         0.344831   
     85. B(H  82,C  30)                  1.0994         0.347825   
     86. B(H  83,C  33)                  1.1007         0.346214   
     87. B(H  84,C  33)                  1.1083         0.336712   
     88. B(H  85,C  34)                  1.1007         0.346205   
     89. B(H  86,C  34)                  1.1007         0.346214   
     90. B(H  87,C  35)                  1.1047         0.341120   
     91. B(H  88,C  35)                  1.1008         0.346106   
     92. B(H  89,C  36)                  1.1016         0.345078   
     93. B(H  90,C  36)                  1.1035         0.342739   
     94. B(H  91,C  37)                  1.1015         0.345252   
     95. B(H  92,C  37)                  1.1041         0.341865   
     96. B(H  93,C  38)                  1.1038         0.342321   
     97. B(H  94,H  61)                  2.1012         0.001679   
     98. B(H  94,C  38)                  1.1021         0.344417   
     99. B(H  95,H  68)                  2.1562         0.001372   
    100. B(H  95,C  39)                  1.1052         0.340527   
    101. B(H  96,C  39)                  1.1046         0.341287   
    102. B(H  97,C  40)                  1.1032         0.343093   
    103. B(H  98,C  40)                  1.1016         0.345107   
    104. B(H  99,C  41)                  1.0994         0.347877   
    105. B(H 100,C  41)                  1.1008         0.346107   
    106. B(H 101,H  73)                  2.2861         0.000851   
    107. B(H 101,C  41)                  1.1008         0.346081   
    108. B(H 102,O  43)                  0.9844         0.475337   
    109. B(H 103,C  45)                  1.0985         0.349040   
    110. B(H 104,C  45)                  1.0982         0.349366   
    111. B(H 105,C  46)                  1.0987         0.348711   
    112. B(H 106,C  46)                  1.1004         0.346540   
    113. B(H 107,C  46)                  1.0997         0.347454   
    114. B(H 108,C  48)                  1.1002         0.346827   
    115. B(H 109,C  49)                  1.0992         0.348073   
    116. B(H 110,C  49)                  1.1010         0.345856   
    117. B(H 111,C  49)                  1.0991         0.348208   
    118. B(H 112,H  65)                  3.7749         0.000004   
    119. B(H 112,C  50)                  1.0994         0.347896   
    120. B(H 113,C  50)                  1.0987         0.348763   
    121. B(H 114,C  50)                  1.1029         0.343460   
    122. A(O   0,C   1,N   9)          124.3634         0.468566   
    123. A(C   2,C   1,N   9)          115.7973         0.394694   
    124. A(O   0,C   1,C   2)          119.7765         0.430711   
    125. A(C   1,C   2,H  51)          105.5279         0.322716   
    126. A(N   6,C   2,H  51)          108.4088         0.323943   
    127. A(C   1,C   2,N   6)          116.5285         0.365652   
    128. A(C   1,C   2,C   3)          111.0146         0.360325   
    129. A(C   3,C   2,H  51)          111.6634         0.319420   
    130. A(C   3,C   2,N   6)          103.8074         0.361750   
    131. A(C   4,C   3,H  53)          110.1744         0.321556   
    132. A(C   4,C   3,H  52)          114.0107         0.322608   
    133. A(C   2,C   3,C   4)          104.1336         0.359056   
    134. A(C   2,C   3,H  53)          109.5979         0.319353   
    135. A(C   2,C   3,H  52)          111.2235         0.320396   
    136. A(H  52,C   3,H  53)          107.6565         0.288264   
    137. A(H  54,C   4,H  55)          108.1956         0.287880   
    138. A(C   3,C   4,H  55)          110.5639         0.321529   
    139. A(C   3,C   4,C   5)          102.7345         0.362670   
    140. A(C   3,C   4,H  54)          113.1188         0.322186   
    141. A(C   5,C   4,H  55)          109.6587         0.322408   
    142. A(C   5,C   4,H  54)          112.4958         0.323068   
    143. A(H  56,C   5,H  57)          107.9519         0.287979   
    144. A(C   4,C   5,N   6)          102.9272         0.366858   
    145. A(C   4,C   5,H  56)          110.8895         0.321877   
    146. A(N   6,C   5,H  57)          111.7165         0.326412   
    147. A(N   6,C   5,H  56)          109.7114         0.324550   
    148. A(C   4,C   5,H  57)          113.5896         0.323718   
    149. A(C   5,N   6,C   7)          127.5040         0.397907   
    150. A(C   2,N   6,C   7)          119.2940         0.396285   
    151. A(C   2,N   6,C   5)          111.4103         0.368572   
    152. A(O   8,C   7,C  24)          120.7918         0.426929   
    153. A(N   6,C   7,O   8)          121.2012         0.464592   
    154. A(N   6,C   7,C  24)          117.8979         0.394481   
    155. A(C   1,N   9,C  10)          122.4665         0.404187   
    156. A(C  10,N   9,H  58)          119.2919         0.338157   
    157. A(C   1,N   9,H  58)          117.6063         0.357424   
    158. A(C  48,C  10,H  59)          109.0310         0.319492   
    159. A(C  11,C  10,H  59)          105.5735         0.319408   
    160. A(N   9,C  10,C  11)          113.7550         0.368953   
    161. A(N   9,C  10,C  48)          112.1006         0.369056   
    162. A(N   9,C  10,H  59)          105.5037         0.329786   
    163. A(C  11,C  10,C  48)          110.4504         0.356985   
    164. A(N  12,C  11,O  47)          124.1306         0.467381   
    165. A(C  10,C  11,O  47)          119.7572         0.425540   
    166. A(C  10,C  11,N  12)          116.0894         0.390192   
    167. A(C  13,N  12,H  60)          116.2972         0.334286   
    168. A(C  11,N  12,C  13)          123.1459         0.400496   
    169. A(C  11,N  12,H  60)          118.9313         0.355659   
    170. A(C  14,C  13,C  45)          111.6653         0.360276   
    171. A(N  12,C  13,H  61)          104.6957         0.327086   
    172. A(C  14,C  13,H  61)          103.6719         0.320440   
    173. A(N  12,C  13,C  14)          113.5673         0.367531   
    174. A(C  45,C  13,H  61)          108.7234         0.320884   
    175. A(N  12,C  13,C  45)          113.6511         0.368065   
    176. A(C  13,C  14,N  15)          115.6458         0.393979   
    177. A(N  15,C  14,O  44)          123.4623         0.468791   
    178. A(C  13,C  14,O  44)          120.8284         0.426174   
    179. A(C  14,N  15,H  62)          116.6082         0.359259   
    180. A(C  16,N  15,H  62)          119.9248         0.340319   
    181. A(C  14,N  15,C  16)          123.1795         0.408451   
    182. A(H  63,C  16,H  64)          107.8455         0.287838   
    183. A(C  17,C  16,H  64)          110.2012         0.320296   
    184. A(N  15,C  16,H  63)          109.9576         0.331806   
    185. A(C  17,C  16,H  63)          106.2596         0.319856   
    186. A(N  15,C  16,C  17)          115.1657         0.371441   
    187. A(N  15,C  16,H  64)          107.2175         0.332269   
    188. A(O  43,C  17,H  65)          106.2733         0.334919   
    189. A(C  18,C  17,H  65)          107.4806         0.315053   
    190. A(C  16,C  17,H  65)          108.9836         0.319349   
    191. A(C  16,C  17,C  18)          116.7193         0.352531   
    192. A(C  18,C  17,O  43)          108.3175         0.370344   
    193. A(C  16,C  17,O  43)          108.5849         0.375691   
    194. A(C  19,C  18,H  66)          107.7573         0.323022   
    195. A(C  17,C  18,H  66)          102.7796         0.314883   
    196. A(C  17,C  18,C  32)          110.1158         0.351487   
    197. A(C  17,C  18,C  19)          115.9691         0.356935   
    198. A(C  19,C  18,C  32)          114.7415         0.360946   
    199. A(C  32,C  18,H  66)          104.0102         0.318264   
    200. A(C  18,C  19,N  20)          114.3147         0.395287   
    201. A(N  20,C  19,O  31)          120.7934         0.464766   
    202. A(C  18,C  19,O  31)          124.8640         0.429560   
    203. A(C  19,N  20,H  67)          120.2135         0.356933   
    204. A(C  19,N  20,C  21)          121.3929         0.401442   
    205. A(C  21,N  20,H  67)          118.3688         0.336710   
    206. A(C  27,C  21,H  68)          110.6869         0.323206   
    207. A(C  22,C  21,H  68)          108.4163         0.319493   
    208. A(N  20,C  21,H  68)          105.8310         0.328487   
    209. A(N  20,C  21,C  22)          110.3170         0.367012   
    210. A(C  22,C  21,C  27)          111.1747         0.360881   
    211. A(N  20,C  21,C  27)          110.2658         0.371489   
    212. A(C  21,C  22,N  23)          114.1065         0.391684   
    213. A(C  21,C  22,O  26)          122.4935         0.424328   
    214. A(N  23,C  22,O  26)          123.3947         0.468332   
    215. A(C  22,N  23,C  24)          121.2943         0.405980   
    216. A(C  24,N  23,H  69)          117.9758         0.337108   
    217. A(C  22,N  23,H  69)          120.4181         0.357007   
    218. A(C  25,C  24,H  70)          109.2257         0.319314   
    219. A(N  23,C  24,H  70)          108.4680         0.330061   
    220. A(C   7,C  24,H  70)          111.2025         0.322298   
    221. A(N  23,C  24,C  25)          110.1593         0.369363   
    222. A(C   7,C  24,N  23)          108.2094         0.372995   
    223. A(C   7,C  24,C  25)          109.5607         0.360334   
    224. A(H  71,C  25,H  73)          109.2858         0.288518   
    225. A(C  24,C  25,H  73)          109.5686         0.320103   
    226. A(H  71,C  25,H  72)          108.4964         0.288435   
    227. A(C  24,C  25,H  72)          112.3485         0.320007   
    228. A(C  24,C  25,H  71)          108.5979         0.320255   
    229. A(H  72,C  25,H  73)          108.4992         0.288304   
    230. A(C  28,C  27,H  75)          109.2599         0.320239   
    231. A(C  21,C  27,C  28)          114.5018         0.362605   
    232. A(H  74,C  27,H  75)          107.8455         0.286571   
    233. A(C  21,C  27,H  75)          107.9867         0.322483   
    234. A(C  28,C  27,H  74)          108.7430         0.320521   
    235. A(C  21,C  27,H  74)          108.3083         0.322768   
    236. A(C  29,C  28,C  30)          110.9186         0.362154   
    237. A(C  27,C  28,C  30)          112.3565         0.361013   
    238. A(C  27,C  28,C  29)          109.5930         0.361112   
    239. A(C  30,C  28,H  76)          108.5317         0.321262   
    240. A(C  29,C  28,H  76)          107.8503         0.321346   
    241. A(C  27,C  28,H  76)          107.4212         0.320376   
    242. A(C  28,C  29,H  79)          110.8166         0.321552   
    243. A(H  78,C  29,H  79)          107.6331         0.287310   
    244. A(H  77,C  29,H  79)          107.8912         0.287258   
    245. A(H  77,C  29,H  78)          107.9496         0.287655   
    246. A(C  28,C  29,H  78)          111.0711         0.322017   
    247. A(C  28,C  29,H  77)          111.3252         0.321957   
    248. A(H  81,C  30,H  82)          107.6474         0.287307   
    249. A(H  80,C  30,H  82)          107.1745         0.287865   
    250. A(C  28,C  30,H  82)          110.6751         0.321927   
    251. A(H  80,C  30,H  81)          107.6421         0.287476   
    252. A(C  28,C  30,H  81)          110.9897         0.321471   
    253. A(C  28,C  30,H  80)          112.4955         0.322126   
    254. A(C  33,C  32,O  42)          124.1188         0.440623   
    255. A(C  18,C  32,O  42)          118.0783         0.425736   
    256. A(C  18,C  32,C  33)          117.7963         0.367194   
    257. A(C  32,C  33,C  34)          116.1144         0.373294   
    258. A(C  34,C  33,H  84)          112.2099         0.322400   
    259. A(H  83,C  33,H  84)          105.1580         0.286033   
    260. A(C  32,C  33,H  84)          106.7609         0.327490   
    261. A(C  34,C  33,H  83)          110.5827         0.323875   
    262. A(C  32,C  33,H  83)          105.2252         0.328997   
    263. A(C  33,C  34,C  35)          112.9376         0.363366   
    264. A(H  85,C  34,H  86)          106.5002         0.287277   
    265. A(C  35,C  34,H  86)          109.1906         0.320616   
    266. A(C  33,C  34,H  86)          107.4852         0.323875   
    267. A(C  35,C  34,H  85)          110.2290         0.320614   
    268. A(C  33,C  34,H  85)          110.2511         0.323874   
    269. A(C  34,C  35,C  36)          113.7283         0.358493   
    270. A(H  87,C  35,H  88)          105.8787         0.286600   
    271. A(C  36,C  35,H  88)          109.9753         0.319688   
    272. A(C  34,C  35,H  88)          107.7806         0.320599   
    273. A(C  36,C  35,H  87)          109.3373         0.318931   
    274. A(C  34,C  35,H  87)          109.8380         0.319840   
    275. A(C  35,C  36,C  37)          113.8326         0.358889   
    276. A(H  89,C  36,H  90)          106.0629         0.286679   
    277. A(C  37,C  36,H  90)          109.1535         0.320427   
    278. A(C  35,C  36,H  90)          108.8006         0.319178   
    279. A(C  37,C  36,H  89)          108.7277         0.320783   
    280. A(C  35,C  36,H  89)          109.9722         0.319533   
    281. A(C  36,C  37,C  38)          113.7708         0.362106   
    282. A(H  91,C  37,H  92)          105.5024         0.286587   
    283. A(C  38,C  37,H  92)          110.0460         0.321787   
    284. A(C  36,C  37,H  92)          109.5721         0.320293   
    285. A(C  38,C  37,H  91)          107.8504         0.322307   
    286. A(C  36,C  37,H  91)          109.7589         0.320810   
    287. A(C  37,C  38,C  39)          112.9463         0.363952   
    288. A(H  93,C  38,H  94)          106.0016         0.286538   
    289. A(C  39,C  38,H  94)          109.0517         0.322248   
    290. A(C  37,C  38,H  94)          108.2224         0.322179   
    291. A(C  39,C  38,H  93)          110.0406         0.321926   
    292. A(C  37,C  38,H  93)          110.3158         0.321857   
    293. A(C  38,C  39,C  40)          114.1849         0.363861   
    294. A(H  95,C  39,H  96)          105.8906         0.285896   
    295. A(C  40,C  39,H  96)          109.6476         0.321621   
    296. A(C  38,C  39,H  96)          109.8006         0.321767   
    297. A(C  40,C  39,H  95)          108.8626         0.321504   
    298. A(C  38,C  39,H  95)          108.1089         0.321649   
    299. A(C  39,C  40,C  41)          112.9275         0.363861   
    300. A(H  97,C  40,H  98)          106.2898         0.286729   
    301. A(C  41,C  40,H  98)          108.9337         0.322353   
    302. A(C  39,C  40,H  98)          109.3601         0.322208   
    303. A(C  41,C  40,H  97)          109.7162         0.322045   
    304. A(C  39,C  40,H  97)          109.3950         0.321900   
    305. A(H 100,C  41,H 101)          107.4377         0.287247   
    306. A(H  99,C  41,H 101)          107.6378         0.287476   
    307. A(C  40,C  41,H 101)          110.6209         0.322502   
    308. A(H  99,C  41,H 100)          107.9752         0.287479   
    309. A(C  40,C  41,H 100)          111.4518         0.322506   
    310. A(C  40,C  41,H  99)          111.5356         0.322776   
    311. A(C  17,O  43,H 102)          104.5409         0.350585   
    312. A(C  13,C  45,C  46)          112.4572         0.362752   
    313. A(C  46,C  45,H 104)          110.8108         0.323296   
    314. A(C  13,C  45,H 104)          108.6606         0.321621   
    315. A(C  46,C  45,H 103)          110.9827         0.323246   
    316. A(C  13,C  45,H 103)          106.7087         0.321572   
    317. A(H 103,C  45,H 104)          106.9808         0.288051   
    318. A(H 106,C  46,H 107)          107.6209         0.287481   
    319. A(H 105,C  46,H 107)          107.4981         0.287762   
    320. A(C  45,C  46,H 107)          111.7419         0.323005   
    321. A(H 105,C  46,H 106)          107.7679         0.287643   
    322. A(C  45,C  46,H 106)          111.3310         0.322866   
    323. A(C  45,C  46,H 105)          110.6939         0.323197   
    324. A(C  50,C  48,H 108)          107.7983         0.321796   
    325. A(C  49,C  48,H 108)          109.3067         0.322347   
    326. A(C  10,C  48,H 108)          104.7437         0.319646   
    327. A(C  49,C  48,C  50)          111.7677         0.362750   
    328. A(C  10,C  48,C  50)          111.9730         0.359582   
    329. A(C  10,C  48,C  49)          110.9340         0.360222   
    330. A(H 110,C  49,H 111)          107.7179         0.287490   
    331. A(H 109,C  49,H 111)          108.1119         0.287777   
    332. A(C  48,C  49,H 111)          110.7499         0.322557   
    333. A(H 109,C  49,H 110)          107.6823         0.287472   
    334. A(C  48,C  49,H 110)          111.1806         0.322199   
    335. A(C  48,C  49,H 109)          111.2477         0.322536   
    336. A(H 113,C  50,H 114)          106.6909         0.287249   
    337. A(H 112,C  50,H 114)          108.6663         0.287137   
    338. A(C  48,C  50,H 114)          112.1597         0.321283   
    339. A(H 112,C  50,H 113)          107.2114         0.287826   
    340. A(C  48,C  50,H 113)          110.6529         0.322090   
    341. A(C  48,C  50,H 112)          111.2307         0.321958   
    342. D(H  51,C   2,C   1,N   9)   -138.9949         0.010572   
    343. D(C   3,C   2,C   1,N   9)     99.8622         0.010572   
    344. D(N   6,C   2,C   1,N   9)    -18.6615         0.010572   
    345. D(N   6,C   2,C   1,O   0)    164.0955         0.010572   
    346. D(C   3,C   2,C   1,O   0)    -77.3808         0.010572   
    347. D(H  51,C   2,C   1,O   0)     43.7621         0.010572   
    348. D(C   4,C   3,C   2,N   6)    -23.4898         0.010040   
    349. D(H  53,C   3,C   2,H  51)   -149.0542         0.010040   
    350. D(H  53,C   3,C   2,C   1)    -31.5917         0.010040   
    351. D(C   4,C   3,C   2,H  51)     93.0952         0.010040   
    352. D(H  53,C   3,C   2,N   6)     94.3608         0.010040   
    353. D(H  52,C   3,C   2,H  51)    -30.1298         0.010040   
    354. D(C   4,C   3,C   2,C   1)   -149.4423         0.010040   
    355. D(H  52,C   3,C   2,C   1)     87.3327         0.010040   
    356. D(H  52,C   3,C   2,N   6)   -146.7148         0.010040   
    357. D(H  55,C   4,C   3,H  53)    162.9247         0.010857   
    358. D(H  55,C   4,C   3,H  52)     41.7659         0.010857   
    359. D(H  54,C   4,C   3,H  52)    -79.7543         0.010857   
    360. D(H  55,C   4,C   3,C   2)    -79.6226         0.010857   
    361. D(H  54,C   4,C   3,H  53)     41.4045         0.010857   
    362. D(C   5,C   4,C   3,C   2)     37.3236         0.010857   
    363. D(H  54,C   4,C   3,C   2)    158.8572         0.010857   
    364. D(C   5,C   4,C   3,H  53)    -80.1290         0.010857   
    365. D(C   5,C   4,C   3,H  52)    158.7121         0.010857   
    366. D(N   6,C   5,C   4,C   3)    -36.5140         0.011203   
    367. D(H  57,C   5,C   4,C   3)   -157.4770         0.011203   
    368. D(H  56,C   5,C   4,H  55)   -161.6666         0.011203   
    369. D(H  56,C   5,C   4,C   3)     80.7441         0.011203   
    370. D(H  57,C   5,C   4,H  54)     80.5660         0.011203   
    371. D(H  56,C   5,C   4,H  54)    -41.2129         0.011203   
    372. D(H  57,C   5,C   4,H  55)    -39.8877         0.011203   
    373. D(N   6,C   5,C   4,H  54)   -158.4710         0.011203   
    374. D(N   6,C   5,C   4,H  55)     81.0753         0.011203   
    375. D(C   5,N   6,C   2,C   3)      0.3808         0.013612   
    376. D(C   7,N   6,C   5,H  57)    -19.3891         0.014248   
    377. D(C   7,N   6,C   5,H  56)    100.2880         0.014248   
    378. D(C   7,N   6,C   5,C   4)   -141.6229         0.014248   
    379. D(C   2,N   6,C   5,H  57)    145.0623         0.014248   
    380. D(C   2,N   6,C   5,H  56)    -95.2606         0.014248   
    381. D(C   7,N   6,C   2,H  51)     47.4234         0.013612   
    382. D(C   2,N   6,C   5,C   4)     22.8285         0.014248   
    383. D(C   7,N   6,C   2,C   3)    166.2680         0.013612   
    384. D(C   5,N   6,C   2,C   1)    122.7531         0.013612   
    385. D(C   7,N   6,C   2,C   1)    -71.3598         0.013612   
    386. D(C   5,N   6,C   2,H  51)   -118.4637         0.013612   
    387. D(C  24,C   7,N   6,C   5)      4.7121         0.031178   
    388. D(C  24,C   7,N   6,C   2)   -158.6603         0.031178   
    389. D(O   8,C   7,N   6,C   5)   -179.0571         0.031178   
    390. D(O   8,C   7,N   6,C   2)     17.5706         0.031178   
    391. D(H  58,N   9,C   1,O   0)   -176.1932         0.031192   
    392. D(C  10,N   9,C   1,C   2)    177.4958         0.031192   
    393. D(H  58,N   9,C   1,C   2)      6.7058         0.031192   
    394. D(C  10,N   9,C   1,O   0)     -5.4032         0.031192   
    395. D(H  59,C  10,N   9,C   1)     17.6809         0.017010   
    396. D(C  48,C  10,N   9,H  58)    -53.1321         0.017010   
    397. D(C  48,C  10,N   9,C   1)    136.2272         0.017010   
    398. D(C  11,C  10,N   9,C   1)    -97.5639         0.017010   
    399. D(H  59,C  10,N   9,H  58)   -171.6784         0.017010   
    400. D(C  11,C  10,N   9,H  58)     73.0768         0.017010   
    401. D(O  47,C  11,C  10,N   9)   -176.1035         0.009470   
    402. D(N  12,C  11,C  10,H  59)   -112.9718         0.009470   
    403. D(N  12,C  11,C  10,C  48)    129.3046         0.009470   
    404. D(N  12,C  11,C  10,N   9)      2.2318         0.009470   
    405. D(O  47,C  11,C  10,H  59)     68.6929         0.009470   
    406. D(O  47,C  11,C  10,C  48)    -49.0307         0.009470   
    407. D(H  60,N  12,C  11,O  47)   -172.9503         0.030791   
    408. D(H  60,N  12,C  11,C  10)      8.7956         0.030791   
    409. D(C  13,N  12,C  11,O  47)     -8.0361         0.030791   
    410. D(C  13,N  12,C  11,C  10)    173.7099         0.030791   
    411. D(H  61,C  13,N  12,C  11)   -176.9208         0.015507   
    412. D(H  61,C  13,N  12,H  60)    -11.6398         0.015507   
    413. D(C  45,C  13,N  12,H  60)    106.8594         0.015507   
    414. D(C  45,C  13,N  12,C  11)    -58.4216         0.015507   
    415. D(C  14,C  13,N  12,C  11)     70.6840         0.015507   
    416. D(C  14,C  13,N  12,H  60)   -124.0350         0.015507   
    417. D(O  44,C  14,C  13,C  45)    -39.0373         0.009888   
    418. D(O  44,C  14,C  13,N  12)   -169.1448         0.009888   
    419. D(N  15,C  14,C  13,H  61)    -99.3563         0.009888   
    420. D(N  15,C  14,C  13,C  45)    143.7649         0.009888   
    421. D(O  44,C  14,C  13,H  61)     77.8415         0.009888   
    422. D(N  15,C  14,C  13,N  12)     13.6574         0.009888   
    423. D(H  62,N  15,C  14,O  44)   -176.1167         0.032971   
    424. D(H  62,N  15,C  14,C  13)      0.9989         0.032971   
    425. D(C  16,N  15,C  14,O  44)     -2.2924         0.032971   
    426. D(C  16,N  15,C  14,C  13)    174.8231         0.032971   
    427. D(H  64,C  16,N  15,H  62)   -169.2945         0.018214   
    428. D(H  64,C  16,N  15,C  14)     17.0773         0.018214   
    429. D(H  63,C  16,N  15,H  62)    -52.3031         0.018214   
    430. D(H  63,C  16,N  15,C  14)    134.0687         0.018214   
    431. D(C  17,C  16,N  15,C  14)   -105.9492         0.018214   
    432. D(C  17,C  16,N  15,H  62)     67.6790         0.018214   
    433. D(H  65,C  17,C  16,H  64)   -176.8083         0.010201   
    434. D(H  65,C  17,C  16,H  63)     66.6110         0.010201   
    435. D(H  65,C  17,C  16,N  15)    -55.3851         0.010201   
    436. D(O  43,C  17,C  16,H  64)     67.8313         0.010201   
    437. D(O  43,C  17,C  16,H  63)    -48.7494         0.010201   
    438. D(O  43,C  17,C  16,N  15)   -170.7455         0.010201   
    439. D(C  18,C  17,C  16,H  64)    -54.8841         0.010201   
    440. D(C  18,C  17,C  16,H  63)   -171.4648         0.010201   
    441. D(C  18,C  17,C  16,N  15)     66.5391         0.010201   
    442. D(H  66,C  18,C  17,H  65)    -77.8092         0.008766   
    443. D(H  66,C  18,C  17,O  43)     36.6299         0.008766   
    444. D(H  66,C  18,C  17,C  16)    159.4838         0.008766   
    445. D(C  32,C  18,C  17,O  43)    -73.7013         0.008766   
    446. D(C  32,C  18,C  17,C  16)     49.1526         0.008766   
    447. D(C  32,C  18,C  17,H  65)    171.8596         0.008766   
    448. D(C  19,C  18,C  17,H  65)     39.4703         0.008766   
    449. D(C  19,C  18,C  17,O  43)    153.9094         0.008766   
    450. D(C  19,C  18,C  17,C  16)    -83.2367         0.008766   
    451. D(O  31,C  19,C  18,H  66)    176.7737         0.010956   
    452. D(O  31,C  19,C  18,C  32)    -67.9188         0.010956   
    453. D(O  31,C  19,C  18,C  17)     62.2964         0.010956   
    454. D(N  20,C  19,C  18,H  66)     -5.1421         0.010956   
    455. D(N  20,C  19,C  18,C  17)   -119.6193         0.010956   
    456. D(N  20,C  19,C  18,C  32)    110.1654         0.010956   
    457. D(H  67,N  20,C  19,O  31)   -174.2690         0.030494   
    458. D(H  67,N  20,C  19,C  18)      7.5608         0.030494   
    459. D(C  21,N  20,C  19,O  31)      3.8910         0.030494   
    460. D(C  21,N  20,C  19,C  18)   -174.2792         0.030494   
    461. D(H  68,C  21,N  20,H  67)   -147.7032         0.016073   
    462. D(H  68,C  21,N  20,C  19)     34.1039         0.016073   
    463. D(C  27,C  21,N  20,H  67)    -27.9597         0.016073   
    464. D(C  27,C  21,N  20,C  19)    153.8474         0.016073   
    465. D(C  22,C  21,N  20,H  67)     95.2224         0.016073   
    466. D(C  22,C  21,N  20,C  19)    -82.9705         0.016073   
    467. D(N  23,C  22,C  21,C  27)   -145.3779         0.009425   
    468. D(N  23,C  22,C  21,N  20)     91.9711         0.009425   
    469. D(O  26,C  22,C  21,H  68)    155.6978         0.009425   
    470. D(O  26,C  22,C  21,C  27)     33.8091         0.009425   
    471. D(O  26,C  22,C  21,N  20)    -88.8419         0.009425   
    472. D(N  23,C  22,C  21,H  68)    -23.4892         0.009425   
    473. D(H  69,N  23,C  22,O  26)    170.0762         0.032458   
    474. D(H  69,N  23,C  22,C  21)    -10.7452         0.032458   
    475. D(C  24,N  23,C  22,O  26)     -3.3814         0.032458   
    476. D(C  24,N  23,C  22,C  21)    175.7972         0.032458   
    477. D(H  70,C  24,N  23,H  69)   -128.6952         0.017240   
    478. D(H  70,C  24,N  23,C  22)     44.9171         0.017240   
    479. D(C  25,C  24,N  23,H  69)    111.8041         0.017240   
    480. D(C  25,C  24,N  23,C  22)    -74.5836         0.017240   
    481. D(C   7,C  24,N  23,H  69)     -7.9467         0.017240   
    482. D(C   7,C  24,N  23,C  22)    165.6657         0.017240   
    483. D(H  70,C  24,C   7,O   8)    138.4191         0.010515   
    484. D(H  70,C  24,C   7,N   6)    -45.3340         0.010515   
    485. D(C  25,C  24,C   7,O   8)   -100.7394         0.010515   
    486. D(C  25,C  24,C   7,N   6)     75.5076         0.010515   
    487. D(N  23,C  24,C   7,O   8)     19.3868         0.010515   
    488. D(N  23,C  24,C   7,N   6)   -164.3662         0.010515   
    489. D(H  73,C  25,C  24,H  70)   -179.2747         0.010096   
    490. D(H  73,C  25,C  24,N  23)    -60.2355         0.010096   
    491. D(H  73,C  25,C  24,C   7)     58.6929         0.010096   
    492. D(H  72,C  25,C  24,H  70)     60.0463         0.010096   
    493. D(H  72,C  25,C  24,N  23)    179.0855         0.010096   
    494. D(H  72,C  25,C  24,C   7)    -61.9861         0.010096   
    495. D(H  71,C  25,C  24,H  70)    -59.9701         0.010096   
    496. D(H  71,C  25,C  24,N  23)     59.0691         0.010096   
    497. D(H  71,C  25,C  24,C   7)    177.9975         0.010096   
    498. D(H  75,C  27,C  21,H  68)     63.3492         0.011471   
    499. D(H  75,C  27,C  21,C  22)   -176.0925         0.011471   
    500. D(H  75,C  27,C  21,N  20)    -53.4119         0.011471   
    501. D(H  74,C  27,C  21,H  68)    179.8878         0.011471   
    502. D(H  74,C  27,C  21,C  22)    -59.5538         0.011471   
    503. D(H  74,C  27,C  21,N  20)     63.1268         0.011471   
    504. D(C  28,C  27,C  21,H  68)    -58.5950         0.011471   
    505. D(C  28,C  27,C  21,C  22)     61.9633         0.011471   
    506. D(C  28,C  27,C  21,N  20)   -175.3561         0.011471   
    507. D(H  76,C  28,C  27,H  75)    178.5897         0.010586   
    508. D(H  76,C  28,C  27,H  74)     61.1149         0.010586   
    509. D(H  76,C  28,C  27,C  21)    -60.1636         0.010586   
    510. D(C  30,C  28,C  27,H  75)    -62.1197         0.010586   
    511. D(C  30,C  28,C  27,H  74)   -179.5946         0.010586   
    512. D(C  30,C  28,C  27,C  21)     59.1270         0.010586   
    513. D(C  29,C  28,C  27,H  75)     61.6724         0.010586   
    514. D(C  29,C  28,C  27,H  74)    -55.8024         0.010586   
    515. D(C  29,C  28,C  27,C  21)   -177.0809         0.010586   
    516. D(H  79,C  29,C  28,C  30)     61.5380         0.010959   
    517. D(H  79,C  29,C  28,C  27)    -63.0931         0.010959   
    518. D(H  78,C  29,C  28,H  76)     60.6704         0.010959   
    519. D(H  78,C  29,C  28,C  30)    -58.0514         0.010959   
    520. D(H  78,C  29,C  28,C  27)    177.3174         0.010959   
    521. D(H  77,C  29,C  28,H  76)    -59.6577         0.010959   
    522. D(H  77,C  29,C  28,C  30)   -178.3795         0.010959   
    523. D(H  79,C  29,C  28,H  76)   -179.7402         0.010959   
    524. D(H  77,C  29,C  28,C  27)     56.9893         0.010959   
    525. D(H  82,C  30,C  28,H  76)    -64.4089         0.010926   
    526. D(H  82,C  30,C  28,C  29)     53.9007         0.010926   
    527. D(H  82,C  30,C  28,C  27)    176.9515         0.010926   
    528. D(H  81,C  30,C  28,H  76)    176.1296         0.010926   
    529. D(H  81,C  30,C  28,C  29)    -65.5608         0.010926   
    530. D(H  81,C  30,C  28,C  27)     57.4901         0.010926   
    531. D(H  80,C  30,C  28,H  76)     55.4508         0.010926   
    532. D(H  80,C  30,C  28,C  29)    173.7604         0.010926   
    533. D(H  80,C  30,C  28,C  27)    -63.1887         0.010926   
    534. D(O  42,C  32,C  18,H  66)    -64.9896         0.009262   
    535. D(O  42,C  32,C  18,C  19)    177.5528         0.009262   
    536. D(O  42,C  32,C  18,C  17)     44.5332         0.009262   
    537. D(C  33,C  32,C  18,H  66)    114.1223         0.009262   
    538. D(C  33,C  32,C  18,C  19)     -3.3353         0.009262   
    539. D(C  33,C  32,C  18,C  17)   -136.3549         0.009262   
    540. D(H  84,C  33,C  32,O  42)    119.1260         0.013278   
    541. D(H  84,C  33,C  32,C  18)    -59.9275         0.013278   
    542. D(H  83,C  33,C  32,O  42)   -129.4673         0.013278   
    543. D(H  83,C  33,C  32,C  18)     51.4792         0.013278   
    544. D(C  34,C  33,C  32,O  42)     -6.8390         0.013278   
    545. D(C  34,C  33,C  32,C  18)    174.1075         0.013278   
    546. D(H  86,C  34,C  33,H  84)    179.7654         0.011817   
    547. D(H  86,C  34,C  33,H  83)     62.6990         0.011817   
    548. D(H  86,C  34,C  33,C  32)    -57.0697         0.011817   
    549. D(H  85,C  34,C  33,H  84)    -64.5371         0.011817   
    550. D(H  85,C  34,C  33,H  83)    178.3964         0.011817   
    551. D(H  85,C  34,C  33,C  32)     58.6277         0.011817   
    552. D(C  35,C  34,C  33,H  84)     59.2655         0.011817   
    553. D(C  35,C  34,C  33,H  83)    -57.8010         0.011817   
    554. D(C  35,C  34,C  33,C  32)   -177.5697         0.011817   
    555. D(H  88,C  35,C  34,H  86)     55.9523         0.010519   
    556. D(H  88,C  35,C  34,H  85)    -60.7117         0.010519   
    557. D(H  88,C  35,C  34,C  33)    175.4735         0.010519   
    558. D(H  87,C  35,C  34,H  86)    170.8594         0.010519   
    559. D(H  87,C  35,C  34,H  85)     54.1954         0.010519   
    560. D(H  87,C  35,C  34,C  33)    -69.6193         0.010519   
    561. D(C  36,C  35,C  34,H  86)    -66.2453         0.010519   
    562. D(C  36,C  35,C  34,H  85)    177.0907         0.010519   
    563. D(C  36,C  35,C  34,C  33)     53.2759         0.010519   
    564. D(H  90,C  36,C  35,H  87)    151.8940         0.010184   
    565. D(H  90,C  36,C  35,C  34)     28.7247         0.010184   
    566. D(H  89,C  36,C  35,H  88)     23.5147         0.010184   
    567. D(H  89,C  36,C  35,H  87)    -92.3390         0.010184   
    568. D(H  89,C  36,C  35,C  34)    144.4918         0.010184   
    569. D(C  37,C  36,C  35,H  88)    145.7906         0.010184   
    570. D(C  37,C  36,C  35,H  87)     29.9369         0.010184   
    571. D(H  90,C  36,C  35,H  88)    -92.2523         0.010184   
    572. D(C  37,C  36,C  35,C  34)    -93.2324         0.010184   
    573. D(H  92,C  37,C  36,H  90)    164.3590         0.010647   
    574. D(H  92,C  37,C  36,H  89)     49.0796         0.010647   
    575. D(H  92,C  37,C  36,C  35)    -73.8792         0.010647   
    576. D(H  91,C  37,C  36,H  90)    -80.2287         0.010647   
    577. D(H  91,C  37,C  36,H  89)    164.4919         0.010647   
    578. D(H  91,C  37,C  36,C  35)     41.5331         0.010647   
    579. D(C  38,C  37,C  36,H  90)     40.7095         0.010647   
    580. D(C  38,C  37,C  36,H  89)    -74.5699         0.010647   
    581. D(C  38,C  37,C  36,C  35)    162.4713         0.010647   
    582. D(H  94,C  38,C  37,H  92)   -174.3695         0.011232   
    583. D(H  94,C  38,C  37,H  91)     71.0224         0.011232   
    584. D(H  94,C  38,C  37,C  36)    -50.9777         0.011232   
    585. D(H  93,C  38,C  37,H  92)    -58.8159         0.011232   
    586. D(H  93,C  38,C  37,H  91)   -173.4240         0.011232   
    587. D(H  93,C  38,C  37,C  36)     64.5759         0.011232   
    588. D(C  39,C  38,C  37,H  92)     64.7956         0.011232   
    589. D(C  39,C  38,C  37,H  91)    -49.8125         0.011232   
    590. D(C  39,C  38,C  37,C  36)   -171.8126         0.011232   
    591. D(H  95,C  39,C  38,H  94)    -65.7188         0.011259   
    592. D(H  95,C  39,C  38,H  93)    178.4064         0.011259   
    593. D(H  95,C  39,C  38,C  37)     54.6432         0.011259   
    594. D(C  40,C  39,C  38,H  94)     55.5962         0.011259   
    595. D(C  40,C  39,C  38,H  93)    -60.2785         0.011259   
    596. D(C  40,C  39,C  38,C  37)    175.9582         0.011259   
    597. D(H  96,C  39,C  38,H  94)    179.1994         0.011259   
    598. D(H  96,C  39,C  38,H  93)     63.3247         0.011259   
    599. D(H  96,C  39,C  38,C  37)    -60.4386         0.011259   
    600. D(H  98,C  40,C  39,H  95)     62.0349         0.011201   
    601. D(H  98,C  40,C  39,C  38)    -58.8625         0.011201   
    602. D(H  97,C  40,C  39,H  96)    -66.5145         0.011201   
    603. D(H  97,C  40,C  39,H  95)    178.0685         0.011201   
    604. D(H  97,C  40,C  39,C  38)     57.1711         0.011201   
    605. D(C  41,C  40,C  39,H  96)     55.9822         0.011201   
    606. D(C  41,C  40,C  39,H  95)    -59.4348         0.011201   
    607. D(H  98,C  40,C  39,H  96)    177.4519         0.011201   
    608. D(C  41,C  40,C  39,C  38)    179.6678         0.011201   
    609. D(H 101,C  41,C  40,H  98)    -63.1527         0.011259   
    610. D(H 101,C  41,C  40,H  97)   -179.1252         0.011259   
    611. D(H 101,C  41,C  40,C  39)     58.5578         0.011259   
    612. D(H 100,C  41,C  40,H  98)    177.3836         0.011259   
    613. D(H 100,C  41,C  40,H  97)     61.4110         0.011259   
    614. D(H 100,C  41,C  40,C  39)    -60.9060         0.011259   
    615. D(H  99,C  41,C  40,H  98)     56.6182         0.011259   
    616. D(H  99,C  41,C  40,H  97)    -59.3544         0.011259   
    617. D(H  99,C  41,C  40,C  39)    178.3286         0.011259   
    618. D(H 102,O  43,C  17,H  65)    170.6456         0.019230   
    619. D(H 102,O  43,C  17,C  18)     55.4151         0.019230   
    620. D(H 102,O  43,C  17,C  16)    -72.2461         0.019230   
    621. D(H 104,C  45,C  13,H  61)   -179.0916         0.010719   
    622. D(H 104,C  45,C  13,C  14)    -65.3144         0.010719   
    623. D(H 104,C  45,C  13,N  12)     64.7496         0.010719   
    624. D(H 103,C  45,C  13,H  61)    -64.0535         0.010719   
    625. D(H 103,C  45,C  13,C  14)     49.7236         0.010719   
    626. D(H 103,C  45,C  13,N  12)    179.7877         0.010719   
    627. D(C  46,C  45,C  13,H  61)     57.8592         0.010719   
    628. D(C  46,C  45,C  13,C  14)    171.6363         0.010719   
    629. D(C  46,C  45,C  13,N  12)    -58.2996         0.010719   
    630. D(H 107,C  46,C  45,H 104)    -60.8338         0.011378   
    631. D(H 107,C  46,C  45,H 103)   -179.5448         0.011378   
    632. D(H 107,C  46,C  45,C  13)     61.0018         0.011378   
    633. D(H 106,C  46,C  45,H 104)    178.7949         0.011378   
    634. D(H 106,C  46,C  45,H 103)     60.0839         0.011378   
    635. D(H 106,C  46,C  45,C  13)    -59.3695         0.011378   
    636. D(H 105,C  46,C  45,H 104)     58.9462         0.011378   
    637. D(H 105,C  46,C  45,H 103)    -59.7648         0.011378   
    638. D(H 105,C  46,C  45,C  13)   -179.2182         0.011378   
    639. D(H 108,C  48,C  10,H  59)    -63.4218         0.010130   
    640. D(H 108,C  48,C  10,C  11)     52.1553         0.010130   
    641. D(H 108,C  48,C  10,N   9)   -179.8608         0.010130   
    642. D(C  50,C  48,C  10,H  59)   -179.9739         0.010130   
    643. D(C  50,C  48,C  10,C  11)    -64.3968         0.010130   
    644. D(C  50,C  48,C  10,N   9)     63.5871         0.010130   
    645. D(C  49,C  48,C  10,H  59)     54.3994         0.010130   
    646. D(C  49,C  48,C  10,C  11)    169.9765         0.010130   
    647. D(C  49,C  48,C  10,N   9)    -62.0396         0.010130   
    648. D(H 111,C  49,C  48,C  50)     58.1360         0.011151   
    649. D(H 111,C  49,C  48,C  10)   -176.1226         0.011151   
    650. D(H 110,C  49,C  48,H 108)    179.1607         0.011151   
    651. D(H 110,C  49,C  48,C  50)    -61.5880         0.011151   
    652. D(H 110,C  49,C  48,C  10)     64.1535         0.011151   
    653. D(H 109,C  49,C  48,H 108)     59.1495         0.011151   
    654. D(H 109,C  49,C  48,C  50)    178.4008         0.011151   
    655. D(H 111,C  49,C  48,H 108)    -61.1153         0.011151   
    656. D(H 109,C  49,C  48,C  10)    -55.8577         0.011151   
    657. D(H 114,C  50,C  48,H 108)   -177.4754         0.010935   
    658. D(H 114,C  50,C  48,C  49)     62.3855         0.010935   
    659. D(H 114,C  50,C  48,C  10)    -62.7825         0.010935   
    660. D(H 113,C  50,C  48,H 108)     63.5171         0.010935   
    661. D(H 113,C  50,C  48,C  49)    -56.6220         0.010935   
    662. D(H 113,C  50,C  48,C  10)    178.2099         0.010935   
    663. D(H 112,C  50,C  48,H 108)    -55.5398         0.010935   
    664. D(H 112,C  50,C  48,C  49)   -175.6789         0.010935   
    665. D(H 112,C  50,C  48,C  10)     59.1530         0.010935   
    -----------------------------------------------------------------

Number of atoms                         .... 115
Number of degrees of freedom            .... 665

         *************************************************************
         *                GEOMETRY OPTIMIZATION CYCLE   1            *
         *************************************************************
---------------------------------
CARTESIAN COORDINATES (ANGSTROEM)
---------------------------------
  O      5.805845   -1.498737   -1.668493
  C      5.298193   -0.980566   -0.677796
  C      5.615392    0.474631   -0.335795
  C      7.010784    0.599138    0.316171
  C      6.878615    1.803447    1.256708
  C      5.456343    1.653738    1.798247
  N      4.711882    1.138964    0.632883
  C      3.445192    1.460915    0.250015
  O      2.923775    0.940770   -0.748168
  N      4.492156   -1.634438    0.203878
  C      4.055932   -3.002709   -0.006226
  C      2.644966   -3.118012   -0.623369
  N      2.025977   -1.942059   -0.928372
  C      0.748043   -1.870952   -1.638982
  C     -0.449623   -2.346475   -0.799511
  N     -0.218001   -2.481901    0.528506
  C     -1.250260   -2.811931    1.480120
  C     -1.715912   -1.644059    2.374384
  C     -2.462877   -0.466794    1.662391
  C     -1.577825    0.588988    1.013266
  N     -1.745166    1.847519    1.513744
  C     -1.067580    2.996725    0.922894
  C      0.373000    3.109658    1.469834
  N      1.303161    2.469470    0.717558
  C      2.714881    2.549485    1.036926
  C      3.272139    3.934756    0.642426
  O      0.645621    3.742213    2.493267
  C     -1.860313    4.272713    1.190457
  C     -1.291368    5.530539    0.513761
  C     -2.126262    6.751622    0.914010
  C     -1.221594    5.391256   -1.011149
  O     -0.788058    0.376347    0.085079
  C     -3.584082   -1.021509    0.751123
  C     -3.732689   -0.426285   -0.612881
  C     -4.752045   -1.090989   -1.526252
  C     -4.802848   -0.459309   -2.928032
  C     -3.428180   -0.383031   -3.624935
  C     -2.693736    0.948695   -3.405258
  C     -1.197962    0.885987   -3.715338
  C     -0.450439    2.154224   -3.304091
  C      1.063058    2.084548   -3.511703
  C      1.780478    3.369609   -3.099063
  O     -4.304341   -1.907874    1.196836
  O     -2.566033   -2.162945    3.392526
  O     -1.552927   -2.532561   -1.320305
  C      0.773403   -2.540525   -3.020713
  C      1.829795   -1.935741   -3.942669
  O      2.136746   -4.226835   -0.781947
  C      4.151644   -3.847295    1.282623
  C      5.599629   -3.943033    1.767148
  C      3.218121   -3.325742    2.380716
  H      5.562882    1.019592   -1.289975
  H      7.793837    0.709183   -0.441298
  H      7.230824   -0.311241    0.893891
  H      7.632540    1.812338    2.053786
  H      6.963060    2.745082    0.693269
  H      5.422891    0.915045    2.617100
  H      5.028943    2.589295    2.170493
  H      4.079366   -1.091195    0.956471
  H      4.742953   -3.418243   -0.759613
  H      2.559348   -1.072244   -0.867637
  H      0.561525   -0.792928   -1.771643
  H      0.713305   -2.244730    0.853875
  H     -0.894950   -3.599074    2.161662
  H     -2.098479   -3.216204    0.912323
  H     -0.840372   -1.216610    2.890987
  H     -3.007337    0.014727    2.492968
  H     -2.328579    1.999062    2.330590
  H     -1.014406    2.791448   -0.156342
  H      1.016066    1.835993   -0.032258
  H      2.835793    2.405557    2.122230
  H      2.713839    4.704684    1.188279
  H      4.337873    4.040235    0.884011
  H      3.142673    4.089414   -0.436230
  H     -1.890709    4.439472    2.279465
  H     -2.895440    4.109727    0.844255
  H     -0.268816    5.679048    0.899337
  H     -2.156952    6.874458    2.006415
  H     -1.711582    7.673143    0.480955
  H     -3.163255    6.651541    0.555377
  H     -0.540802    4.590113   -1.329275
  H     -2.215435    5.172183   -1.433332
  H     -0.862652    6.323623   -1.470085
  H     -2.727186   -0.470134   -1.058516
  H     -3.939430    0.653096   -0.469780
  H     -5.750150   -1.069456   -1.062692
  H     -4.472454   -2.151692   -1.617295
  H     -5.238804    0.553941   -2.867072
  H     -5.501598   -1.051593   -3.538513
  H     -3.545638   -0.547732   -4.707801
  H     -2.796638   -1.209743   -3.257098
  H     -2.808227    1.268656   -2.357530
  H     -3.172652    1.739237   -4.009263
  H     -1.037199    0.683306   -4.788377
  H     -0.769999    0.025305   -3.176130
  H     -0.656102    2.342691   -2.234662
  H     -0.860401    3.023427   -3.848675
  H      1.277707    1.862082   -4.570673
  H      1.473116    1.243707   -2.930060
  H      2.868713    3.284101   -3.229881
  H      1.434012    4.231521   -3.689660
  H      1.588812    3.597442   -2.039282
  H     -3.399598   -2.395956    2.923522
  H     -0.232717   -2.424914   -3.446202
  H      0.943055   -3.617232   -2.886370
  H      1.813477   -2.425823   -4.925929
  H      1.655352   -0.860708   -4.100341
  H      2.843398   -2.051831   -3.532131
  H      3.799490   -4.847377    0.988830
  H      6.256554   -4.344425    0.982496
  H      5.988759   -2.954341    2.055656
  H      5.673974   -4.600830    2.644581
  H      2.170081   -3.332678    2.048733
  H      3.279905   -3.960284    3.275533
  H      3.480830   -2.302968    2.698926

----------------------------
CARTESIAN COORDINATES (A.U.)
----------------------------
  NO LB      ZA    FRAG     MASS         X           Y           Z
   0 O     8.0000    0    15.999   10.971456   -2.832203   -3.152994
   1 C     6.0000    0    12.011   10.012134   -1.853001   -1.280849
   2 C     6.0000    0    12.011   10.611553    0.896923   -0.634561
   3 C     6.0000    0    12.011   13.248462    1.132207    0.597477
   4 C     6.0000    0    12.011   12.998699    3.408021    2.374834
   5 C     6.0000    0    12.011   10.310993    3.125112    3.398194
   6 N     7.0000    0    14.007    8.904167    2.152331    1.195975
   7 C     6.0000    0    12.011    6.510469    2.760730    0.472459
   8 O     8.0000    0    15.999    5.525135    1.777798   -1.413833
   9 N     7.0000    0    14.007    8.488945   -3.088641    0.385273
  10 C     6.0000    0    12.011    7.664601   -5.674298   -0.011766
  11 C     6.0000    0    12.011    4.998261   -5.892189   -1.177997
  12 N     7.0000    0    14.007    3.828542   -3.669959   -1.754369
  13 C     6.0000    0    12.011    1.413596   -3.535587   -3.097227
  14 C     6.0000    0    12.011   -0.849664   -4.434195   -1.510858
  15 N     7.0000    0    14.007   -0.411963   -4.690113    0.998731
  16 C     6.0000    0    12.011   -2.362648   -5.313779    2.797021
  17 C     6.0000    0    12.011   -3.242604   -3.106822    4.486935
  18 C     6.0000    0    12.011   -4.654163   -0.882112    3.141463
  19 C     6.0000    0    12.011   -2.981657    1.113025    1.914795
  20 N     7.0000    0    14.007   -3.297886    3.491304    2.860561
  21 C     6.0000    0    12.011   -2.017435    5.662990    1.744016
  22 C     6.0000    0    12.011    0.704869    5.876402    2.777585
  23 N     7.0000    0    14.007    2.462616    4.666621    1.355989
  24 C     6.0000    0    12.011    5.130381    4.817828    1.959506
  25 C     6.0000    0    12.011    6.183446    7.435611    1.214010
  26 O     8.0000    0    15.999    1.220047    7.071758    4.711592
  27 C     6.0000    0    12.011   -3.515483    8.074258    2.249638
  28 C     6.0000    0    12.011   -2.440333   10.451205    0.970868
  29 C     6.0000    0    12.011   -4.018052   12.758716    1.727228
  30 C     6.0000    0    12.011   -2.308478   10.187998   -1.910795
  31 O     8.0000    0    15.999   -1.489214    0.711192    0.160777
  32 C     6.0000    0    12.011   -6.772934   -1.930372    1.419416
  33 C     6.0000    0    12.011   -7.053760   -0.805563   -1.158178
  34 C     6.0000    0    12.011   -8.980063   -2.061670   -2.884198
  35 C     6.0000    0    12.011   -9.076067   -0.867969   -5.533179
  36 C     6.0000    0    12.011   -6.478322   -0.723823   -6.850135
  37 C     6.0000    0    12.011   -5.090424    1.792774   -6.435005
  38 C     6.0000    0    12.011   -2.263819    1.674274   -7.020972
  39 C     6.0000    0    12.011   -0.851207    4.070893   -6.243827
  40 C     6.0000    0    12.011    2.008889    3.939225   -6.636157
  41 C     6.0000    0    12.011    3.364615    6.367638   -5.856381
  42 O     8.0000    0    15.999   -8.134025   -3.605358    2.261692
  43 O     8.0000    0    15.999   -4.849100   -4.087374    6.410945
  44 O     8.0000    0    15.999   -2.934608   -4.785847   -2.495016
  45 C     6.0000    0    12.011    1.461519   -4.800897   -5.708320
  46 C     6.0000    0    12.011    3.457812   -3.658020   -7.450565
  47 O     8.0000    0    15.999    4.037864   -7.987560   -1.477666
  48 C     6.0000    0    12.011    7.845471   -7.270334    2.423807
  49 C     6.0000    0    12.011   10.581766   -7.451253    3.339426
  50 C     6.0000    0    12.011    6.081367   -6.284742    4.498901
  51 H     1.0000    0     1.008   10.512324    1.926749   -2.437700
  52 H     1.0000    0     1.008   14.728218    1.340161   -0.833932
  53 H     1.0000    0     1.008   13.664277   -0.588160    1.689210
  54 H     1.0000    0     1.008   14.423411    3.424822    3.881093
  55 H     1.0000    0     1.008   13.158276    5.187453    1.310088
  56 H     1.0000    0     1.008   10.247780    1.729184    4.945603
  57 H     1.0000    0     1.008    9.503324    4.893058    4.101638
  58 H     1.0000    0     1.008    7.708884   -2.062059    1.807468
  59 H     1.0000    0     1.008    8.962882   -6.459542   -1.435461
  60 H     1.0000    0     1.008    4.836466   -2.026248   -1.639597
  61 H     1.0000    0     1.008    1.061128   -1.498417   -3.347921
  62 H     1.0000    0     1.008    1.347951   -4.241925    1.613591
  63 H     1.0000    0     1.008   -1.691210   -6.801264    4.084949
  64 H     1.0000    0     1.008   -3.965550   -6.077744    1.724040
  65 H     1.0000    0     1.008   -1.588072   -2.299060    5.463175
  66 H     1.0000    0     1.008   -5.683044    0.027830    4.711026
  67 H     1.0000    0     1.008   -4.400377    3.777679    4.404178
  68 H     1.0000    0     1.008   -1.916950    5.275072   -0.295444
  69 H     1.0000    0     1.008    1.920086    3.469524   -0.060959
  70 H     1.0000    0     1.008    5.358873    4.545844    4.010433
  71 H     1.0000    0     1.008    5.128413    8.890564    2.245521
  72 H     1.0000    0     1.008    8.197392    7.634937    1.670539
  73 H     1.0000    0     1.008    5.938790    7.727873   -0.824355
  74 H     1.0000    0     1.008   -3.572922    8.389386    4.307564
  75 H     1.0000    0     1.008   -5.471589    7.766258    1.595411
  76 H     1.0000    0     1.008   -0.507988   10.731845    1.699500
  77 H     1.0000    0     1.008   -4.076048   12.990843    3.791575
  78 H     1.0000    0     1.008   -3.234420   14.500138    0.908874
  79 H     1.0000    0     1.008   -5.977686   12.569591    1.049511
  80 H     1.0000    0     1.008   -1.021967    8.674057   -2.511966
  81 H     1.0000    0     1.008   -4.186565    9.774010   -2.708604
  82 H     1.0000    0     1.008   -1.630177   11.949916   -2.778059
  83 H     1.0000    0     1.008   -5.153635   -0.888425   -2.000306
  84 H     1.0000    0     1.008   -7.444445    1.234173   -0.887756
  85 H     1.0000    0     1.008  -10.866210   -2.020980   -2.008196
  86 H     1.0000    0     1.008   -8.451714   -4.066109   -3.056245
  87 H     1.0000    0     1.008   -9.899904    1.046797   -5.417982
  88 H     1.0000    0     1.008  -10.396513   -1.987223   -6.686820
  89 H     1.0000    0     1.008   -6.700285   -1.035064   -8.896455
  90 H     1.0000    0     1.008   -5.284880   -2.286083   -6.155024
  91 H     1.0000    0     1.008   -5.306780    2.397413   -4.455085
  92 H     1.0000    0     1.008   -5.995443    3.286681   -7.576408
  93 H     1.0000    0     1.008   -1.960021    1.291261   -9.048721
  94 H     1.0000    0     1.008   -1.455088    0.047819   -6.002016
  95 H     1.0000    0     1.008   -1.239853    4.427045   -4.222898
  96 H     1.0000    0     1.008   -1.625922    5.713450   -7.272943
  97 H     1.0000    0     1.008    2.414517    3.518825   -8.637320
  98 H     1.0000    0     1.008    2.783786    2.350266   -5.537010
  99 H     1.0000    0     1.008    5.421082    6.206052   -6.103591
 100 H     1.0000    0     1.008    2.709890    7.996417   -6.972447
 101 H     1.0000    0     1.008    3.002420    6.798181   -3.853685
 102 H     1.0000    0     1.008   -6.424308   -4.527701    5.524657
 103 H     1.0000    0     1.008   -0.439771   -4.582423   -6.512379
 104 H     1.0000    0     1.008    1.782115   -6.835578   -5.454449
 105 H     1.0000    0     1.008    3.426974   -4.584141   -9.308657
 106 H     1.0000    0     1.008    3.128161   -1.626503   -7.748521
 107 H     1.0000    0     1.008    5.373243   -3.877399   -6.674760
 108 H     1.0000    0     1.008    7.179996   -9.160214    1.868618
 109 H     1.0000    0     1.008   11.823174   -8.209773    1.856649
 110 H     1.0000    0     1.008   11.317115   -5.582896    3.884627
 111 H     1.0000    0     1.008   10.722257   -8.694309    4.997533
 112 H     1.0000    0     1.008    4.100858   -6.297849    3.871545
 113 H     1.0000    0     1.008    6.198123   -7.483852    6.189861
 114 H     1.0000    0     1.008    6.577815   -4.351979    5.100231

--------------------------------
INTERNAL COORDINATES (ANGSTROEM)
--------------------------------
 O      0   0   0     0.000000000000     0.00000000     0.00000000
 C      1   0   0     1.227880861705     0.00000000     0.00000000
 C      2   1   0     1.528129029771   119.77648147     0.00000000
 C      3   2   1     1.545212268775   111.01464549   282.61918568
 C      4   3   2     1.533766208722   104.13363703   210.55768354
 C      5   4   3     1.529226983555   102.73448800    37.32359929
 N      6   5   4     1.475563277820   102.92721208   323.48597347
 C      7   6   5     1.361890179432   127.50395512   218.37712980
 O      8   7   6     1.240481870033   121.20116669   180.94294430
 N      2   1   3     1.361834483899   124.36338588   183.00722397
 C     10   2   1     1.451413115438   122.46654154   354.59679561
 C     11  10   2     1.544340213097   113.75503457   262.43607035
 N     12  11  10     1.363466291477   116.08941827     2.23177688
 C     13  12  11     1.463946434927   123.14592849   173.70990376
 C     14  13  12     1.537932151321   113.56734611    70.68403421
 N     15  14  13     1.354849833639   115.64577051    13.65739317
 C     16  15  14     1.442236637574   123.17948749   174.82314772
 C     17  16  15     1.542875364096   115.16571001   254.05077870
 C     18  17  16     1.565517423105   116.71929675    66.53911380
 C     19  18  17     1.522942716401   115.96906749   276.76327520
 N     20  19  18     1.364691030024   114.31470430   240.38068836
 C     21  20  19     1.459075825356   121.39287740   185.72076755
 C     22  21  20     1.545047319502   110.31704902   277.02953525
 N     23  22  21     1.356819300284   114.10654292    91.97106177
 C     24  23  22     1.449603879299   121.29426946   175.79721455
 C     25  24  23     1.544390634527   110.15930382   285.41643891
 O     23  22  21     1.233638012660   122.49347797   271.15805560
 C     22  21  20     1.525831359113   110.26584788   153.84735062
 C     28  22  21     1.537446569249   114.50183153   184.64391004
 C     29  28  22     1.532412459884   109.59302839   182.91910744
 C     29  28  22     1.532847287988   112.35652360    59.12696086
 O     20  19  18     1.237124831537   124.86396980    62.29640250
 C     19  18  17     1.547649788778   110.11578967    49.15257188
 C     33  19  18     1.495621055893   117.79632740   223.64507685
 C     34  33  19     1.521565453591   116.11440888   174.10754455
 C     35  34  33     1.538372282287   112.93762933   182.43032259
 C     36  35  34     1.543114584285   113.72828367    53.27593387
 C     37  36  35     1.536606653419   113.83260948   266.76760390
 C     38  37  36     1.528863433914   113.77075144   162.47130859
 C     39  38  37     1.528508447994   112.94633967   188.18740124
 C     40  39  38     1.529258721400   114.18491575   175.95819390
 C     41  40  39     1.528510424828   112.92750384   179.66784798
 O     33  19  18     1.225999210493   118.07833379    44.53318215
 O     18  17  16     1.424276037841   108.58489038   189.25451204
 O     15  14  13     1.234153747370   120.82835992   190.85519752
 C     14  13  12     1.535627403259   113.65110734   301.57840418
 C     46  14  13     1.527001487846   112.45720986   301.70038744
 O     12  11  10     1.230009096978   119.75722931   183.89651241
 C     11  10   2     1.543897334081   112.10061758   136.22723265
 C     49  11  10     1.529898709258   110.93404598   297.96040175
 C     49  11  10     1.532739675663   111.97295327    63.58711954
 H      3   2   1     1.100090485006   105.52792648    43.76207429
 H      4   3   2     1.095007631388   111.22351724    87.33266556
 H      4   3   2     1.100439775724   109.59790635   328.40834713
 H      5   4   3     1.097185093461   113.11879049   158.85718482
 H      5   4   3     1.100577257728   110.56388666   280.37736035
 H      6   5   4     1.103316777787   110.88948087    80.74407940
 H      6   5   4     1.093848640596   113.58964419   202.52300075
 H     10   2   1     1.015827659824   117.60631950   183.80677469
 H     11  10   2     1.101025802521   105.50365737    17.68092737
 H     13  12  11     1.022129728678   118.93126281     8.79564894
 H     14  13  12     1.102054471346   104.69568156   183.07924616
 H     16  15  14     1.014616246861   116.60815336     0.99886199
 H     17  16  15     1.100154239284   109.95762342   134.06868447
 H     17  16  15     1.097864190002   107.21749380    17.07731023
 H     18  17  16     1.102797981701   108.98364799   304.61488380
 H     19  18  17     1.103701744653   102.77959030   159.48376925
 H     21  20  19     1.015172221647   120.21351386     7.56080417
 H     22  21  20     1.099870939145   105.83104194    34.10390385
 H     24  23  22     1.022712708284   120.41814485   349.25483936
 H     25  24  23     1.101462289809   108.46798394    44.91714140
 H     26  25  24     1.096559458962   108.59786791    59.06913227
 H     26  25  24     1.097851647348   112.34854202   179.08551200
 H     26  25  24     1.097351236640   109.56856208   299.76454281
 H     28  22  21     1.102120554538   108.30826493    63.12677460
 H     28  22  21     1.103588779965   107.98671701   306.58814605
 H     29  28  22     1.102876658043   107.42122524   299.83640820
 H     30  29  28     1.099717745614   111.32520867    56.98934216
 H     30  29  28     1.099407208965   111.07109157   177.31743621
 H     30  29  28     1.101812029156   110.81657551   296.90688627
 H     31  29  28     1.098413418623   112.49547877   296.81126819
 H     31  29  28     1.101794262712   110.98974598    57.49007916
 H     31  29  28     1.099440893063   110.67514698   176.95150011
 H     34  33  19     1.100704243426   105.22518520    51.47923027
 H     34  33  19     1.108279855559   106.76085385   300.07247625
 H     35  34  33     1.100712014833   110.25112700    58.62773103
 H     35  34  33     1.100704649509   107.48519872   302.93027090
 H     36  35  34     1.104739763170   109.83798797   290.38068482
 H     36  35  34     1.100789645160   107.78056449   175.47353388
 H     37  36  35     1.101599604566   109.97222369   144.49176322
 H     37  36  35     1.103450731343   108.80057478    28.72468196
 H     38  37  36     1.101461893397   109.75886456    41.53306120
 H     38  37  36     1.104145714018   109.57212907   286.12078419
 H     39  38  37     1.103783070979   110.31582770    64.57587529
 H     39  38  37     1.102121350704   108.22243241   309.02233239
 H     40  39  38     1.105213128533   108.10890586    54.64317071
 H     40  39  38     1.104606429537   109.80057249   299.56137831
 H     41  40  39     1.103169392639   109.39498373    57.17110549
 H     41  40  39     1.101576275065   109.36014608   301.13751020
 H     42  41  40     1.099400415903   111.53564956   178.32861596
 H     42  41  40     1.100788710037   111.45178047   299.09402727
 H     42  41  40     1.100808842136   110.62090366    58.55777871
 H     44  18  17     0.984422745829   104.54091255   287.75385926
 H     46  14  13     1.098491593818   106.70871421   179.78765661
 H     46  14  13     1.098237930302   108.66061016    64.74961155
 H     47  46  14     1.098748093739   110.69392121   180.78177666
 H     47  46  14     1.100448045153   111.33098580   300.63050163
 H     47  46  14     1.099731518922   111.74191709    61.00179346
 H     49  11  10     1.100222834966   104.74367848   180.13919736
 H     50  49  11     1.099246901689   111.24770941   304.14226212
 H     50  49  11     1.100986096703   111.18060960    64.15346160
 H     50  49  11     1.099141401668   110.74989111   183.87739994
 H     51  49  11     1.099385520979   111.23068720    59.15300906
 H     51  49  11     1.098707409129   110.65291243   178.20990215
 H     51  49  11     1.102878397081   112.15965279   297.21745290

---------------------------
INTERNAL COORDINATES (A.U.)
---------------------------
 O      0   0   0     0.000000000000     0.00000000     0.00000000
 C      1   0   0     2.320358553705     0.00000000     0.00000000
 C      2   1   0     2.887745363562   119.77648147     0.00000000
 C      3   2   1     2.920028006761   111.01464549   282.61918568
 C      4   3   2     2.898398087947   104.13363703   210.55768354
 C      5   4   3     2.889820195521   102.73448800    37.32359929
 N      6   5   4     2.788410488352   102.92721208   323.48597347
 C      7   6   5     2.573599463604   127.50395512   218.37712980
 O      8   7   6     2.344171008458   121.20116669   180.94294430
 N      2   1   3     2.573494214299   124.36338588   183.00722397
 C     10   2   1     2.742773295359   122.46654154   354.59679561
 C     11  10   2     2.918380060355   113.75503457   262.43607035
 N     12  11  10     2.576577883724   116.08941827     2.23177688
 C     13  12  11     2.766457836743   123.14592849   173.70990376
 C     14  13  12     2.906270578549   113.56734611    70.68403421
 N     15  14  13     2.560295138167   115.64577051    13.65739317
 C     16  15  14     2.725432265322   123.17948749   174.82314772
 C     17  16  15     2.915611896915   115.16571001   254.05077870
 C     18  17  16     2.958399187551   116.71929675    66.53911380
 C     19  18  17     2.877944651648   115.96906749   276.76327520
 N     20  19  18     2.578892304164   114.31470430   240.38068836
 C     21  20  19     2.757253718548   121.39287740   185.72076755
 C     22  21  20     2.919716297808   110.31704902   277.02953525
 N     23  22  21     2.564016890756   114.10654292    91.97106177
 C     24  23  22     2.739354334546   121.29426946   175.79721455
 C     25  24  23     2.918475343049   110.15930382   285.41643891
 O     23  22  21     2.331237992323   122.49347797   271.15805560
 C     22  21  20     2.883403395272   110.26584788   153.84735062
 C     28  22  21     2.905352961418   114.50183153   184.64391004
 C     29  28  22     2.895839873390   109.59302839   182.91910744
 C     29  28  22     2.896661579421   112.35652360    59.12696086
 O     20  19  18     2.337827125078   124.86396980    62.29640250
 C     19  18  17     2.924634252011   110.11578967    49.15257188
 C     33  19  18     2.826314195765   117.79632740   223.64507685
 C     34  33  19     2.875342002122   116.11440888   174.10754455
 C     35  34  33     2.907102305538   112.93762933   182.43032259
 C     36  35  34     2.916063957558   113.72828367    53.27593387
 C     37  36  35     2.903765750524   113.83260948   266.76760390
 C     38  37  36     2.889133186264   113.77075144   162.47130859
 C     39  38  37     2.888462360094   112.94633967   188.18740124
 C     40  39  38     2.889880171356   114.18491575   175.95819390
 C     41  40  39     2.888466095768   112.92750384   179.66784798
 O     33  19  18     2.316802748236   118.07833379    44.53318215
 O     18  17  16     2.691491650625   108.58489038   189.25451204
 O     15  14  13     2.332212589683   120.82835992   190.85519752
 C     14  13  12     2.901915235904   113.65110734   301.57840418
 C     46  14  13     2.885614618118   112.45720986   301.70038744
 O     12  11  10     2.324380335521   119.75722931   183.89651241
 C     11  10   2     2.917543140304   112.10061758   136.22723265
 C     49  11  10     2.891089573137   110.93404598   297.96040175
 C     49  11  10     2.896458221598   111.97295327    63.58711954
 H      3   2   1     2.078869739194   105.52792648    43.76207429
 H      4   3   2     2.069264537876   111.22351724    87.33266556
 H      4   3   2     2.079529802993   109.59790635   328.40834713
 H      5   4   3     2.073379344862   113.11879049   158.85718482
 H      5   4   3     2.079789606328   110.56388666   280.37736035
 H      6   5   4     2.084966548977   110.88948087    80.74407940
 H      6   5   4     2.067074362689   113.58964419   202.52300075
[...]
freq.      82.92  E(vib)   ...       0.48 
freq.      85.54  E(vib)   ...       0.48 
freq.      91.80  E(vib)   ...       0.47 
freq.      96.41  E(vib)   ...       0.47 
freq.     102.99  E(vib)   ...       0.46 
freq.     107.80  E(vib)   ...       0.45 
freq.     115.93  E(vib)   ...       0.44 
freq.     122.61  E(vib)   ...       0.43 
freq.     128.72  E(vib)   ...       0.43 
freq.     134.23  E(vib)   ...       0.42 
freq.     142.77  E(vib)   ...       0.41 
freq.     145.79  E(vib)   ...       0.41 
freq.     147.34  E(vib)   ...       0.41 
freq.     152.14  E(vib)   ...       0.40 
freq.     157.42  E(vib)   ...       0.40 
freq.     160.22  E(vib)   ...       0.39 
freq.     169.84  E(vib)   ...       0.38 
freq.     175.93  E(vib)   ...       0.38 
freq.     180.79  E(vib)   ...       0.37 
freq.     187.65  E(vib)   ...       0.36 
freq.     195.92  E(vib)   ...       0.36 
freq.     198.10  E(vib)   ...       0.35 
freq.     212.42  E(vib)   ...       0.34 
freq.     213.89  E(vib)   ...       0.34 
freq.     216.91  E(vib)   ...       0.34 
freq.     222.24  E(vib)   ...       0.33 
freq.     228.54  E(vib)   ...       0.32 
freq.     229.60  E(vib)   ...       0.32 
freq.     236.40  E(vib)   ...       0.32 
freq.     238.50  E(vib)   ...       0.32 
freq.     245.15  E(vib)   ...       0.31 
freq.     247.26  E(vib)   ...       0.31 
freq.     252.65  E(vib)   ...       0.30 
freq.     255.20  E(vib)   ...       0.30 
freq.     256.40  E(vib)   ...       0.30 
freq.     264.89  E(vib)   ...       0.29 
freq.     267.45  E(vib)   ...       0.29 
freq.     274.01  E(vib)   ...       0.28 
freq.     281.03  E(vib)   ...       0.28 
freq.     291.06  E(vib)   ...       0.27 
freq.     294.34  E(vib)   ...       0.27 
freq.     298.08  E(vib)   ...       0.27 
freq.     303.88  E(vib)   ...       0.26 
freq.     306.84  E(vib)   ...       0.26 
freq.     324.11  E(vib)   ...       0.25 
freq.     327.31  E(vib)   ...       0.24 
freq.     332.81  E(vib)   ...       0.24 
freq.     342.79  E(vib)   ...       0.23 
freq.     359.92  E(vib)   ...       0.22 
freq.     374.18  E(vib)   ...       0.21 
freq.     387.92  E(vib)   ...       0.20 
freq.     390.58  E(vib)   ...       0.20 
freq.     402.59  E(vib)   ...       0.19 
freq.     410.11  E(vib)   ...       0.19 
freq.     412.48  E(vib)   ...       0.19 
freq.     424.26  E(vib)   ...       0.18 
freq.     427.01  E(vib)   ...       0.18 
freq.     441.22  E(vib)   ...       0.17 
freq.     446.06  E(vib)   ...       0.17 
freq.     458.84  E(vib)   ...       0.16 
freq.     463.14  E(vib)   ...       0.16 
freq.     482.97  E(vib)   ...       0.15 
freq.     487.30  E(vib)   ...       0.15 
freq.     489.93  E(vib)   ...       0.15 
freq.     500.36  E(vib)   ...       0.14 
freq.     505.57  E(vib)   ...       0.14 
freq.     510.22  E(vib)   ...       0.14 
freq.     518.52  E(vib)   ...       0.13 
freq.     532.05  E(vib)   ...       0.13 
freq.     544.34  E(vib)   ...       0.12 
freq.     552.59  E(vib)   ...       0.12 
freq.     580.54  E(vib)   ...       0.11 
freq.     596.36  E(vib)   ...       0.10 
freq.     602.66  E(vib)   ...       0.10 
freq.     612.57  E(vib)   ...       0.10 
freq.     614.02  E(vib)   ...       0.10 
freq.     635.05  E(vib)   ...       0.09 
freq.     649.51  E(vib)   ...       0.08 
freq.     660.10  E(vib)   ...       0.08 
freq.     674.50  E(vib)   ...       0.08 
freq.     698.13  E(vib)   ...       0.07 
freq.     703.42  E(vib)   ...       0.07 
freq.     713.13  E(vib)   ...       0.07 
freq.     719.39  E(vib)   ...       0.07 
freq.     723.53  E(vib)   ...       0.06 
freq.     734.74  E(vib)   ...       0.06 
freq.     737.61  E(vib)   ...       0.06 
freq.     743.05  E(vib)   ...       0.06 
freq.     755.59  E(vib)   ...       0.06 
freq.     762.09  E(vib)   ...       0.06 
freq.     765.00  E(vib)   ...       0.06 
freq.     775.06  E(vib)   ...       0.05 
freq.     786.40  E(vib)   ...       0.05 
freq.     808.59  E(vib)   ...       0.05 
freq.     818.94  E(vib)   ...       0.05 
freq.     820.14  E(vib)   ...       0.05 
freq.     821.53  E(vib)   ...       0.05 
freq.     827.91  E(vib)   ...       0.04 
freq.     830.46  E(vib)   ...       0.04 
freq.     858.87  E(vib)   ...       0.04 
freq.     860.81  E(vib)   ...       0.04 
freq.     864.53  E(vib)   ...       0.04 
freq.     869.81  E(vib)   ...       0.04 
freq.     875.86  E(vib)   ...       0.04 
freq.     883.32  E(vib)   ...       0.04 
freq.     885.26  E(vib)   ...       0.04 
freq.     897.27  E(vib)   ...       0.03 
freq.     898.76  E(vib)   ...       0.03 
freq.     901.46  E(vib)   ...       0.03 
freq.     902.49  E(vib)   ...       0.03 
freq.     912.45  E(vib)   ...       0.03 
freq.     916.93  E(vib)   ...       0.03 
freq.     919.20  E(vib)   ...       0.03 
freq.     932.32  E(vib)   ...       0.03 
freq.     938.58  E(vib)   ...       0.03 
freq.     942.03  E(vib)   ...       0.03 
freq.     947.00  E(vib)   ...       0.03 
freq.     947.50  E(vib)   ...       0.03 
freq.     951.17  E(vib)   ...       0.03 
freq.     960.15  E(vib)   ...       0.03 
freq.     965.38  E(vib)   ...       0.03 
freq.     983.04  E(vib)   ...       0.02 
freq.     986.45  E(vib)   ...       0.02 
freq.     990.92  E(vib)   ...       0.02 
freq.     995.51  E(vib)   ...       0.02 
freq.    1009.58  E(vib)   ...       0.02 
freq.    1012.48  E(vib)   ...       0.02 
freq.    1017.82  E(vib)   ...       0.02 
freq.    1029.60  E(vib)   ...       0.02 
freq.    1033.38  E(vib)   ...       0.02 
freq.    1034.75  E(vib)   ...       0.02 
freq.    1036.63  E(vib)   ...       0.02 
freq.    1040.45  E(vib)   ...       0.02 
freq.    1048.69  E(vib)   ...       0.02 
freq.    1049.52  E(vib)   ...       0.02 
freq.    1052.56  E(vib)   ...       0.02 
freq.    1055.63  E(vib)   ...       0.02 
freq.    1060.52  E(vib)   ...       0.02 
freq.    1067.41  E(vib)   ...       0.02 
freq.    1075.52  E(vib)   ...       0.02 
freq.    1078.37  E(vib)   ...       0.02 
freq.    1084.16  E(vib)   ...       0.02 
freq.    1094.14  E(vib)   ...       0.02 
freq.    1096.49  E(vib)   ...       0.02 
freq.    1101.43  E(vib)   ...       0.02 
freq.    1106.24  E(vib)   ...       0.02 
freq.    1116.52  E(vib)   ...       0.01 
freq.    1119.56  E(vib)   ...       0.01 
freq.    1121.50  E(vib)   ...       0.01 
freq.    1122.32  E(vib)   ...       0.01 
freq.    1135.78  E(vib)   ...       0.01 
freq.    1144.57  E(vib)   ...       0.01 
freq.    1146.51  E(vib)   ...       0.01 
freq.    1152.04  E(vib)   ...       0.01 
freq.    1158.12  E(vib)   ...       0.01 
freq.    1161.28  E(vib)   ...       0.01 
freq.    1167.55  E(vib)   ...       0.01 
freq.    1169.22  E(vib)   ...       0.01 
freq.    1175.15  E(vib)   ...       0.01 
freq.    1176.72  E(vib)   ...       0.01 
freq.    1178.94  E(vib)   ...       0.01 
freq.    1185.63  E(vib)   ...       0.01 
freq.    1199.73  E(vib)   ...       0.01 
freq.    1203.81  E(vib)   ...       0.01 
freq.    1211.31  E(vib)   ...       0.01 
freq.    1221.40  E(vib)   ...       0.01 
freq.    1223.30  E(vib)   ...       0.01 
freq.    1224.90  E(vib)   ...       0.01 
freq.    1226.60  E(vib)   ...       0.01 
freq.    1229.39  E(vib)   ...       0.01 
freq.    1240.51  E(vib)   ...       0.01 
freq.    1243.56  E(vib)   ...       0.01 
freq.    1243.79  E(vib)   ...       0.01 
freq.    1245.13  E(vib)   ...       0.01 
freq.    1252.76  E(vib)   ...       0.01 
freq.    1256.24  E(vib)   ...       0.01 
freq.    1257.03  E(vib)   ...       0.01 
freq.    1262.89  E(vib)   ...       0.01 
freq.    1271.07  E(vib)   ...       0.01 
freq.    1279.26  E(vib)   ...       0.01 
freq.    1285.27  E(vib)   ...       0.01 
freq.    1286.83  E(vib)   ...       0.01 
freq.    1287.28  E(vib)   ...       0.01 
freq.    1291.68  E(vib)   ...       0.01 
freq.    1297.31  E(vib)   ...       0.01 
freq.    1301.94  E(vib)   ...       0.01 
freq.    1302.11  E(vib)   ...       0.01 
freq.    1307.08  E(vib)   ...       0.01 
freq.    1309.28  E(vib)   ...       0.01 
freq.    1311.02  E(vib)   ...       0.01 
freq.    1312.76  E(vib)   ...       0.01 
freq.    1316.33  E(vib)   ...       0.01 
freq.    1319.11  E(vib)   ...       0.01 
freq.    1319.67  E(vib)   ...       0.01 
freq.    1320.58  E(vib)   ...       0.01 
freq.    1323.85  E(vib)   ...       0.01 
freq.    1325.02  E(vib)   ...       0.01 
freq.    1331.37  E(vib)   ...       0.01 
freq.    1331.51  E(vib)   ...       0.01 
freq.    1334.97  E(vib)   ...       0.01 
freq.    1339.48  E(vib)   ...       0.01 
freq.    1342.26  E(vib)   ...       0.01 
freq.    1345.15  E(vib)   ...       0.01 
freq.    1345.86  E(vib)   ...       0.01 
freq.    1348.66  E(vib)   ...       0.01 
freq.    1349.22  E(vib)   ...       0.01 
freq.    1352.36  E(vib)   ...       0.01 
freq.    1353.93  E(vib)   ...       0.01 
freq.    1357.71  E(vib)   ...       0.01 
freq.    1359.37  E(vib)   ...       0.01 
freq.    1367.05  E(vib)   ...       0.01 
freq.    1369.15  E(vib)   ...       0.01 
freq.    1372.99  E(vib)   ...       0.01 
freq.    1378.66  E(vib)   ...       0.01 
freq.    1405.43  E(vib)   ...       0.00 
freq.    1407.94  E(vib)   ...       0.00 
freq.    1419.87  E(vib)   ...       0.00 
freq.    1425.57  E(vib)   ...       0.00 
freq.    1431.01  E(vib)   ...       0.00 
freq.    1432.75  E(vib)   ...       0.00 
freq.    1433.93  E(vib)   ...       0.00 
freq.    1434.34  E(vib)   ...       0.00 
freq.    1436.23  E(vib)   ...       0.00 
freq.    1437.49  E(vib)   ...       0.00 
freq.    1441.85  E(vib)   ...       0.00 
freq.    1442.38  E(vib)   ...       0.00 
freq.    1442.70  E(vib)   ...       0.00 
freq.    1444.40  E(vib)   ...       0.00 
freq.    1444.97  E(vib)   ...       0.00 
freq.    1445.76  E(vib)   ...       0.00 
freq.    1446.87  E(vib)   ...       0.00 
freq.    1449.24  E(vib)   ...       0.00 
freq.    1450.68  E(vib)   ...       0.00 
freq.    1451.78  E(vib)   ...       0.00 
freq.    1454.05  E(vib)   ...       0.00 
freq.    1455.91  E(vib)   ...       0.00 
freq.    1456.48  E(vib)   ...       0.00 
freq.    1457.65  E(vib)   ...       0.00 
freq.    1457.89  E(vib)   ...       0.00 
freq.    1458.90  E(vib)   ...       0.00 
freq.    1460.61  E(vib)   ...       0.00 
freq.    1462.79  E(vib)   ...       0.00 
freq.    1466.00  E(vib)   ...       0.00 
freq.    1469.61  E(vib)   ...       0.00 
freq.    1475.95  E(vib)   ...       0.00 
freq.    1476.27  E(vib)   ...       0.00 
freq.    1496.74  E(vib)   ...       0.00 
freq.    1504.77  E(vib)   ...       0.00 
freq.    1629.11  E(vib)   ...       0.00 
freq.    1649.34  E(vib)   ...       0.00 
freq.    1670.68  E(vib)   ...       0.00 
freq.    1676.88  E(vib)   ...       0.00 
freq.    1683.60  E(vib)   ...       0.00 
freq.    1686.73  E(vib)   ...       0.00 
freq.    1695.70  E(vib)   ...       0.00 
freq.    2913.47  E(vib)   ...       0.00 
freq.    2921.72  E(vib)   ...       0.00 
freq.    2931.67  E(vib)   ...       0.00 
freq.    2937.86  E(vib)   ...       0.00 
freq.    2942.22  E(vib)   ...       0.00 
freq.    2942.90  E(vib)   ...       0.00 
freq.    2943.64  E(vib)   ...       0.00 
freq.    2945.43  E(vib)   ...       0.00 
freq.    2947.32  E(vib)   ...       0.00 
freq.    2947.57  E(vib)   ...       0.00 
freq.    2951.17  E(vib)   ...       0.00 
freq.    2951.54  E(vib)   ...       0.00 
freq.    2952.92  E(vib)   ...       0.00 
freq.    2954.06  E(vib)   ...       0.00 
freq.    2956.12  E(vib)   ...       0.00 
freq.    2956.72  E(vib)   ...       0.00 
freq.    2959.36  E(vib)   ...       0.00 
freq.    2962.78  E(vib)   ...       0.00 
freq.    2963.13  E(vib)   ...       0.00 
freq.    2969.43  E(vib)   ...       0.00 
freq.    2972.82  E(vib)   ...       0.00 
freq.    2973.90  E(vib)   ...       0.00 
freq.    2977.47  E(vib)   ...       0.00 
freq.    2977.66  E(vib)   ...       0.00 
freq.    2981.09  E(vib)   ...       0.00 
freq.    2982.14  E(vib)   ...       0.00 
freq.    2984.34  E(vib)   ...       0.00 
freq.    2984.58  E(vib)   ...       0.00 
freq.    2985.69  E(vib)   ...       0.00 
freq.    2987.67  E(vib)   ...       0.00 
freq.    2989.99  E(vib)   ...       0.00 
freq.    2992.27  E(vib)   ...       0.00 
freq.    2995.25  E(vib)   ...       0.00 
freq.    2996.14  E(vib)   ...       0.00 
freq.    2998.62  E(vib)   ...       0.00 
freq.    3000.87  E(vib)   ...       0.00 
freq.    3001.39  E(vib)   ...       0.00 
freq.    3003.26  E(vib)   ...       0.00 
freq.    3015.58  E(vib)   ...       0.00 
freq.    3016.05  E(vib)   ...       0.00 
freq.    3017.82  E(vib)   ...       0.00 
freq.    3019.22  E(vib)   ...       0.00 
freq.    3019.96  E(vib)   ...       0.00 
freq.    3024.06  E(vib)   ...       0.00 
freq.    3026.40  E(vib)   ...       0.00 
freq.    3026.66  E(vib)   ...       0.00 
freq.    3032.03  E(vib)   ...       0.00 
freq.    3035.61  E(vib)   ...       0.00 
freq.    3036.56  E(vib)   ...       0.00 
freq.    3038.19  E(vib)   ...       0.00 
freq.    3038.81  E(vib)   ...       0.00 
freq.    3043.97  E(vib)   ...       0.00 
freq.    3045.79  E(vib)   ...       0.00 
freq.    3047.06  E(vib)   ...       0.00 
freq.    3057.23  E(vib)   ...       0.00 
freq.    3065.31  E(vib)   ...       0.00 
freq.    3069.76  E(vib)   ...       0.00 
freq.    3071.29  E(vib)   ...       0.00 
freq.    3397.53  E(vib)   ...       0.00 
freq.    3421.85  E(vib)   ...       0.00 
freq.    3490.21  E(vib)   ...       0.00 
freq.    3503.76  E(vib)   ...       0.00 
freq.    3514.02  E(vib)   ...       0.00 
freq.    3518.86  E(vib)   ...       0.00 

------------
INNER ENERGY
------------

The inner energy is: U= E(el) + E(ZPE) + E(vib) + E(rot) + E(trans)
    E(el)   - is the total energy from the electronic structure calculation
              = E(kin-el) + E(nuc-el) + E(el-el) + E(nuc-nuc)
    E(ZPE)  - the the zero temperature vibrational energy from the frequency calculation
    E(vib)  - the the finite temperature correction to E(ZPE) due to population
              of excited vibrational states
    E(rot)  - is the rotational thermal energy
    E(trans)- is the translational thermal energy

Summary of contributions to the inner energy U:
Electronic energy                ...  -2380.08223775 Eh
Zero point energy                ...      0.97750597 Eh     613.39 kcal/mol
Thermal vibrational correction   ...      0.05560746 Eh      34.89 kcal/mol
Thermal rotational correction    ...      0.00141627 Eh       0.89 kcal/mol
Thermal translational correction ...      0.00141627 Eh       0.89 kcal/mol
-----------------------------------------------------------------------
Total thermal energy                  -2379.04629178 Eh


Summary of corrections to the electronic energy:
(perhaps to be used in another calculation)
Total thermal correction                  0.05844000 Eh      36.67 kcal/mol
Non-thermal (ZPE) correction              0.97750597 Eh     613.39 kcal/mol
-----------------------------------------------------------------------
Total correction                          1.03594597 Eh     650.06 kcal/mol


--------
ENTHALPY
--------

The enthalpy is H = U + kB*T
                kB is Boltzmann's constant
Total free energy                 ...  -2379.04629178 Eh 
Thermal Enthalpy correction       ...      0.00094421 Eh       0.59 kcal/mol
-----------------------------------------------------------------------
Total Enthalpy                    ...  -2379.04534757 Eh


Note: Only C1 symmetry has been detected, increase convergence thresholds 
      if your molecule has a higher symmetry. Symmetry factor of 1.0 is   
      used for the rotational entropy correction. 
 

Note: Rotational entropy computed according to Herzberg 
Infrared and Raman Spectra, Chapter V,1, Van Nostrand Reinhold, 1945 
Point Group:  C1, Symmetry Number:   1  
Rotational constants in cm-1:     0.002214     0.001652     0.001320 

Vibrational entropy computed according to the QRRHO of S. Grimme
Chem.Eur.J. 2012 18 9955


-------
ENTROPY
-------

The entropy contributions are T*S = T*(S(el)+S(vib)+S(rot)+S(trans))
     S(el)   - electronic entropy
     S(vib)  - vibrational entropy
     S(rot)  - rotational entropy
     S(trans)- translational entropy
The entropies will be listed as mutliplied by the temperature to get
units of energy

Electronic entropy                ...      0.00000000 Eh      0.00 kcal/mol
Vibrational entropy               ...      0.10149860 Eh     63.69 kcal/mol
Rotational entropy                ...      0.01855065 Eh     11.64 kcal/mol
Translational entropy             ...      0.02166895 Eh     13.60 kcal/mol
-----------------------------------------------------------------------
Final entropy term                ...      0.14171820 Eh     88.93 kcal/mol

In case the symmetry of your molecule has not been determined correctly
or in case you have a reason to use a different symmetry number we print 
out the resulting rotational entropy values for sn=1,12 :
 --------------------------------------------------------
|  sn= 1 | S(rot)=       0.01855065 Eh     11.64 kcal/mol|
|  sn= 2 | S(rot)=       0.01789619 Eh     11.23 kcal/mol|
|  sn= 3 | S(rot)=       0.01751336 Eh     10.99 kcal/mol|
|  sn= 4 | S(rot)=       0.01724174 Eh     10.82 kcal/mol|
|  sn= 5 | S(rot)=       0.01703105 Eh     10.69 kcal/mol|
|  sn= 6 | S(rot)=       0.01685891 Eh     10.58 kcal/mol|
|  sn= 7 | S(rot)=       0.01671336 Eh     10.49 kcal/mol|
|  sn= 8 | S(rot)=       0.01658728 Eh     10.41 kcal/mol|
|  sn= 9 | S(rot)=       0.01647607 Eh     10.34 kcal/mol|
|  sn=10 | S(rot)=       0.01637659 Eh     10.28 kcal/mol|
|  sn=11 | S(rot)=       0.01628660 Eh     10.22 kcal/mol|
|  sn=12 | S(rot)=       0.01620445 Eh     10.17 kcal/mol|
 --------------------------------------------------------


-------------------
GIBBS FREE ENERGY
-------------------

The Gibbs free energy is G = H - T*S

Total enthalpy                    ...  -2379.04534757 Eh 
Total entropy correction          ...     -0.14171820 Eh    -88.93 kcal/mol
-----------------------------------------------------------------------
Final Gibbs free energy         ...  -2379.18706577 Eh

For completeness - the Gibbs free energy minus the electronic energy
G-E(el)                           ...      0.89517198 Eh    561.73 kcal/mol

--------------------------------------------------------------------------
WARNING: No preset parameters were found for the device that Open MPI
detected:

  Local host:            eu-g1-037-4
  Device name:           mlx5_0
  Device vendor ID:      0x02c9
  Device vendor part ID: 4123

Default device parameters will be used, which may result in lower
performance.  You can edit any of the files specified by the
btl_openib_device_param_files MCA parameter to set values for your
device.

NOTE: You can turn off this warning by setting the MCA parameter
      btl_openib_warn_no_device_params_found to 0.
--------------------------------------------------------------------------
--------------------------------------------------------------------------
WARNING: There was an error initializing an OpenFabrics device.

  Local host:   eu-g1-037-4
  Local device: mlx5_0
--------------------------------------------------------------------------

Timings for individual modules:

Sum of individual times         ...    44070.485 sec (= 734.508 min)
GTO integral calculation        ...       88.136 sec (=   1.469 min)   0.2 %
SCF iterations                  ...     2346.218 sec (=  39.104 min)   5.3 %
SCF Gradient evaluation         ...      991.885 sec (=  16.531 min)   2.3 %
Geometry relaxation             ...       34.295 sec (=   0.572 min)   0.1 %
Analytical frequency calculation...    40609.951 sec (= 676.833 min)  92.1 %
                             ****ORCA TERMINATED NORMALLY****
TOTAL RUN TIME: 0 days 12 hours 15 minutes 9 seconds 107 msec
