
                                 *****************
                                 * O   R   C   A *
                                 *****************

           --- An Ab Initio, DFT and Semiempirical electronic structure package ---

                  #######################################################
                  #                        -***-                        #
                  #          Department of theory and spectroscopy      #
                  #               Directorship: Frank Neese             #
                  #        Max Planck Institute fuer Kohlenforschung    #
                  #                Kaiser Wilhelm Platz 1               #
                  #                 D-45470 Muelheim/Ruhr               #
                  #                      Germany                        #
                  #                                                     #
                  #                  All rights reserved                #
                  #                        -***-                        #
                  #######################################################


                         Program Version 4.2.0 -  RELEASE  -


 With contributions from (in alphabetic order):
   Daniel Aravena         : Magnetic Suceptibility
   Michael Atanasov       : Ab Initio Ligand Field Theory (pilot matlab implementation)
   Alexander A. Auer      : GIAO ZORA, VPT2
   Ute Becker             : Parallelization
   Giovanni Bistoni       : ED, misc. LED, open-shell LED, HFLED
   Martin Brehm           : Molecular dynamics
   Dmytro Bykov           : SCF Hessian
   Vijay G. Chilkuri      : MRCI spin determinant printing, contributions to CSF-ICE
   Dipayan Datta          : RHF DLPNO-CCSD density
   Achintya Kumar Dutta   : EOM-CC, STEOM-CC
   Dmitry Ganyushin       : Spin-Orbit,Spin-Spin,Magnetic field MRCI
   Miquel Garcia          : C-PCM Hessian, Gaussian charge scheme
   Yang Guo               : DLPNO-NEVPT2, CIM, IAO-localization
   Andreas Hansen         : Spin unrestricted coupled pair/coupled cluster methods
   Benjamin Helmich-Paris : CASSCF linear response (MC-RPA)
   Lee Huntington         : MR-EOM, pCC
   Robert Izsak           : Overlap fitted RIJCOSX, COSX-SCS-MP3, EOM
   Christian Kollmar      : KDIIS, OOCD, Brueckner-CCSD(T), CCSD density
   Simone Kossmann        : Meta GGA functionals, TD-DFT gradient, OOMP2, MP2 Hessian
   Martin Krupicka        : AUTO-CI
   Lucas Lang             : DCDCAS
   Dagmar Lenk            : GEPOL surface, SMD
   Dimitrios Liakos       : Extrapolation schemes; Compound Job, initial MDCI parallelization
   Dimitrios Manganas     : Further ROCIS development; embedding schemes
   Dimitrios Pantazis     : SARC Basis sets
   Taras Petrenko         : DFT Hessian,TD-DFT gradient, ASA, ECA, R-Raman, ABS, FL, XAS/XES, NRVS
   Peter Pinski           : DLPNO-MP2, DLPNO-MP2 Gradient
   Christoph Reimann      : Effective Core Potentials
   Marius Retegan         : Local ZFS, SOC
   Christoph Riplinger    : Optimizer, TS searches, QM/MM, DLPNO-CCSD(T), (RO)-DLPNO pert. Triples
   Tobias Risthaus        : Range-separated hybrids, TD-DFT gradient, RPA, STAB
   Michael Roemelt        : Original ROCIS implementation
   Masaaki Saitow         : Open-shell DLPNO-CCSD energy and density
   Barbara Sandhoefer     : DKH picture change effects
   Avijit Sen             : IP-ROCIS
   Kantharuban Sivalingam : CASSCF convergence, NEVPT2, FIC-MRCI
   Bernardo de Souza      : ESD, SOC TD-DFT
   Georgi Stoychev        : AutoAux, RI-MP2 NMR
   Willem Van den Heuvel  : Paramagnetic NMR
   Boris Wezisla          : Elementary symmetry handling
   Frank Wennmohs         : Technical directorship


 We gratefully acknowledge several colleagues who have allowed us to
 interface, adapt or use parts of their codes:
   Stefan Grimme, W. Hujo, H. Kruse,             : VdW corrections, initial TS optimization,
                  C. Bannwarth                     DFT functionals, gCP, sTDA/sTD-DF
   Ed Valeev, F. Pavosevic, A. Kumar             : LibInt (2-el integral package), F12 methods
   Garnet Chan, S. Sharma, J. Yang, R. Olivares  : DMRG
   Ulf Ekstrom                                   : XCFun DFT Library
   Mihaly Kallay                                 : mrcc  (arbitrary order and MRCC methods)
   Andreas Klamt, Michael Diedenhofen            : otool_cosmo (COSMO solvation model)
   Jiri Pittner, Ondrej Demel                    : Mk-CCSD
   Frank Weinhold                                : gennbo (NPA and NBO analysis)
   Christopher J. Cramer and Donald G. Truhlar   : smd solvation model
   Lars Goerigk                                  : TD-DFT with DH, B97 family of functionals
   V. Asgeirsson, H. Jonsson                     : NEB implementation
   FAccTs GmbH                                   : IRC, NEB, NEB-TS, Multilevel, MM, QM/MM, CI optimization
   S Lehtola, MJT Oliveira, MAL Marques          : LibXC Library


 Your calculation uses the libint2 library for the computation of 2-el integrals
 For citations please refer to: http://libint.valeyev.net

 Your ORCA version has been built with support for libXC version: 4.2.3
 For citations please refer to: https://tddft.org/programs/libxc/

 This ORCA versions uses:
   CBLAS   interface :  Fast vector & matrix operations
   LAPACKE interface :  Fast linear algebra routines
   SCALAPACK package :  Parallel linear algebra routines




***************************************
The coordinates will be read from file: 28.xyz
***************************************


Your calculation utilizes the atom-pairwise dispersion correction
with the Becke-Johnson damping scheme (D3BJ)
Cite in your paper:
S.Grimme, S.Ehrlich, L.Goerigk, J Comput Chem, (2011), 32, 1456–1465 
S.Grimme, J.Antony, S.Ehrlich and H.Krieg, J.Chem.Phys., 132, (2010), 154104 
   

----- Orbital basis set information -----
Your calculation utilizes the basis: def2-TZVP
   F. Weigend and R. Ahlrichs, Phys. Chem. Chem. Phys. 7, 3297 (2005).

----- AuxJ basis set information -----
Your calculation utilizes the auxiliary basis: def2/J
   F. Weigend, Phys. Chem. Chem. Phys. 8, 1057 (2006).

================================================================================
                                        WARNINGS
                       Please study these warnings very carefully!
================================================================================


WARNING: Geometry Optimization
  ===> : Switching off AutoStart
         For restart on a previous wavefunction, please use MOREAD

INFO   : the flag for use of LIBINT has been found!

================================================================================
                                       INPUT FILE
================================================================================
NAME = 28.inp
|  1> !RI BP86 def2-tzvp def2/J D3BJ VeryTightSCF VeryTightOpt Grid5 FinalGrid6 freq
|  2> %maxcore 4000
|  3> %pal nprocs 24
|  4> end
|  5> * xyzfile 0 1 28.xyz 
|  6> 
|  7>                          ****END OF INPUT****
================================================================================

                       *****************************
                       * Geometry Optimization Run *
                       *****************************

Geometry optimization settings:
Update method            Update   .... BFGS
Choice of coordinates    CoordSys .... Z-matrix Internals
Initial Hessian          InHess   .... Almoef's Model

Convergence Tolerances:
Energy Change            TolE     ....  2.0000e-07 Eh
Max. Gradient            TolMAXG  ....  3.0000e-05 Eh/bohr
RMS Gradient             TolRMSG  ....  8.0000e-06 Eh/bohr
Max. Displacement        TolMAXD  ....  2.0000e-04 bohr
RMS Displacement         TolRMSD  ....  1.0000e-04 bohr
Strict Convergence                ....  False
------------------------------------------------------------------------------
                        ORCA OPTIMIZATION COORDINATE SETUP
------------------------------------------------------------------------------

The optimization will be done in new redundant internal coordinates
Making redundant internal coordinates   ...  (new redundants) done
Evaluating the initial hessian          ...  (Almloef) done
Evaluating the coordinates              ...  done
Calculating the B-matrix                .... done
Calculating the G-matrix                .... done
Diagonalizing the G-matrix              .... done
Small eigenvalue found = 3.470e-04
Small eigenvalue found = 5.095e-04
Small eigenvalue found = 1.965e-03
Small eigenvalue found = 2.495e-03
Small eigenvalue found = 2.937e-03
Small eigenvalue found = 4.508e-03
Small eigenvalue found = 6.127e-03
Small eigenvalue found = 6.229e-03
Small eigenvalue found = 7.570e-03
Small eigenvalue found = 8.727e-03
Small eigenvalue found = 9.227e-03
Small eigenvalue found = 1.209e-02
Small eigenvalue found = 1.373e-02
Small eigenvalue found = 1.548e-02
Small eigenvalue found = 1.600e-02
Small eigenvalue found = 1.843e-02
Small eigenvalue found = 1.951e-02
Small eigenvalue found = 2.257e-02
Small eigenvalue found = 2.408e-02
Small eigenvalue found = 2.677e-02
The first mode is                       ....  324
The number of degrees of freedom        ....  339

    -----------------------------------------------------------------
                    Redundant Internal Coordinates


    -----------------------------------------------------------------
         Definition                    Initial Value    Approx d2E/dq
    -----------------------------------------------------------------
      1. B(C   1,O   0)                  1.2313         1.002552   
      2. B(C   2,C   1)                  1.5569         0.338464   
      3. B(C   3,C   2)                  1.5276         0.376861   
      4. B(C   4,C   3)                  1.5342         0.367914   
      5. B(C   5,C   4)                  1.5318         0.371156   
      6. B(N   6,C   2)                  1.4840         0.396196   
      7. B(N   6,C   5)                  1.4805         0.401340   
      8. B(C   7,N   6)                  1.3522         0.642978   
      9. B(O   8,C   7)                  1.2492         0.938538   
     10. B(N   9,C   1)                  1.3540         0.638668   
     11. B(C  10,N   9)                  1.4623         0.429014   
     12. B(C  11,C  10)                  1.5366         0.364579   
     13. B(N  12,C  11)                  1.3662         0.610668   
     14. B(C  13,N  12)                  1.4543         0.441788   
     15. B(C  14,C  13)                  1.5288         0.375281   
     16. B(N  15,C  14)                  1.3444         0.661569   
     17. B(C  16,N  15)                  1.4595         0.433447   
     18. B(C  17,C  16)                  1.5335         0.368854   
     19. B(C  18,C  17)                  1.5490         0.348439   
     20. B(C  19,C  18)                  1.5482         0.349448   
     21. B(N  20,C  19)                  1.3587         0.627736   
     22. B(C  21,N  20)                  1.4525         0.444716   
     23. B(C  22,C  21)                  1.5381         0.362618   
     24. B(N  23,C  22)                  1.3628         0.618373   
     25. B(C  24,N  23)                  1.4536         0.443060   
     26. B(C  24,C   7)                  1.5244         0.381408   
     27. B(C  25,C  24)                  1.5427         0.356516   
     28. B(O  26,C  22)                  1.2339         0.993120   
     29. B(C  27,C  21)                  1.5442         0.354549   
     30. B(C  28,C  27)                  1.5357         0.365840   
     31. B(C  29,C  28)                  1.5322         0.370528   
     32. B(C  30,C  28)                  1.5333         0.369105   
     33. B(O  31,C  19)                  1.2299         1.007708   
     34. B(C  32,C  18)                  1.5318         0.371155   
     35. B(C  33,C  32)                  1.5141         0.396089   
     36. B(C  34,C  33)                  1.5272         0.377428   
     37. B(C  35,C  34)                  1.5330         0.369525   
     38. B(C  36,C  35)                  1.5330         0.369443   
     39. B(C  37,C  36)                  1.5330         0.369424   
     40. B(C  38,C  37)                  1.5339         0.368275   
     41. B(C  39,C  38)                  1.5316         0.371437   
     42. B(C  40,C  39)                  1.5310         0.372219   
     43. B(C  41,C  40)                  1.5298         0.373860   
     44. B(O  42,C  32)                  1.2236         1.031204   
     45. B(O  43,C  17)                  1.4152         0.510058   
     46. B(O  44,C  14)                  1.2459         0.950253   
     47. B(C  45,C  13)                  1.5380         0.362745   
     48. B(C  46,C  45)                  1.5282         0.376003   
     49. B(O  47,C  11)                  1.2289         1.011245   
     50. B(C  48,C  10)                  1.5544         0.341577   
     51. B(C  49,C  48)                  1.5319         0.370991   
     52. B(C  50,C  48)                  1.5306         0.372794   
     53. B(H  51,C   2)                  1.1008         0.346032   
     54. B(H  52,C   3)                  1.0997         0.347456   
     55. B(H  53,C   3)                  1.0954         0.353078   
     56. B(H  54,C   4)                  1.0990         0.348348   
     57. B(H  55,C   4)                  1.0968         0.351180   
     58. B(H  56,C   5)                  1.0980         0.349686   
     59. B(H  57,C   5)                  1.1016         0.345051   
     60. B(H  58,N   9)                  1.0308         0.400841   
     61. B(H  59,C  10)                  1.0996         0.347631   
     62. B(H  60,N  12)                  1.0178         0.420524   
     63. B(H  61,C  13)                  1.1013         0.345404   
     64. B(H  62,N  15)                  1.0153         0.424330   
     65. B(H  63,C  16)                  1.0980         0.349671   
     66. B(H  64,C  16)                  1.0956         0.352775   
     67. B(H  65,C  17)                  1.1100         0.334570   
     68. B(H  66,C  18)                  1.1036         0.342563   
     69. B(H  67,N  20)                  1.0265         0.407207   
     70. B(H  68,C  21)                  1.0976         0.350145   
     71. B(H  69,O  44)                  2.1097         0.007615   
     72. B(H  69,N  23)                  1.0225         0.413271   
     73. B(H  70,C  24)                  1.0989         0.348569   
     74. B(H  71,C  25)                  1.0960         0.352256   
     75. B(H  72,C  25)                  1.0994         0.347890   
     76. B(H  73,C  25)                  1.0979         0.349851   
     77. B(H  74,C  27)                  1.1039         0.342143   
     78. B(H  75,C  27)                  1.1035         0.342736   
     79. B(H  76,C  28)                  1.1023         0.344222   
     80. B(H  77,C  29)                  1.0975         0.350254   
     81. B(H  78,C  29)                  1.1022         0.344284   
     82. B(H  79,C  29)                  1.0997         0.347527   
     83. B(H  80,C  30)                  1.1006         0.346371   
     84. B(H  81,C  30)                  1.0996         0.347637   
     85. B(H  82,C  30)                  1.1020         0.344616   
     86. B(H  83,C  33)                  1.1051         0.340726   
     87. B(H  84,C  33)                  1.1032         0.343037   
     88. B(H  85,C  34)                  1.1010         0.345818   
     89. B(H  86,C  34)                  1.1000         0.347050   
     90. B(H  87,C  35)                  1.1053         0.340393   
     91. B(H  88,C  35)                  1.1017         0.344982   
     92. B(H  89,C  36)                  1.1036         0.342490   
     93. B(H  90,C  36)                  1.1024         0.344110   
     94. B(H  91,C  37)                  1.1031         0.343244   
     95. B(H  92,C  37)                  1.1040         0.342054   
     96. B(H  93,C  38)                  1.1033         0.342877   
     97. B(H  94,C  38)                  1.1047         0.341194   
     98. B(H  95,C  39)                  1.1029         0.343461   
     99. B(H  96,C  39)                  1.1050         0.340856   
    100. B(H  97,C  40)                  1.1035         0.342677   
    101. B(H  98,C  40)                  1.1035         0.342686   
    102. B(H  99,C  41)                  1.0995         0.347804   
    103. B(H 100,C  41)                  1.1007         0.346201   
    104. B(H 101,C  41)                  1.1007         0.346212   
    105. B(H 102,O  43)                  0.9795         0.483969   
    106. B(H 103,C  45)                  1.1007         0.346214   
    107. B(H 104,C  45)                  1.0996         0.347667   
    108. B(H 105,C  46)                  1.0980         0.349712   
    109. B(H 106,H  84)                  3.6270         0.000006   
    110. B(H 106,C  46)                  1.1007         0.346201   
    111. B(H 107,C  46)                  1.1006         0.346358   
    112. B(H 108,C  48)                  1.1014         0.345360   
    113. B(H 109,H  74)                  4.6636         0.000000   
    114. B(H 109,C  49)                  1.1006         0.346312   
    115. B(H 110,C  49)                  1.1004         0.346582   
    116. B(H 111,C  49)                  1.0989         0.348479   
    117. B(H 112,C  50)                  1.0991         0.348240   
    118. B(H 113,C  50)                  1.0990         0.348340   
    119. B(H 114,C  50)                  1.1010         0.345816   
    120. A(O   0,C   1,N   9)          124.7109         0.469962   
    121. A(C   2,C   1,N   9)          112.8519         0.389421   
    122. A(O   0,C   1,C   2)          122.3998         0.421701   
    123. A(C   1,C   2,H  51)          107.2747         0.317054   
    124. A(N   6,C   2,H  51)          107.8650         0.323385   
    125. A(C   1,C   2,N   6)          113.4484         0.358647   
    126. A(C   1,C   2,C   3)          111.7053         0.357823   
    127. A(C   3,C   2,H  51)          113.3543         0.322669   
    128. A(C   3,C   2,N   6)          103.2400         0.365286   
    129. A(C   4,C   3,H  53)          112.7788         0.322464   
    130. A(C   4,C   3,H  52)          110.9237         0.321617   
    131. A(C   2,C   3,C   4)          102.9519         0.362948   
    132. A(C   2,C   3,H  53)          110.7467         0.323737   
    133. A(C   2,C   3,H  52)          109.8869         0.322886   
    134. A(H  52,C   3,H  53)          109.4036         0.288323   
    135. A(H  54,C   4,H  55)          108.2557         0.288195   
    136. A(C   3,C   4,H  55)          113.4690         0.322179   
    137. A(C   3,C   4,C   5)          103.4537         0.362003   
    138. A(C   3,C   4,H  54)          109.3619         0.321752   
    139. A(C   5,C   4,H  55)          111.9019         0.322643   
    140. A(C   5,C   4,H  54)          110.3334         0.322215   
    141. A(H  56,C   5,H  57)          108.3076         0.287575   
    142. A(C   4,C   5,N   6)          103.4877         0.365139   
    143. A(C   4,C   5,H  56)          112.9471         0.322418   
    144. A(N   6,C   5,H  57)          110.1539         0.323919   
    145. A(N   6,C   5,H  56)          110.6872         0.324630   
    146. A(C   4,C   5,H  57)          111.2126         0.321714   
    147. A(C   5,N   6,C   7)          125.7414         0.399136   
    148. A(C   2,N   6,C   7)          121.9801         0.398232   
    149. A(C   2,N   6,C   5)          111.4673         0.366943   
    150. A(O   8,C   7,C  24)          120.0909         0.425752   
    151. A(N   6,C   7,O   8)          122.4074         0.464887   
    152. A(N   6,C   7,C  24)          117.3599         0.398124   
    153. A(C   1,N   9,C  10)          123.1100         0.403373   
    154. A(C  10,N   9,H  58)          120.5071         0.332846   
    155. A(C   1,N   9,H  58)          115.8927         0.355825   
    156. A(C  48,C  10,H  59)          107.0653         0.317766   
    157. A(C  11,C  10,H  59)          105.3789         0.321165   
    158. A(N   9,C  10,C  11)          107.5412         0.368206   
    159. A(N   9,C  10,C  48)          112.9877         0.364118   
    160. A(N   9,C  10,H  59)          108.4448         0.327894   
    161. A(C  11,C  10,C  48)          114.9939         0.356368   
    162. A(N  12,C  11,O  47)          122.8554         0.466853   
    163. A(C  10,C  11,O  47)          122.8809         0.428007   
    164. A(C  10,C  11,N  12)          114.2307         0.391433   
    165. A(C  13,N  12,H  60)          115.3633         0.337148   
    166. A(C  11,N  12,C  13)          123.1255         0.402273   
    167. A(C  11,N  12,H  60)          120.4459         0.356013   
    168. A(C  14,C  13,C  45)          110.9692         0.361812   
    169. A(N  12,C  13,H  61)          107.1175         0.329136   
    170. A(C  14,C  13,H  61)          111.8921         0.322351   
    171. A(N  12,C  13,C  14)          104.6251         0.371913   
    172. A(C  45,C  13,H  61)          109.3978         0.320563   
    173. A(N  12,C  13,C  45)          112.7405         0.369745   
    174. A(C  13,C  14,N  15)          117.4513         0.398987   
    175. A(N  15,C  14,O  44)          124.0718         0.468383   
    176. A(C  13,C  14,O  44)          118.4660         0.425464   
    177. A(C  14,N  15,H  62)          116.8669         0.361450   
    178. A(C  16,N  15,H  62)          117.8271         0.336584   
    179. A(C  14,N  15,C  16)          124.9688         0.406628   
    180. A(H  63,C  16,H  64)          107.4493         0.288571   
    181. A(C  17,C  16,H  64)          111.1453         0.322554   
    182. A(N  15,C  16,H  63)          108.2756         0.328768   
    183. A(C  17,C  16,H  63)          107.4088         0.322087   
    184. A(N  15,C  16,C  17)          113.6314         0.369596   
    185. A(N  15,C  16,H  64)          108.7078         0.329248   
    186. A(O  43,C  17,H  65)          110.4776         0.335292   
    187. A(C  18,C  17,H  65)          106.1765         0.316815   
    188. A(C  16,C  17,H  65)          107.9371         0.319769   
    189. A(C  16,C  17,C  18)          113.9952         0.358284   
    190. A(C  18,C  17,O  43)          112.6655         0.376397   
    191. A(C  16,C  17,O  43)          105.5442         0.380125   
    192. A(C  19,C  18,H  66)          109.1145         0.318185   
    193. A(C  17,C  18,H  66)          108.4666         0.318035   
    194. A(C  17,C  18,C  32)          110.4175         0.358663   
    195. A(C  17,C  18,C  19)          113.2753         0.355010   
    196. A(C  19,C  18,C  32)          107.5117         0.358840   
    197. A(C  32,C  18,H  66)          107.9200         0.321333   
    198. A(C  18,C  19,N  20)          113.6545         0.390420   
    199. A(N  20,C  19,O  31)          124.9012         0.468917   
    200. A(C  18,C  19,O  31)          121.4376         0.424504   
    201. A(C  19,N  20,H  67)          118.0246         0.355734   
    202. A(C  19,N  20,C  21)          123.6472         0.404705   
    203. A(C  21,N  20,H  67)          118.1235         0.335716   
    204. A(C  27,C  21,H  68)          110.6688         0.320080   
    205. A(C  22,C  21,H  68)          105.7894         0.321260   
    206. A(N  20,C  21,H  68)          106.7090         0.330239   
    207. A(N  20,C  21,C  22)          113.6429         0.370143   
    208. A(C  22,C  21,C  27)          110.7520         0.358304   
    209. A(N  20,C  21,C  27)          109.1597         0.368715   
    210. A(C  21,C  22,N  23)          117.0722         0.391923   
    211. A(C  21,C  22,O  26)          120.6718         0.426211   
    212. A(N  23,C  22,O  26)          122.2132         0.466379   
    213. A(C  22,N  23,C  24)          120.0237         0.403368   
    214. A(C  24,N  23,H  69)          117.5994         0.336334   
    215. A(C  22,N  23,H  69)          122.3714         0.355719   
    216. A(C  25,C  24,H  70)          108.5667         0.320134   
    217. A(N  23,C  24,H  70)          107.7496         0.329789   
    218. A(C   7,C  24,H  70)          111.6725         0.323692   
    219. A(N  23,C  24,C  25)          111.7789         0.368829   
    220. A(C   7,C  24,N  23)          109.0425         0.373137   
    221. A(C   7,C  24,C  25)          108.0654         0.361742   
    222. A(H  71,C  25,H  73)          109.4976         0.288527   
    223. A(C  24,C  25,H  73)          109.8462         0.320326   
    224. A(H  71,C  25,H  72)          108.7302         0.288274   
    225. A(C  24,C  25,H  72)          111.0610         0.320032   
    226. A(C  24,C  25,H  71)          108.9009         0.320685   
    227. A(H  72,C  25,H  73)          108.7810         0.287965   
    228. A(C  28,C  27,H  75)          109.0666         0.320602   
    229. A(C  21,C  27,C  28)          116.5882         0.358844   
    230. A(H  74,C  27,H  75)          106.5111         0.286297   
    231. A(C  21,C  27,H  75)          106.7372         0.318964   
    232. A(C  28,C  27,H  74)          109.3460         0.320511   
    233. A(C  21,C  27,H  74)          108.1221         0.318874   
    234. A(C  29,C  28,C  30)          111.1255         0.362098   
    235. A(C  27,C  28,C  30)          109.3590         0.361312   
    236. A(C  27,C  28,C  29)          111.9531         0.361550   
    237. A(C  30,C  28,H  76)          108.3338         0.321295   
    238. A(C  29,C  28,H  76)          107.7137         0.321498   
    239. A(C  27,C  28,H  76)          108.2347         0.320829   
    240. A(C  28,C  29,H  79)          110.6483         0.322001   
    241. A(H  78,C  29,H  79)          107.6929         0.287197   
    242. A(H  77,C  29,H  79)          107.5651         0.287970   
    243. A(H  77,C  29,H  78)          108.5781         0.287548   
    244. A(C  28,C  29,H  78)          110.8415         0.321507   
    245. A(C  28,C  29,H  77)          111.3751         0.322414   
    246. A(H  81,C  30,H  82)          107.6082         0.287255   
    247. A(H  80,C  30,H  82)          107.7191         0.287091   
    248. A(C  28,C  30,H  82)          110.8855         0.321356   
    249. A(H  80,C  30,H  81)          107.9207         0.287483   
    250. A(C  28,C  30,H  81)          111.0148         0.321815   
    251. A(C  28,C  30,H  80)          111.5255         0.321623   
    252. A(C  33,C  32,O  42)          122.5089         0.435959   
    253. A(C  18,C  32,O  42)          120.8447         0.430891   
    254. A(C  18,C  32,C  33)          116.6062         0.366601   
    255. A(C  32,C  33,C  34)          114.3719         0.367656   
    256. A(C  34,C  33,H  84)          111.5639         0.322289   
    257. A(H  83,C  33,H  84)          105.4859         0.286151   
    258. A(C  32,C  33,H  84)          109.1511         0.324851   
    259. A(C  34,C  33,H  83)          111.0556         0.321932   
    260. A(C  32,C  33,H  83)          104.6309         0.324490   
    261. A(C  33,C  34,C  35)          112.6384         0.363312   
    262. A(H  85,C  34,H  86)          106.9530         0.287335   
    263. A(C  35,C  34,H  86)          110.1743         0.321786   
    264. A(C  33,C  34,H  86)          108.6616         0.322904   
    265. A(C  35,C  34,H  85)          109.3970         0.321599   
    266. A(C  33,C  34,H  85)          108.8457         0.322715   
    267. A(C  34,C  35,C  36)          113.9662         0.361987   
    268. A(H  87,C  35,H  88)          106.5667         0.286359   
    269. A(C  36,C  35,H  88)          108.8627         0.321460   
    270. A(C  34,C  35,H  88)          108.7089         0.321471   
    271. A(C  36,C  35,H  87)          109.3177         0.320756   
    272. A(C  34,C  35,H  87)          109.1559         0.320768   
    273. A(C  35,C  36,C  37)          114.1349         0.361971   
    274. A(H  89,C  36,H  90)          106.1024         0.286521   
    275. A(C  37,C  36,H  90)          110.0236         0.321324   
    276. A(C  35,C  36,H  90)          108.6887         0.321327   
    277. A(C  37,C  36,H  89)          108.6170         0.321076   
    278. A(C  35,C  36,H  89)          108.9634         0.321079   
    279. A(C  36,C  37,C  38)          114.0204         0.361775   
    280. A(H  91,C  37,H  92)          106.1122         0.286351   
    281. A(C  38,C  37,H  92)          109.0539         0.320845   
    282. A(C  36,C  37,H  92)          108.6190         0.321009   
    283. A(C  38,C  37,H  91)          108.8127         0.321028   
    284. A(C  36,C  37,H  91)          109.9215         0.321191   
    285. A(C  37,C  38,C  39)          114.3265         0.362111   
    286. A(H  93,C  38,H  94)          106.0081         0.286191   
    287. A(C  39,C  38,H  94)          109.2241         0.321162   
    288. A(C  37,C  38,H  94)          109.2394         0.320713   
    289. A(C  39,C  38,H  93)          108.7184         0.321421   
    290. A(C  37,C  38,H  93)          108.9943         0.320971   
    291. A(C  38,C  39,C  40)          113.2599         0.362770   
    292. A(H  95,C  39,H  96)          105.9457         0.286223   
    293. A(C  40,C  39,H  96)          109.2864         0.321221   
    294. A(C  38,C  39,H  96)          109.1552         0.321110   
    295. A(C  40,C  39,H  95)          108.9265         0.321621   
    296. A(C  38,C  39,H  95)          110.0053         0.321510   
    297. A(C  39,C  40,C  41)          113.1151         0.363173   
    298. A(H  97,C  40,H  98)          105.9349         0.286360   
    299. A(C  41,C  40,H  98)          109.6288         0.321734   
    300. A(C  39,C  40,H  98)          109.1010         0.321502   
    301. A(C  41,C  40,H  97)          109.6619         0.321732   
    302. A(C  39,C  40,H  97)          109.1451         0.321501   
    303. A(H 100,C  41,H 101)          107.4304         0.287276   
    304. A(H  99,C  41,H 101)          107.6943         0.287484   
    305. A(C  40,C  41,H 101)          111.0915         0.322274   
    306. A(H  99,C  41,H 100)          107.6946         0.287482   
    307. A(C  40,C  41,H 100)          111.0811         0.322272   
    308. A(C  40,C  41,H  99)          111.6568         0.322516   
    309. A(C  17,O  43,H 102)          105.3187         0.353636   
    310. A(C  13,C  45,C  46)          112.8957         0.361931   
    311. A(C  46,C  45,H 104)          110.6724         0.322797   
    312. A(C  13,C  45,H 104)          106.9922         0.320905   
    313. A(C  46,C  45,H 103)          110.6648         0.322576   
    314. A(C  13,C  45,H 103)          107.9729         0.320686   
    315. A(H 103,C  45,H 104)          107.4109         0.287466   
    316. A(H 106,C  46,H 107)          107.6797         0.287295   
    317. A(H 105,C  46,H 107)          107.5602         0.287749   
    318. A(C  45,C  46,H 107)          111.3376         0.322598   
    319. A(H 105,C  46,H 106)          107.4222         0.287728   
    320. A(C  45,C  46,H 106)          111.6638         0.322574   
    321. A(C  45,C  46,H 105)          110.9764         0.323108   
    322. A(C  50,C  48,H 108)          108.6779         0.321993   
    323. A(C  49,C  48,H 108)          107.7227         0.321737   
    324. A(C  10,C  48,H 108)          103.8613         0.317426   
    325. A(C  49,C  48,C  50)          111.6581         0.362791   
    326. A(C  10,C  48,C  50)          110.1050         0.357720   
    327. A(C  10,C  48,C  49)          114.3635         0.357425   
    328. A(H 110,C  49,H 111)          106.9649         0.287619   
    329. A(H 109,C  49,H 111)          107.3325         0.287584   
    330. A(C  48,C  49,H 111)          110.0098         0.322212   
    331. A(H 109,C  49,H 110)          108.7643         0.287339   
    332. A(C  48,C  49,H 110)          111.9591         0.321924   
    333. A(C  48,C  49,H 109)          111.5971         0.321882   
    334. A(H 113,C  50,H 114)          107.7430         0.287501   
    335. A(H 112,C  50,H 114)          107.6340         0.287489   
    336. A(C  48,C  50,H 114)          111.1526         0.322062   
    337. A(H 112,C  50,H 113)          108.0569         0.287816   
    338. A(C  48,C  50,H 113)          110.6066         0.322446   
    339. A(C  48,C  50,H 112)          111.4924         0.322431   
    340. D(H  51,C   2,C   1,N   9)    -59.0743         0.008713   
    341. D(C   3,C   2,C   1,N   9)    176.1330         0.008713   
    342. D(N   6,C   2,C   1,N   9)     59.9429         0.008713   
    343. D(N   6,C   2,C   1,O   0)   -122.1860         0.008713   
    344. D(C   3,C   2,C   1,O   0)     -5.9959         0.008713   
    345. D(H  51,C   2,C   1,O   0)    118.7968         0.008713   
    346. D(C   4,C   3,C   2,N   6)     33.1578         0.011329   
    347. D(H  53,C   3,C   2,H  51)    -89.6334         0.011329   
    348. D(H  53,C   3,C   2,C   1)     31.6998         0.011329   
    349. D(C   4,C   3,C   2,H  51)    149.5729         0.011329   
    350. D(H  53,C   3,C   2,N   6)    153.9515         0.011329   
    351. D(H  52,C   3,C   2,H  51)     31.3515         0.011329   
    352. D(C   4,C   3,C   2,C   1)    -89.0939         0.011329   
    353. D(H  52,C   3,C   2,C   1)    152.6847         0.011329   
    354. D(H  52,C   3,C   2,N   6)    -85.0636         0.011329   
    355. D(H  55,C   4,C   3,H  53)     79.5748         0.010828   
    356. D(H  55,C   4,C   3,H  52)    -43.5399         0.010828   
    357. D(H  54,C   4,C   3,H  52)   -164.5074         0.010828   
    358. D(H  55,C   4,C   3,C   2)   -161.0314         0.010828   
    359. D(H  54,C   4,C   3,H  53)    -41.3928         0.010828   
    360. D(C   5,C   4,C   3,C   2)    -39.5651         0.010828   
    361. D(H  54,C   4,C   3,C   2)     78.0010         0.010828   
    362. D(C   5,C   4,C   3,H  53)   -158.9589         0.010828   
    363. D(C   5,C   4,C   3,H  52)     77.9265         0.010828   
    364. D(N   6,C   5,C   4,C   3)     30.1372         0.011008   
    365. D(H  57,C   5,C   4,C   3)    -88.1023         0.011008   
    366. D(H  56,C   5,C   4,H  55)    -87.6083         0.011008   
    367. D(H  56,C   5,C   4,C   3)    149.8766         0.011008   
    368. D(H  57,C   5,C   4,H  54)    155.0132         0.011008   
    369. D(H  56,C   5,C   4,H  54)     32.9921         0.011008   
    370. D(H  57,C   5,C   4,H  55)     34.4128         0.011008   
    371. D(N   6,C   5,C   4,H  54)    -86.7472         0.011008   
    372. D(N   6,C   5,C   4,H  55)    152.6524         0.011008   
    373. D(C   5,N   6,C   2,C   3)    -14.8935         0.013408   
    374. D(C   7,N   6,C   5,H  57)    -60.4186         0.013751   
    375. D(C   7,N   6,C   5,H  56)     59.3340         0.013751   
    376. D(C   7,N   6,C   5,C   4)   -179.3912         0.013751   
    377. D(C   2,N   6,C   5,H  57)    109.3738         0.013751   
    378. D(C   2,N   6,C   5,H  56)   -130.8736         0.013751   
    379. D(C   7,N   6,C   2,H  51)     35.0978         0.013408   
    380. D(C   2,N   6,C   5,C   4)     -9.5988         0.013751   
    381. D(C   7,N   6,C   2,C   3)    155.3434         0.013408   
    382. D(C   5,N   6,C   2,C   1)    106.1831         0.013408   
    383. D(C   7,N   6,C   2,C   1)    -83.5800         0.013408   
    384. D(C   5,N   6,C   2,H  51)   -135.1391         0.013408   
    385. D(C  24,C   7,N   6,C   5)      6.0924         0.033676   
    386. D(C  24,C   7,N   6,C   2)   -162.6961         0.033676   
    387. D(O   8,C   7,N   6,C   5)   -178.2363         0.033676   
    388. D(O   8,C   7,N   6,C   2)     12.9752         0.033676   
    389. D(H  58,N   9,C   1,O   0)   -176.7804         0.033188   
    390. D(C  10,N   9,C   1,C   2)    173.0224         0.033188   
    391. D(H  58,N   9,C   1,C   2)      1.0329         0.033188   
    392. D(C  10,N   9,C   1,O   0)     -4.7909         0.033188   
    393. D(H  59,C  10,N   9,C   1)    -45.3646         0.015692   
    394. D(C  48,C  10,N   9,H  58)   -115.2073         0.015692   
    395. D(C  48,C  10,N   9,C   1)     73.1594         0.015692   
    396. D(C  11,C  10,N   9,C   1)   -158.8564         0.015692   
    397. D(H  59,C  10,N   9,H  58)    126.2687         0.015692   
    398. D(C  11,C  10,N   9,H  58)     12.7768         0.015692   
    399. D(O  47,C  11,C  10,N   9)    121.5770         0.009975   
    400. D(N  12,C  11,C  10,H  59)   -171.9218         0.009975   
    401. D(N  12,C  11,C  10,C  48)     70.4309         0.009975   
    402. D(N  12,C  11,C  10,N   9)    -56.3855         0.009975   
    403. D(O  47,C  11,C  10,H  59)      6.0407         0.009975   
    404. D(O  47,C  11,C  10,C  48)   -111.6066         0.009975   
    405. D(H  60,N  12,C  11,O  47)   -179.9618         0.030127   
    406. D(H  60,N  12,C  11,C  10)     -1.9987         0.030127   
    407. D(C  13,N  12,C  11,O  47)    -12.3184         0.030127   
    408. D(C  13,N  12,C  11,C  10)    165.6447         0.030127   
    409. D(H  61,C  13,N  12,C  11)    -18.8983         0.016644   
    410. D(H  61,C  13,N  12,H  60)    149.3210         0.016644   
    411. D(C  45,C  13,N  12,H  60)    -90.2882         0.016644   
    412. D(C  45,C  13,N  12,C  11)    101.4925         0.016644   
    413. D(C  14,C  13,N  12,C  11)   -137.8173         0.016644   
    414. D(C  14,C  13,N  12,H  60)     30.4021         0.016644   
    415. D(O  44,C  14,C  13,C  45)     69.0717         0.010526   
    416. D(O  44,C  14,C  13,N  12)    -52.7882         0.010526   
    417. D(N  15,C  14,C  13,H  61)     10.4249         0.010526   
    418. D(N  15,C  14,C  13,C  45)   -112.0770         0.010526   
    419. D(O  44,C  14,C  13,H  61)   -168.4265         0.010526   
    420. D(N  15,C  14,C  13,N  12)    126.0631         0.010526   
    421. D(H  62,N  15,C  14,O  44)    178.4718         0.035830   
    422. D(H  62,N  15,C  14,C  13)     -0.3091         0.035830   
    423. D(C  16,N  15,C  14,O  44)      5.3075         0.035830   
    424. D(C  16,N  15,C  14,C  13)   -173.4734         0.035830   
    425. D(H  64,C  16,N  15,H  62)   -150.7223         0.016018   
    426. D(H  64,C  16,N  15,C  14)     22.3821         0.016018   
    427. D(H  63,C  16,N  15,H  62)    -34.2838         0.016018   
    428. D(H  63,C  16,N  15,C  14)    138.8207         0.016018   
    429. D(C  17,C  16,N  15,C  14)   -101.9427         0.016018   
    430. D(C  17,C  16,N  15,H  62)     84.9529         0.016018   
    431. D(H  65,C  17,C  16,H  64)   -168.7544         0.010880   
    432. D(H  65,C  17,C  16,H  63)     73.9734         0.010880   
    433. D(H  65,C  17,C  16,N  15)    -45.7567         0.010880   
    434. D(O  43,C  17,C  16,H  64)     73.0999         0.010880   
    435. D(O  43,C  17,C  16,H  63)    -44.1723         0.010880   
    436. D(O  43,C  17,C  16,N  15)   -163.9024         0.010880   
    437. D(C  18,C  17,C  16,H  64)    -51.0687         0.010880   
    438. D(C  18,C  17,C  16,H  63)   -168.3409         0.010880   
    439. D(C  18,C  17,C  16,N  15)     71.9290         0.010880   
    440. D(H  66,C  18,C  17,H  65)     65.3632         0.009789   
    441. D(H  66,C  18,C  17,O  43)   -173.5799         0.009789   
    442. D(H  66,C  18,C  17,C  16)    -53.3304         0.009789   
    443. D(C  32,C  18,C  17,O  43)     68.3567         0.009789   
    444. D(C  32,C  18,C  17,C  16)   -171.3938         0.009789   
    445. D(C  32,C  18,C  17,H  65)    -52.7002         0.009789   
    446. D(C  19,C  18,C  17,H  65)   -173.3401         0.009789   
    447. D(C  19,C  18,C  17,O  43)    -52.2832         0.009789   
    448. D(C  19,C  18,C  17,C  16)     67.9663         0.009789   
    449. D(O  31,C  19,C  18,H  66)   -151.7794         0.009230   
    450. D(O  31,C  19,C  18,C  32)    -34.9832         0.009230   
    451. D(O  31,C  19,C  18,C  17)     87.2892         0.009230   
    452. D(N  20,C  19,C  18,H  66)     27.3254         0.009230   
    453. D(N  20,C  19,C  18,C  17)    -93.6060         0.009230   
    454. D(N  20,C  19,C  18,C  32)    144.1216         0.009230   
    455. D(H  67,N  20,C  19,O  31)   -177.6610         0.031971   
    456. D(H  67,N  20,C  19,C  18)      3.2703         0.031971   
    457. D(C  21,N  20,C  19,O  31)     -2.9670         0.031971   
    458. D(C  21,N  20,C  19,C  18)    177.9643         0.031971   
    459. D(H  68,C  21,N  20,H  67)   -176.2574         0.016867   
    460. D(H  68,C  21,N  20,C  19)      9.0535         0.016867   
    461. D(C  27,C  21,N  20,H  67)    -56.6249         0.016867   
    462. D(C  27,C  21,N  20,C  19)    128.6860         0.016867   
    463. D(C  22,C  21,N  20,H  67)     67.5401         0.016867   
    464. D(C  22,C  21,N  20,C  19)   -107.1490         0.016867   
    465. D(N  23,C  22,C  21,C  27)     95.3140         0.009876   
    466. D(N  23,C  22,C  21,N  20)    -27.9852         0.009876   
    467. D(O  26,C  22,C  21,H  68)     37.6003         0.009876   
    468. D(O  26,C  22,C  21,C  27)    -82.3598         0.009876   
    469. D(O  26,C  22,C  21,N  20)    154.3410         0.009876   
    470. D(N  23,C  22,C  21,H  68)   -144.7259         0.009876   
    471. D(H  69,N  23,C  22,O  26)    178.3332         0.030951   
    472. D(H  69,N  23,C  22,C  21)      0.6980         0.030951   
    473. D(C  24,N  23,C  22,O  26)     -2.5409         0.030951   
    474. D(C  24,N  23,C  22,C  21)    179.8240         0.030951   
    475. D(H  70,C  24,N  23,H  69)   -134.9361         0.016741   
    476. D(H  70,C  24,N  23,C  22)     45.8969         0.016741   
    477. D(C  25,C  24,N  23,H  69)    105.8604         0.016741   
    478. D(C  25,C  24,N  23,C  22)    -73.3066         0.016741   
    479. D(C   7,C  24,N  23,H  69)    -13.5575         0.016741   
    480. D(C   7,C  24,N  23,C  22)    167.2755         0.016741   
    481. D(H  70,C  24,C   7,O   8)    154.9525         0.010850   
    482. D(H  70,C  24,C   7,N   6)    -29.2711         0.010850   
    483. D(C  25,C  24,C   7,O   8)    -85.7057         0.010850   
    484. D(C  25,C  24,C   7,N   6)     90.0708         0.010850   
    485. D(N  23,C  24,C   7,O   8)     35.9924         0.010850   
    486. D(N  23,C  24,C   7,N   6)   -148.2312         0.010850   
    487. D(H  73,C  25,C  24,H  70)    179.9921         0.010212   
    488. D(H  73,C  25,C  24,N  23)    -61.2887         0.010212   
    489. D(H  73,C  25,C  24,C   7)     58.7041         0.010212   
    490. D(H  72,C  25,C  24,H  70)     59.6094         0.010212   
    491. D(H  72,C  25,C  24,N  23)    178.3286         0.010212   
    492. D(H  72,C  25,C  24,C   7)    -61.6786         0.010212   
    493. D(H  71,C  25,C  24,H  70)    -60.0974         0.010212   
    494. D(H  71,C  25,C  24,N  23)     58.6219         0.010212   
    495. D(H  71,C  25,C  24,C   7)    178.6147         0.010212   
    496. D(H  75,C  27,C  21,H  68)     61.5163         0.010108   
    497. D(H  75,C  27,C  21,C  22)    178.5129         0.010108   
    498. D(H  75,C  27,C  21,N  20)    -55.6376         0.010108   
    499. D(H  74,C  27,C  21,H  68)    175.7641         0.010108   
    500. D(H  74,C  27,C  21,C  22)    -67.2393         0.010108   
    501. D(H  74,C  27,C  21,N  20)     58.6101         0.010108   
    502. D(C  28,C  27,C  21,H  68)    -60.6225         0.010108   
    503. D(C  28,C  27,C  21,C  22)     56.3742         0.010108   
    504. D(C  28,C  27,C  21,N  20)   -177.7764         0.010108   
    505. D(H  76,C  28,C  27,H  75)    179.8380         0.010714   
    506. D(H  76,C  28,C  27,H  74)     63.7314         0.010714   
    507. D(H  76,C  28,C  27,C  21)    -59.2501         0.010714   
    508. D(C  30,C  28,C  27,H  75)     62.0121         0.010714   
    509. D(C  30,C  28,C  27,H  74)    -54.0944         0.010714   
    510. D(C  30,C  28,C  27,C  21)   -177.0759         0.010714   
    511. D(C  29,C  28,C  27,H  75)    -61.5950         0.010714   
    512. D(C  29,C  28,C  27,H  74)   -177.7016         0.010714   
    513. D(C  29,C  28,C  27,C  21)     59.3170         0.010714   
    514. D(H  79,C  29,C  28,C  30)     53.3848         0.010973   
    515. D(H  79,C  29,C  28,C  27)    175.9930         0.010973   
    516. D(H  78,C  29,C  28,H  76)    175.4636         0.010973   
    517. D(H  78,C  29,C  28,C  30)    -66.0200         0.010973   
    518. D(H  78,C  29,C  28,C  27)     56.5881         0.010973   
    519. D(H  77,C  29,C  28,H  76)     54.4605         0.010973   
    520. D(H  77,C  29,C  28,C  30)    172.9769         0.010973   
    521. D(H  79,C  29,C  28,H  76)    -65.1316         0.010973   
    522. D(H  77,C  29,C  28,C  27)    -64.4150         0.010973   
    523. D(H  82,C  30,C  28,H  76)    179.3791         0.010894   
    524. D(H  82,C  30,C  28,C  29)     61.2369         0.010894   
    525. D(H  82,C  30,C  28,C  27)    -62.8573         0.010894   
    526. D(H  81,C  30,C  28,H  76)     59.8125         0.010894   
    527. D(H  81,C  30,C  28,C  29)    -58.3297         0.010894   
    528. D(H  81,C  30,C  28,C  27)    177.5761         0.010894   
    529. D(H  80,C  30,C  28,H  76)    -60.5760         0.010894   
    530. D(H  80,C  30,C  28,C  29)   -178.7182         0.010894   
    531. D(H  80,C  30,C  28,C  27)     57.1876         0.010894   
    532. D(O  42,C  32,C  18,H  66)   -133.1287         0.010311   
    533. D(O  42,C  32,C  18,C  19)    109.2962         0.010311   
    534. D(O  42,C  32,C  18,C  17)    -14.7307         0.010311   
    535. D(C  33,C  32,C  18,H  66)     49.1210         0.010311   
    536. D(C  33,C  32,C  18,C  19)    -68.4541         0.010311   
    537. D(C  33,C  32,C  18,C  17)    167.5190         0.010311   
    538. D(H  84,C  33,C  32,O  42)    143.8450         0.011654   
    539. D(H  84,C  33,C  32,C  18)    -38.4454         0.011654   
    540. D(H  83,C  33,C  32,O  42)   -103.6492         0.011654   
    541. D(H  83,C  33,C  32,C  18)     74.0604         0.011654   
    542. D(C  34,C  33,C  32,O  42)     18.0800         0.011654   
    543. D(C  34,C  33,C  32,C  18)   -164.2104         0.011654   
    544. D(H  86,C  34,C  33,H  84)     69.7417         0.011362   
    545. D(H  86,C  34,C  33,H  83)    -47.6312         0.011362   
    546. D(H  86,C  34,C  33,C  32)   -165.7659         0.011362   
    547. D(H  85,C  34,C  33,H  84)   -174.1240         0.011362   
    548. D(H  85,C  34,C  33,H  83)     68.5032         0.011362   
    549. D(H  85,C  34,C  33,C  32)    -49.6316         0.011362   
    550. D(C  35,C  34,C  33,H  84)    -52.6195         0.011362   
    551. D(C  35,C  34,C  33,H  83)   -169.9924         0.011362   
    552. D(C  35,C  34,C  33,C  32)     71.8728         0.011362   
    553. D(H  88,C  35,C  34,H  86)   -176.1660         0.010917   
    554. D(H  88,C  35,C  34,H  85)     66.5303         0.010917   
    555. D(H  88,C  35,C  34,C  33)    -54.6604         0.010917   
    556. D(H  87,C  35,C  34,H  86)    -60.2965         0.010917   
    557. D(H  87,C  35,C  34,H  85)   -177.6002         0.010917   
    558. D(H  87,C  35,C  34,C  33)     61.2091         0.010917   
    559. D(C  36,C  35,C  34,H  86)     62.2276         0.010917   
    560. D(C  36,C  35,C  34,H  85)    -55.0762         0.010917   
    561. D(C  36,C  35,C  34,C  33)   -176.2668         0.010917   
    562. D(H  90,C  36,C  35,H  87)   -179.2726         0.010913   
    563. D(H  90,C  36,C  35,C  34)     58.2920         0.010913   
    564. D(H  89,C  36,C  35,H  88)     51.9739         0.010913   
    565. D(H  89,C  36,C  35,H  87)    -64.0695         0.010913   
    566. D(H  89,C  36,C  35,C  34)    173.4951         0.010913   
    567. D(C  37,C  36,C  35,H  88)    173.5649         0.010913   
    568. D(C  37,C  36,C  35,H  87)     57.5215         0.010913   
    569. D(H  90,C  36,C  35,H  88)    -63.2292         0.010913   
    570. D(C  37,C  36,C  35,C  34)    -64.9138         0.010913   
    571. D(H  92,C  37,C  36,H  90)   -174.6304         0.010912   
    572. D(H  92,C  37,C  36,H  89)     69.6310         0.010912   
    573. D(H  92,C  37,C  36,C  35)    -52.1510         0.010912   
    574. D(H  91,C  37,C  36,H  90)    -58.9350         0.010912   
    575. D(H  91,C  37,C  36,H  89)   -174.6737         0.010912   
    576. D(H  91,C  37,C  36,C  35)     63.5444         0.010912   
    577. D(C  38,C  37,C  36,H  90)     63.5470         0.010912   
    578. D(C  38,C  37,C  36,H  89)    -52.1917         0.010912   
    579. D(C  38,C  37,C  36,C  35)   -173.9737         0.010912   
    580. D(H  94,C  38,C  37,H  92)    -64.2117         0.010848   
    581. D(H  94,C  38,C  37,H  91)   -179.5420         0.010848   
    582. D(H  94,C  38,C  37,C  36)     57.3708         0.010848   
    583. D(H  93,C  38,C  37,H  92)     51.1950         0.010848   
    584. D(H  93,C  38,C  37,H  91)    -64.1354         0.010848   
    585. D(H  93,C  38,C  37,C  36)    172.7774         0.010848   
    586. D(C  39,C  38,C  37,H  92)    173.0708         0.010848   
    587. D(C  39,C  38,C  37,H  91)     57.7404         0.010848   
    588. D(C  39,C  38,C  37,C  36)    -65.3468         0.010848   
    589. D(H  95,C  39,C  38,H  94)    -61.6070         0.011024   
    590. D(H  95,C  39,C  38,H  93)   -176.8543         0.011024   
    591. D(H  95,C  39,C  38,C  37)     61.1189         0.011024   
    592. D(C  40,C  39,C  38,H  94)     60.5481         0.011024   
    593. D(C  40,C  39,C  38,H  93)    -54.6991         0.011024   
    594. D(C  40,C  39,C  38,C  37)   -176.7260         0.011024   
    595. D(H  96,C  39,C  38,H  94)   -177.4539         0.011024   
    596. D(H  96,C  39,C  38,H  93)     67.2988         0.011024   
    597. D(H  96,C  39,C  38,C  37)    -54.7280         0.011024   
    598. D(H  98,C  40,C  39,H  95)     65.1183         0.011068   
    599. D(H  98,C  40,C  39,C  38)    -57.6364         0.011068   
    600. D(H  97,C  40,C  39,H  96)    -64.2347         0.011068   
    601. D(H  97,C  40,C  39,H  95)   -179.5554         0.011068   
    602. D(H  97,C  40,C  39,C  38)     57.6900         0.011068   
    603. D(C  41,C  40,C  39,H  96)     58.1393         0.011068   
    604. D(C  41,C  40,C  39,H  95)    -57.1814         0.011068   
    605. D(H  98,C  40,C  39,H  96)   -179.5611         0.011068   
    606. D(C  41,C  40,C  39,C  38)   -179.9360         0.011068   
    607. D(H 101,C  41,C  40,H  98)    -62.1864         0.011160   
    608. D(H 101,C  41,C  40,H  97)   -178.0966         0.011160   
    609. D(H 101,C  41,C  40,C  39)     59.8181         0.011160   
    610. D(H 100,C  41,C  40,H  98)    178.2910         0.011160   
    611. D(H 100,C  41,C  40,H  97)     62.3807         0.011160   
    612. D(H 100,C  41,C  40,C  39)    -59.7045         0.011160   
    613. D(H  99,C  41,C  40,H  98)     58.0557         0.011160   
    614. D(H  99,C  41,C  40,H  97)    -57.8545         0.011160   
    615. D(H  99,C  41,C  40,C  39)   -179.9398         0.011160   
    616. D(H 102,O  43,C  17,H  65)     65.0116         0.020595   
    617. D(H 102,O  43,C  17,C  18)    -53.5582         0.020595   
    618. D(H 102,O  43,C  17,C  16)   -178.5586         0.020595   
    619. D(H 104,C  45,C  13,H  61)     61.5356         0.010546   
    620. D(H 104,C  45,C  13,C  14)   -174.5274         0.010546   
    621. D(H 104,C  45,C  13,N  12)    -57.5379         0.010546   
    622. D(H 103,C  45,C  13,H  61)    176.8803         0.010546   
    623. D(H 103,C  45,C  13,C  14)    -59.1827         0.010546   
    624. D(H 103,C  45,C  13,N  12)     57.8068         0.010546   
    625. D(C  46,C  45,C  13,H  61)    -60.4540         0.010546   
    626. D(C  46,C  45,C  13,C  14)     63.4830         0.010546   
    627. D(C  46,C  45,C  13,N  12)   -179.5275         0.010546   
    628. D(H 107,C  46,C  45,H 104)    -61.4958         0.011281   
    629. D(H 107,C  46,C  45,H 103)    179.5495         0.011281   
    630. D(H 107,C  46,C  45,C  13)     58.3996         0.011281   
    631. D(H 106,C  46,C  45,H 104)    178.1069         0.011281   
    632. D(H 106,C  46,C  45,H 103)     59.1522         0.011281   
    633. D(H 106,C  46,C  45,C  13)    -61.9976         0.011281   
    634. D(H 105,C  46,C  45,H 104)     58.2840         0.011281   
    635. D(H 105,C  46,C  45,H 103)    -60.6707         0.011281   
    636. D(H 105,C  46,C  45,C  13)    178.1795         0.011281   
    637. D(H 108,C  48,C  10,H  59)     55.7166         0.009439   
    638. D(H 108,C  48,C  10,C  11)    172.4079         0.009439   
    639. D(H 108,C  48,C  10,N   9)    -63.6068         0.009439   
    640. D(C  50,C  48,C  10,H  59)    -60.4883         0.009439   
    641. D(C  50,C  48,C  10,C  11)     56.2030         0.009439   
    642. D(C  50,C  48,C  10,N   9)   -179.8117         0.009439   
    643. D(C  49,C  48,C  10,H  59)    172.8419         0.009439   
    644. D(C  49,C  48,C  10,C  11)    -70.4668         0.009439   
    645. D(C  49,C  48,C  10,N   9)     53.5185         0.009439   
    646. D(H 111,C  49,C  48,C  50)     67.9616         0.010999   
    647. D(H 111,C  49,C  48,C  10)   -166.1763         0.010999   
    648. D(H 110,C  49,C  48,H 108)   -170.0834         0.010999   
    649. D(H 110,C  49,C  48,C  50)    -50.8317         0.010999   
    650. D(H 110,C  49,C  48,C  10)     75.0304         0.010999   
    651. D(H 109,C  49,C  48,H 108)     67.7326         0.010999   
    652. D(H 109,C  49,C  48,C  50)   -173.0157         0.010999   
    653. D(H 111,C  49,C  48,H 108)    -51.2901         0.010999   
    654. D(H 109,C  49,C  48,C  10)    -47.1535         0.010999   
    655. D(H 114,C  50,C  48,H 108)   -179.7922         0.011100   
    656. D(H 114,C  50,C  48,C  49)     61.5235         0.011100   
    657. D(H 114,C  50,C  48,C  10)    -66.6481         0.011100   
    658. D(H 113,C  50,C  48,H 108)     60.5654         0.011100   
    659. D(H 113,C  50,C  48,C  49)    -58.1190         0.011100   
    660. D(H 113,C  50,C  48,C  10)    173.7094         0.011100   
    661. D(H 112,C  50,C  48,H 108)    -59.6963         0.011100   
    662. D(H 112,C  50,C  48,C  49)   -178.3807         0.011100   
    663. D(H 112,C  50,C  48,C  10)     53.4477         0.011100   
    -----------------------------------------------------------------

Number of atoms                         .... 115
Number of degrees of freedom            .... 663

         *************************************************************
         *                GEOMETRY OPTIMIZATION CYCLE   1            *
         *************************************************************
---------------------------------
CARTESIAN COORDINATES (ANGSTROEM)
---------------------------------
  O      7.343543   -2.060744    2.668104
  C      6.534698   -1.438258    1.979391
  C      6.805151    0.011610    1.480821
  C      8.094091    0.580775    2.070988
  C      7.616867    1.231447    3.375794
  C      6.280547    1.871290    2.986995
  N      5.773635    0.986863    1.913372
  C      4.614189    1.150236    1.237046
  O      4.230474    0.345561    0.361914
  N      5.355483   -1.935145    1.536747
  C      4.944980   -3.323149    1.744957
  C      3.873059   -3.651694    0.694105
  N      2.793459   -2.814644    0.713730
  C      1.820175   -2.747458   -0.364848
  C      1.545964   -1.254307   -0.544880
  N      1.698472   -0.740401   -1.777820
  C      1.613476    0.678506   -2.109063
  C      0.279910    1.081271   -2.750067
  C     -0.916206    1.085436   -1.765908
  C     -0.821696    2.197448   -0.692904
  N     -0.241720    1.788947    0.465924
  C     -0.005085    2.665151    1.600018
  C      1.475089    3.034680    1.795713
  N      2.401742    2.136604    1.357497
  C      3.819068    2.422496    1.506831
  C      4.292964    3.502699    0.512558
  O      1.792312    4.081698    2.366248
  C     -0.578621    2.009723    2.875209
  C     -0.466946    2.820615    4.174572
  C     -1.184451    4.170485    4.070832
  C     -1.016976    1.990597    5.340537
  O     -1.258119    3.328322   -0.900912
  C     -2.231586    1.287414   -2.524392
  C     -3.507022    1.026048   -1.751502
  C     -4.751044    0.868242   -2.623205
  C     -4.763724   -0.453512   -3.399604
  C     -5.954325   -0.603966   -4.353545
  C     -7.315586   -0.669945   -3.651526
  C     -8.489870   -0.966170   -4.592868
  C     -8.765044    0.132830   -5.623480
  C     -9.989685   -0.150790   -6.497405
  C    -10.260560    0.948162   -7.526577
  O     -2.233674    1.681600   -3.682765
  O      0.508383    2.349048   -3.336090
  O      1.218489   -0.585992    0.454263
  C      0.523802   -3.510398   -0.044213
  C     -0.497023   -3.451745   -1.179987
  O      3.994335   -4.564404   -0.119845
  C      4.536923   -3.621517    3.214837
  C      3.470961   -2.676942    3.778918
  C      4.125059   -5.088557    3.359071
  H      6.803838   -0.015555    0.380309
  H      8.517635    1.332576    1.389218
  H      8.828799   -0.214377    2.237582
  H      7.460733    0.452708    4.135438
  H      8.321464    1.968792    3.779397
  H      5.568355    1.915771    3.821490
  H      6.425144    2.892759    2.600651
  H      4.805595   -1.312804    0.926082
  H      5.796414   -3.977137    1.507337
  H      2.730906   -2.069743    1.404437
  H      2.293222   -3.188506   -1.256284
  H      1.991648   -1.381043   -2.508919
  H      2.408200    0.912032   -2.829816
  H      1.809172    1.263123   -1.203385
  H      0.035447    0.330974   -3.530728
  H     -0.960352    0.102948   -1.265227
  H      0.119351    0.829134    0.512383
  H     -0.522325    3.608673    1.383172
  H      2.140903    1.256664    0.906724
  H      3.980265    2.792748    2.528800
  H      3.711967    4.417137    0.678243
  H      5.358864    3.730907    0.655515
  H      4.141235    3.153701   -0.517236
  H     -0.084430    1.031940    3.010725
  H     -1.642480    1.798026    2.672733
  H      0.599968    3.021670    4.365050
  H     -0.713293    4.817257    3.319630
  H     -2.243826    4.031705    3.799970
  H     -1.152363    4.701665    5.033174
  H     -0.490574    1.028709    5.435154
  H     -0.910577    2.529645    6.293008
  H     -2.088011    1.774166    5.197828
  H     -3.604928    1.892868   -1.073136
  H     -3.359210    0.152631   -1.093949
  H     -4.797502    1.709273   -3.332250
  H     -5.641782    0.939965   -1.981686
  H     -4.760686   -1.295103   -2.683051
  H     -3.830430   -0.531532   -3.979744
  H     -5.821239   -1.522199   -4.951187
  H     -5.939881    0.232692   -5.071181
  H     -7.512914    0.278613   -3.124251
  H     -7.272726   -1.450589   -2.872062
  H     -9.401332   -1.123805   -3.991412
  H     -8.303261   -1.919534   -5.118790
  H     -7.884998    0.268809   -6.274147
  H     -8.906111    1.094914   -5.098686
  H    -10.874147   -0.279558   -5.850213
  H     -9.849094   -1.115794   -7.013834
  H    -11.144523    0.720993   -8.139610
  H    -10.434761    1.917213   -7.034472
  H     -9.404575    1.073151   -8.207180
  H     -0.351296    2.613556   -3.723974
  H      0.101039   -3.088222    0.880227
  H      0.807761   -4.551020    0.169133
  H     -1.395319   -4.032115   -0.931450
  H     -0.818099   -2.419017   -1.384822
  H     -0.082718   -3.864143   -2.112500
  H      5.465125   -3.458089    3.784718
  H      3.708802   -1.623815    3.565056
  H      2.469926   -2.901621    3.380970
  H      3.413371   -2.784304    4.871073
  H      4.904105   -5.764704    2.979639
  H      3.942463   -5.337140    4.413941
  H      3.200076   -5.298355    2.799936

----------------------------
CARTESIAN COORDINATES (A.U.)
----------------------------
  NO LB      ZA    FRAG     MASS         X           Y           Z
   0 O     8.0000    0    15.999   13.877284   -3.894241    5.041986
   1 C     6.0000    0    12.011   12.348789   -2.717914    3.740506
   2 C     6.0000    0    12.011   12.859872    0.021941    2.798346
   3 C     6.0000    0    12.011   15.295615    1.097505    3.913600
   4 C     6.0000    0    12.011   14.393792    2.327097    6.379326
   5 C     6.0000    0    12.011   11.868514    3.536226    5.644602
   6 N     7.0000    0    14.007   10.910588    1.864902    3.615750
   7 C     6.0000    0    12.011    8.719554    2.173632    2.337678
   8 O     8.0000    0    15.999    7.994438    0.653015    0.683918
   9 N     7.0000    0    14.007   10.120396   -3.656893    2.904031
  10 C     6.0000    0    12.011    9.344658   -6.279841    3.297491
  11 C     6.0000    0    12.011    7.319020   -6.900701    1.311668
  12 N     7.0000    0    14.007    5.278872   -5.318906    1.348755
  13 C     6.0000    0    12.011    3.439632   -5.191944   -0.689463
  14 C     6.0000    0    12.011    2.921448   -2.370296   -1.029673
  15 N     7.0000    0    14.007    3.209646   -1.399156   -3.359593
  16 C     6.0000    0    12.011    3.049028    1.282190   -3.985551
  17 C     6.0000    0    12.011    0.528953    2.043306   -5.196874
  18 C     6.0000    0    12.011   -1.731379    2.051176   -3.337083
  19 C     6.0000    0    12.011   -1.552781    4.152575   -1.309398
  20 N     7.0000    0    14.007   -0.456784    3.380621    0.880468
  21 C     6.0000    0    12.011   -0.009608    5.036405    3.023595
  22 C     6.0000    0    12.011    2.787513    5.734713    3.393405
  23 N     7.0000    0    14.007    4.538634    4.037597    2.565297
  24 C     6.0000    0    12.011    7.216992    4.577854    2.847498
  25 C     6.0000    0    12.011    8.112526    6.619142    0.968594
  26 O     8.0000    0    15.999    3.386978    7.713291    4.471560
  27 C     6.0000    0    12.011   -1.093435    3.797826    5.433358
  28 C     6.0000    0    12.011   -0.882400    5.330190    7.888798
  29 C     6.0000    0    12.011   -2.238288    7.881075    7.692758
  30 C     6.0000    0    12.011   -1.921806    3.761682   10.092151
  31 O     8.0000    0    15.999   -2.377500    6.289617   -1.702477
  32 C     6.0000    0    12.011   -4.217086    2.432861   -4.770409
  33 C     6.0000    0    12.011   -6.627311    1.938949   -3.309860
  34 C     6.0000    0    12.011   -8.978172    1.640739   -4.957140
  35 C     6.0000    0    12.011   -9.002134   -0.857014   -6.424320
  36 C     6.0000    0    12.011  -11.252044   -1.141331   -8.227008
  37 C     6.0000    0    12.011  -13.824455   -1.266013   -6.900385
  38 C     6.0000    0    12.011  -16.043529   -1.825797   -8.679263
  39 C     6.0000    0    12.011  -16.563533    0.251012  -10.626837
  40 C     6.0000    0    12.011  -18.877768   -0.284952  -12.278315
  41 C     6.0000    0    12.011  -19.389649    1.791767  -14.223169
  42 O     8.0000    0    15.999   -4.221031    3.177763   -6.959417
  43 O     8.0000    0    15.999    0.960705    4.439057   -6.304296
  44 O     8.0000    0    15.999    2.302610   -1.107365    0.858433
  45 C     6.0000    0    12.011    0.989842   -6.633692   -0.083550
  46 C     6.0000    0    12.011   -0.939238   -6.522852   -2.229852
  47 O     8.0000    0    15.999    7.548199   -8.625474   -0.226474
  48 C     6.0000    0    12.011    8.573542   -6.843676    6.075162
  49 C     6.0000    0    12.011    6.559166   -5.058687    7.141120
  50 C     6.0000    0    12.011    7.795232   -9.615980    6.347725
  51 H     1.0000    0     1.008   12.857390   -0.029394    0.718680
  52 H     1.0000    0     1.008   16.095998    2.518204    2.625242
  53 H     1.0000    0     1.008   16.684012   -0.405113    4.228418
  54 H     1.0000    0     1.008   14.098742    0.855494    7.814845
  55 H     1.0000    0     1.008   15.725288    3.720479    7.142025
  56 H     1.0000    0     1.008   10.522666    3.620283    7.221569
  57 H     1.0000    0     1.008   12.141762    5.466523    4.914519
  58 H     1.0000    0     1.008    9.081259   -2.480839    1.750041
  59 H     1.0000    0     1.008   10.953635   -7.515700    2.848453
  60 H     1.0000    0     1.008    5.160665   -3.911247    2.654000
  61 H     1.0000    0     1.008    4.333562   -6.025403   -2.374032
  62 H     1.0000    0     1.008    3.763670   -2.609792   -4.741170
  63 H     1.0000    0     1.008    4.550838    1.723491   -5.347577
  64 H     1.0000    0     1.008    3.418839    2.386957   -2.274068
  65 H     1.0000    0     1.008    0.066986    0.625450   -6.672109
  66 H     1.0000    0     1.008   -1.814802    0.194544   -2.390933
  67 H     1.0000    0     1.008    0.225540    1.566836    0.968264
  68 H     1.0000    0     1.008   -0.987052    6.819403    2.613816
  69 H     1.0000    0     1.008    4.045721    2.374750    1.713460
  70 H     1.0000    0     1.008    7.521611    5.277529    4.778739
  71 H     1.0000    0     1.008    7.014601    8.347179    1.281694
  72 H     1.0000    0     1.008   10.126785    7.050392    1.238744
  73 H     1.0000    0     1.008    7.825800    5.959632   -0.977434
  74 H     1.0000    0     1.008   -0.159550    1.950083    5.689446
  75 H     1.0000    0     1.008   -3.103838    3.397777    5.050734
  76 H     1.0000    0     1.008    1.133776    5.710129    8.248748
  77 H     1.0000    0     1.008   -1.347928    9.103296    6.273192
  78 H     1.0000    0     1.008   -4.240217    7.618818    7.180902
  79 H     1.0000    0     1.008   -2.177651    8.884859    9.511321
  80 H     1.0000    0     1.008   -0.927051    1.943979   10.270952
  81 H     1.0000    0     1.008   -1.720742    4.780336   11.892061
  82 H     1.0000    0     1.008   -3.945769    3.352688    9.822471
  83 H     1.0000    0     1.008   -6.812327    3.577003   -2.027932
  84 H     1.0000    0     1.008   -6.347988    0.288431   -2.067264
  85 H     1.0000    0     1.008   -9.065965    3.230058   -6.297039
  86 H     1.0000    0     1.008  -10.661422    1.776276   -3.744844
  87 H     1.0000    0     1.008   -8.996393   -2.447390   -5.070231
  88 H     1.0000    0     1.008   -7.238463   -1.004450   -7.520626
  89 H     1.0000    0     1.008  -11.000548   -2.876540   -9.356387
  90 H     1.0000    0     1.008  -11.224748    0.439725   -9.583142
  91 H     1.0000    0     1.008  -14.197349    0.526502   -5.903979
  92 H     1.0000    0     1.008  -13.743461   -2.741215   -5.427411
  93 H     1.0000    0     1.008  -17.765943   -2.123685   -7.542675
  94 H     1.0000    0     1.008  -15.690889   -3.627394   -9.673112
  95 H     1.0000    0     1.008  -14.900488    0.507976  -11.856420
  96 H     1.0000    0     1.008  -16.830112    2.069088   -9.635121
  97 H     1.0000    0     1.008  -20.549160   -0.528289  -11.055300
  98 H     1.0000    0     1.008  -18.612090   -2.108544  -13.254225
  99 H     1.0000    0     1.008  -21.060097    1.362480  -15.381634
 100 H     1.0000    0     1.008  -19.718840    3.623008  -13.293225
 101 H     1.0000    0     1.008  -17.772071    2.027961  -15.509322
 102 H     1.0000    0     1.008   -0.663853    4.938905   -7.037290
 103 H     1.0000    0     1.008    0.190936   -5.835894    1.663388
 104 H     1.0000    0     1.008    1.526446   -8.600182    0.319615
 105 H     1.0000    0     1.008   -2.636770   -7.619593   -1.760186
 106 H     1.0000    0     1.008   -1.545984   -4.571280   -2.616935
 107 H     1.0000    0     1.008   -0.156315   -7.302173   -3.992046
 108 H     1.0000    0     1.008   10.327589   -6.534841    7.152081
 109 H     1.0000    0     1.008    7.008619   -3.068565    6.736979
 110 H     1.0000    0     1.008    4.667484   -5.483268    6.389107
 111 H     1.0000    0     1.008    6.450337   -5.261572    9.204993
 112 H     1.0000    0     1.008    9.267415  -10.893713    5.630702
 113 H     1.0000    0     1.008    7.450175  -10.085732    8.341140
 114 H     1.0000    0     1.008    6.047267  -10.012440    5.291113

--------------------------------
INTERNAL COORDINATES (ANGSTROEM)
--------------------------------
 O      0   0   0     0.000000000000     0.00000000     0.00000000
 C      1   0   0     1.231277619284     0.00000000     0.00000000
 C      2   1   0     1.556867090936   122.39977934     0.00000000
 C      3   2   1     1.527615745240   111.70531604   354.00406987
 C      4   3   2     1.534156353864   102.95193314   270.90610301
 C      5   4   3     1.531768475777   103.45374277   320.43488334
 N      6   5   4     1.480485035759   103.48772688    30.13724662
 C      7   6   5     1.352191729954   125.74140072   180.60883169
 O      8   7   6     1.249238299866   122.40744482   181.76374543
 N      2   1   3     1.354022539103   124.71092787   177.61330134
 C     10   2   1     1.462333893116   123.10999249   355.20908876
 C     11  10   2     1.536635335904   107.54124060   201.14358120
 N     12  11  10     1.366226042805   114.23067867   303.61451774
 C     13  12  11     1.454347227219   123.12547769   165.64470804
 C     14  13  12     1.528759307308   104.62514161   222.18273484
 N     15  14  13     1.344432808396   117.45126561   126.06314348
 C     16  15  14     1.459535474672   124.96881653   186.52660190
 C     17  16  15     1.533461863583   113.63138679   258.05733688
 C     18  17  16     1.548960764542   113.99516043    71.92903369
 C     19  18  17     1.548173824654   113.27533720    67.96626536
 N     20  19  18     1.358722319063   113.65449626   266.39400682
 C     21  20  19     1.452548653663   123.64718045   177.96427700
 C     22  21  20     1.538103010976   113.64289024   252.85101704
 N     23  22  21     1.362812928895   117.07224937   332.01484125
 C     24  23  22     1.453564152912   120.02365326   179.82395866
 C     25  24  23     1.542722943230   111.77893849   286.69344766
 O     23  22  21     1.233850667140   120.67179601   154.34104915
 C     22  21  20     1.544228626284   109.15973648   128.68601245
 C     28  22  21     1.535695324864   116.58815440   182.22360726
 C     29  28  22     1.532228860834   111.95307901    59.31696817
 C     29  28  22     1.533276401410   109.35897877   182.92410594
 O     20  19  18     1.229881354179   121.43761580    87.28920465
 C     19  18  17     1.531768950011   110.41751644   188.60617965
 C     33  19  18     1.514070184713   116.60616703   167.51901503
 C     34  33  19     1.527206423718   114.37185440   195.78961932
 C     35  34  33     1.532967118971   112.63838906    71.87284015
 C     36  35  34     1.533027107300   113.96624860   183.73317086
 C     37  36  35     1.533041506428   114.13485111   295.08616471
 C     38  37  36     1.533889409132   114.02036616   186.02633833
 C     39  38  37     1.531562026929   114.32650815   294.65321241
 C     40  39  38     1.530989503092   113.25985508   183.27401294
 C     41  40  39     1.529792510655   113.11510043   180.06398186
 O     33  19  18     1.223607096851   120.84473913   345.26930493
 O     18  17  16     1.415231855126   105.54418350   196.09762396
 O     15  14  13     1.245861459790   118.46604201   307.21180199
 C     14  13  12     1.538008071743   112.74045812   101.49248758
 C     46  14  13     1.528236543828   112.89574068   180.47245959
 O     12  11  10     1.228927547995   122.88088124   121.57702054
 C     11  10   2     1.554374761062   112.98771938    73.15941641
 C     49  11  10     1.531889331991   114.36346074    53.51848828
 C     49  11  10     1.530569408120   110.10502500   180.18827243
 H      3   2   1     1.100847839273   107.27471988   118.79681623
 H      4   3   2     1.099729585208   109.88687427   152.68468405
 H      4   3   2     1.095360830614   110.74669345    31.69981364
 H      5   4   3     1.099032228696   109.36190321    78.00099860
 H      5   4   3     1.096828009067   113.46904338   198.96856151
 H      6   5   4     1.097988104671   112.94709270   149.87657678
 H      6   5   4     1.101620851892   111.21263620   271.89767276
 H     10   2   1     1.030823570072   115.89272109   183.21961063
 H     11  10   2     1.099592917550   108.44478808   314.63544803
 H     13  12  11     1.017774660957   120.44593048   358.00125309
 H     14  13  12     1.101342230091   107.11751635   341.10170633
 H     16  15  14     1.015322234573   116.86688911   359.69088166
 H     17  16  15     1.098000370891   108.27564452   138.82072908
 H     17  16  15     1.095594078371   108.70780242    22.38214216
 H     18  17  16     1.110017324643   107.93707199   314.24330133
 H     19  18  17     1.103590679452   108.46658503   306.66959917
 H     21  20  19     1.026534282732   118.02458698     3.27030870
 H     22  21  20     1.097631266257   106.70897792     9.05349468
 H     24  23  22     1.022510429751   122.37140196     0.69802495
 H     25  24  23     1.098859037180   107.74956319    45.89694927
 H     26  25  24     1.095995200548   108.90090793    58.62186801
 H     26  25  24     1.099389842341   111.06103023   178.32863770
 H     26  25  24     1.097860103638   109.84624153   298.71134419
 H     28  22  21     1.103924514280   108.12209507    58.61013385
 H     28  22  21     1.103453374457   106.73722010   304.36235858
 H     29  28  22     1.102275430309   108.23466227   300.74994637
 H     30  29  28     1.097546459476   111.37505534   295.58502867
 H     30  29  28     1.102225962772   110.84149905    56.58811006
 H     30  29  28     1.099674233354   110.64834197   175.99295521
 H     31  29  28     1.100580914058   111.52550663    57.18763580
 H     31  29  28     1.099588442301   111.01479551   177.57613591
 H     31  29  28     1.101963762285   110.88545182   297.14274013
 H     34  33  19     1.105054296326   104.63087565    74.06035938
 H     34  33  19     1.103213866444   109.15109282   321.55460578
 H     35  34  33     1.101016076664   108.84566391   310.36838311
 H     35  34  33     1.100047889683   108.66164220   194.23406268
 H     36  35  34     1.105320159869   109.15592136    61.20914756
 H     36  35  34     1.101675115379   108.70885578   305.33961869
 H     37  36  35     1.103648147278   108.96341967   173.49511909
 H     37  36  35     1.102363958401   108.68871719    58.29203616
 H     38  37  36     1.103050138520   109.92152596    63.54435608
 H     38  37  36     1.103994923535   108.61900112   307.84900110
 H     39  38  37     1.103341376377   108.99431563   172.77742224
 H     39  38  37     1.104680842636   109.23939878    57.37079775
 H     40  39  38     1.102877629141   110.00525599    61.11888142
 H     40  39  38     1.104950100162   109.15518139   305.27198158
 H     41  40  39     1.103499761068   109.14506446    57.68996453
 H     41  40  39     1.103492829641   109.10099176   302.36360589
 H     42  41  40     1.099457427778   111.65676495   180.06020960
 H     42  41  40     1.100714848930   111.08107460   300.29547574
 H     42  41  40     1.100705915523   111.09153122    59.81809575
 H     44  18  17     0.979524062841   105.31874022   181.44136420
 H     46  14  13     1.100704226696   107.97289334    57.80677809
 H     46  14  13     1.099564893801   106.99220526   302.46211555
 H     47  46  14     1.097968389379   110.97638803   178.17945995
 H     47  46  14     1.100715196894   111.66377735   298.00235958
 H     47  46  14     1.100591440189   111.33757101    58.39961754
 H     49  11  10     1.101377096376   103.86129821   296.39320650
 H     50  49  11     1.100627747206   111.59712023   312.84646923
 H     50  49  11     1.100415410786   111.95910992    75.03043563
 H     50  49  11     1.098929264836   110.00980265   193.82372215
 H     51  49  11     1.099116037248   111.49235941    53.44772857
 H     51  49  11     1.099038140566   110.60659075   173.70940659
 H     51  49  11     1.101018090493   111.15255953   293.35186823

---------------------------
INTERNAL COORDINATES (A.U.)
---------------------------
 O      0   0   0     0.000000000000     0.00000000     0.00000000
 C      1   0   0     2.326777495274     0.00000000     0.00000000
 C      2   1   0     2.942052428783   122.39977934     0.00000000
 C      3   2   1     2.886775396369   111.70531604   354.00406987
 C      4   3   2     2.899135355418   102.95193314   270.90610301
 C      5   4   3     2.894622919792   103.45374277   320.43488334
 N      6   5   4     2.797711262953   103.48772688    30.13724662
 C      7   6   5     2.555272050166   125.74140072   180.60883169
 O      8   7   6     2.360718262752   122.40744482   181.76374543
 N      2   1   3     2.558731778061   124.71092787   177.61330134
 C     10   2   1     2.763410574340   123.10999249   355.20908876
 C     11  10   2     2.903819952564   107.54124060   201.14358120
 N     12  11  10     2.581793057933   114.23067867   303.61451774
 C     13  12  11     2.748317963072   123.12547769   165.64470804
 C     14  13  12     2.888936415496   104.62514161   222.18273484
 N     15  14  13     2.540609813326   117.45126561   126.06314348
 C     16  15  14     2.758122329872   124.96881653   186.52660190
 C     17  16  15     2.897822958985   113.63138679   258.05733688
 C     18  17  16     2.927111637173   113.99516043    71.92903369
 C     19  18  17     2.925624536302   113.27533720    67.96626536
 N     20  19  18     2.567613075076   113.65449626   266.39400682
 C     21  20  19     2.744919151619   123.64718045   177.96427700
 C     22  21  20     2.906593456503   113.64289024   252.85101704
 N     23  22  21     2.575343207378   117.07224937   332.01484125
 C     24  23  22     2.746838167088   120.02365326   179.82395866
 C     25  24  23     2.915323863221   111.77893849   286.69344766
 O     23  22  21     2.331639851051   120.67179601   154.34104915
 C     22  21  20     2.918169191838   109.15973648   128.68601245
 C     28  22  21     2.902043589136   116.58815440   182.22360726
 C     29  28  22     2.895492921467   111.95307901    59.31696817
 C     29  28  22     2.897472486269   109.35897877   182.92410594
 O     20  19  18     2.324138936615   121.43761580    87.28920465
 C     19  18  17     2.894623815964   110.41751644   188.60617965
 C     33  19  18     2.861177996643   116.60616703   167.51901503
 C     34  33  19     2.886001890792   114.37185440   195.78961932
 C     35  34  33     2.896888027162   112.63838906    71.87284015
 C     36  35  34     2.897001388675   113.96624860   183.73317086
 C     37  36  35     2.897028599083   114.13485111   295.08616471
 C     38  37  36     2.898630902981   114.02036616   186.02633833
 C     39  38  37     2.894232788009   114.32650815   294.65321241
 C     40  39  38     2.893150874752   113.25985508   183.27401294
 C     41  40  39     2.890888886862   113.11510043   180.06398186
 O     33  19  18     2.312282308571   120.84473913   345.26930493
 O     18  17  16     2.674400622189   105.54418350   196.09762396
 O     15  14  13     2.354336959810   118.46604201   307.21180199
 C     14  13  12     2.906414047354   112.74045812   101.49248758
 C     46  14  13     2.887948535686   112.89574068   180.47245959
 O     12  11  10     2.322336504142   122.88088124   121.57702054
 C     11  10   2     2.937342607887   112.98771938    73.15941641
 C     49  11  10     2.894851304938   114.36346074    53.51848828
 C     49  11  10     2.892357010304   110.10502500   180.18827243
 H      3   2   1     2.080300931345   107.27471988   118.79681623
 H      4   3   2     2.078187737413   109.88687427   152.68468405
 H      4   3   2     2.069931987685   110.74669345    31.69981364
 H      5   4   3     2.076869924589   109.36190321    78.00099860
 H      5   4   3     2.072704553150   113.46904338   198.96856151
 H      6   5   4     2.074896816132   112.94709270   149.87657678
 H      6   5   4     2.081761713493   111.21263620   271.89767276
 H     10   2   1     1.947974239828   115.89272109   183.21961063
 H     11  10   2     2.077929472969   108.44478808   314.63544803
[...]
freq.      81.62  E(vib)   ...       0.48 
freq.      82.84  E(vib)   ...       0.48 
freq.      86.88  E(vib)   ...       0.48 
freq.      95.52  E(vib)   ...       0.47 
freq.      97.71  E(vib)   ...       0.46 
freq.      99.62  E(vib)   ...       0.46 
freq.     101.84  E(vib)   ...       0.46 
freq.     109.65  E(vib)   ...       0.45 
freq.     114.34  E(vib)   ...       0.44 
freq.     120.82  E(vib)   ...       0.44 
freq.     124.90  E(vib)   ...       0.43 
freq.     128.09  E(vib)   ...       0.43 
freq.     138.71  E(vib)   ...       0.42 
freq.     144.84  E(vib)   ...       0.41 
freq.     154.98  E(vib)   ...       0.40 
freq.     158.56  E(vib)   ...       0.39 
freq.     160.22  E(vib)   ...       0.39 
freq.     171.74  E(vib)   ...       0.38 
freq.     181.73  E(vib)   ...       0.37 
freq.     191.88  E(vib)   ...       0.36 
freq.     200.76  E(vib)   ...       0.35 
freq.     208.37  E(vib)   ...       0.34 
freq.     215.06  E(vib)   ...       0.34 
freq.     218.11  E(vib)   ...       0.33 
freq.     220.06  E(vib)   ...       0.33 
freq.     226.16  E(vib)   ...       0.33 
freq.     227.25  E(vib)   ...       0.33 
freq.     233.14  E(vib)   ...       0.32 
freq.     234.00  E(vib)   ...       0.32 
freq.     236.22  E(vib)   ...       0.32 
freq.     238.35  E(vib)   ...       0.32 
freq.     242.13  E(vib)   ...       0.31 
freq.     244.27  E(vib)   ...       0.31 
freq.     252.90  E(vib)   ...       0.30 
freq.     257.44  E(vib)   ...       0.30 
freq.     259.47  E(vib)   ...       0.30 
freq.     261.83  E(vib)   ...       0.29 
freq.     263.85  E(vib)   ...       0.29 
freq.     271.53  E(vib)   ...       0.29 
freq.     281.58  E(vib)   ...       0.28 
freq.     285.31  E(vib)   ...       0.28 
freq.     299.35  E(vib)   ...       0.26 
freq.     304.87  E(vib)   ...       0.26 
freq.     321.14  E(vib)   ...       0.25 
freq.     328.98  E(vib)   ...       0.24 
freq.     339.70  E(vib)   ...       0.23 
freq.     345.69  E(vib)   ...       0.23 
freq.     349.69  E(vib)   ...       0.23 
freq.     351.75  E(vib)   ...       0.23 
freq.     359.48  E(vib)   ...       0.22 
freq.     373.15  E(vib)   ...       0.21 
freq.     387.36  E(vib)   ...       0.20 
freq.     389.96  E(vib)   ...       0.20 
freq.     399.17  E(vib)   ...       0.19 
freq.     412.74  E(vib)   ...       0.19 
freq.     421.53  E(vib)   ...       0.18 
freq.     435.99  E(vib)   ...       0.17 
freq.     441.41  E(vib)   ...       0.17 
freq.     449.07  E(vib)   ...       0.17 
freq.     452.72  E(vib)   ...       0.16 
freq.     460.21  E(vib)   ...       0.16 
freq.     471.12  E(vib)   ...       0.15 
freq.     498.04  E(vib)   ...       0.14 
freq.     508.03  E(vib)   ...       0.14 
freq.     514.18  E(vib)   ...       0.13 
freq.     539.98  E(vib)   ...       0.12 
freq.     541.96  E(vib)   ...       0.12 
freq.     548.42  E(vib)   ...       0.12 
freq.     551.71  E(vib)   ...       0.12 
freq.     562.23  E(vib)   ...       0.11 
freq.     571.35  E(vib)   ...       0.11 
freq.     594.44  E(vib)   ...       0.10 
freq.     601.47  E(vib)   ...       0.10 
freq.     621.29  E(vib)   ...       0.09 
freq.     626.86  E(vib)   ...       0.09 
freq.     638.83  E(vib)   ...       0.09 
freq.     650.11  E(vib)   ...       0.08 
freq.     670.81  E(vib)   ...       0.08 
freq.     675.63  E(vib)   ...       0.08 
freq.     691.79  E(vib)   ...       0.07 
freq.     711.56  E(vib)   ...       0.07 
freq.     719.59  E(vib)   ...       0.07 
freq.     724.89  E(vib)   ...       0.06 
freq.     732.57  E(vib)   ...       0.06 
freq.     733.53  E(vib)   ...       0.06 
freq.     737.25  E(vib)   ...       0.06 
freq.     741.35  E(vib)   ...       0.06 
freq.     747.35  E(vib)   ...       0.06 
freq.     758.24  E(vib)   ...       0.06 
freq.     761.67  E(vib)   ...       0.06 
freq.     767.60  E(vib)   ...       0.06 
freq.     775.74  E(vib)   ...       0.05 
freq.     791.18  E(vib)   ...       0.05 
freq.     808.92  E(vib)   ...       0.05 
freq.     811.95  E(vib)   ...       0.05 
freq.     819.94  E(vib)   ...       0.05 
freq.     832.06  E(vib)   ...       0.04 
freq.     834.78  E(vib)   ...       0.04 
freq.     849.11  E(vib)   ...       0.04 
freq.     855.58  E(vib)   ...       0.04 
freq.     860.67  E(vib)   ...       0.04 
freq.     863.44  E(vib)   ...       0.04 
freq.     866.22  E(vib)   ...       0.04 
freq.     873.92  E(vib)   ...       0.04 
freq.     879.71  E(vib)   ...       0.04 
freq.     883.51  E(vib)   ...       0.04 
freq.     886.45  E(vib)   ...       0.04 
freq.     902.64  E(vib)   ...       0.03 
freq.     904.27  E(vib)   ...       0.03 
freq.     906.60  E(vib)   ...       0.03 
freq.     907.10  E(vib)   ...       0.03 
freq.     913.88  E(vib)   ...       0.03 
freq.     917.45  E(vib)   ...       0.03 
freq.     922.91  E(vib)   ...       0.03 
freq.     933.00  E(vib)   ...       0.03 
freq.     939.56  E(vib)   ...       0.03 
freq.     940.82  E(vib)   ...       0.03 
freq.     942.59  E(vib)   ...       0.03 
freq.     954.26  E(vib)   ...       0.03 
freq.     962.38  E(vib)   ...       0.03 
freq.     968.95  E(vib)   ...       0.03 
freq.     970.47  E(vib)   ...       0.03 
freq.     977.04  E(vib)   ...       0.03 
freq.     986.30  E(vib)   ...       0.02 
freq.     993.24  E(vib)   ...       0.02 
freq.    1011.78  E(vib)   ...       0.02 
freq.    1016.42  E(vib)   ...       0.02 
freq.    1024.32  E(vib)   ...       0.02 
freq.    1026.92  E(vib)   ...       0.02 
freq.    1031.62  E(vib)   ...       0.02 
freq.    1032.59  E(vib)   ...       0.02 
freq.    1035.60  E(vib)   ...       0.02 
freq.    1037.56  E(vib)   ...       0.02 
freq.    1048.67  E(vib)   ...       0.02 
freq.    1050.60  E(vib)   ...       0.02 
freq.    1051.82  E(vib)   ...       0.02 
freq.    1057.17  E(vib)   ...       0.02 
freq.    1061.16  E(vib)   ...       0.02 
freq.    1063.47  E(vib)   ...       0.02 
freq.    1068.17  E(vib)   ...       0.02 
freq.    1072.12  E(vib)   ...       0.02 
freq.    1075.75  E(vib)   ...       0.02 
freq.    1083.55  E(vib)   ...       0.02 
freq.    1096.44  E(vib)   ...       0.02 
freq.    1099.94  E(vib)   ...       0.02 
freq.    1100.78  E(vib)   ...       0.02 
freq.    1103.49  E(vib)   ...       0.02 
freq.    1113.37  E(vib)   ...       0.01 
freq.    1122.15  E(vib)   ...       0.01 
freq.    1126.72  E(vib)   ...       0.01 
freq.    1130.43  E(vib)   ...       0.01 
freq.    1132.48  E(vib)   ...       0.01 
freq.    1147.56  E(vib)   ...       0.01 
freq.    1153.46  E(vib)   ...       0.01 
freq.    1159.11  E(vib)   ...       0.01 
freq.    1159.87  E(vib)   ...       0.01 
freq.    1163.52  E(vib)   ...       0.01 
freq.    1168.78  E(vib)   ...       0.01 
freq.    1170.73  E(vib)   ...       0.01 
freq.    1189.22  E(vib)   ...       0.01 
freq.    1195.71  E(vib)   ...       0.01 
freq.    1197.16  E(vib)   ...       0.01 
freq.    1201.08  E(vib)   ...       0.01 
freq.    1212.83  E(vib)   ...       0.01 
freq.    1219.55  E(vib)   ...       0.01 
freq.    1224.19  E(vib)   ...       0.01 
freq.    1228.69  E(vib)   ...       0.01 
freq.    1229.37  E(vib)   ...       0.01 
freq.    1235.16  E(vib)   ...       0.01 
freq.    1241.98  E(vib)   ...       0.01 
freq.    1245.89  E(vib)   ...       0.01 
freq.    1247.57  E(vib)   ...       0.01 
freq.    1250.55  E(vib)   ...       0.01 
freq.    1252.61  E(vib)   ...       0.01 
freq.    1253.84  E(vib)   ...       0.01 
freq.    1262.65  E(vib)   ...       0.01 
freq.    1265.39  E(vib)   ...       0.01 
freq.    1268.17  E(vib)   ...       0.01 
freq.    1277.93  E(vib)   ...       0.01 
freq.    1279.81  E(vib)   ...       0.01 
freq.    1281.16  E(vib)   ...       0.01 
freq.    1286.44  E(vib)   ...       0.01 
freq.    1291.16  E(vib)   ...       0.01 
freq.    1291.66  E(vib)   ...       0.01 
freq.    1292.68  E(vib)   ...       0.01 
freq.    1295.87  E(vib)   ...       0.01 
freq.    1299.87  E(vib)   ...       0.01 
freq.    1300.24  E(vib)   ...       0.01 
freq.    1303.30  E(vib)   ...       0.01 
freq.    1310.63  E(vib)   ...       0.01 
freq.    1311.08  E(vib)   ...       0.01 
freq.    1315.09  E(vib)   ...       0.01 
freq.    1319.32  E(vib)   ...       0.01 
freq.    1321.57  E(vib)   ...       0.01 
freq.    1323.89  E(vib)   ...       0.01 
freq.    1327.21  E(vib)   ...       0.01 
freq.    1327.88  E(vib)   ...       0.01 
freq.    1328.38  E(vib)   ...       0.01 
freq.    1336.14  E(vib)   ...       0.01 
freq.    1338.31  E(vib)   ...       0.01 
freq.    1339.76  E(vib)   ...       0.01 
freq.    1340.49  E(vib)   ...       0.01 
freq.    1343.55  E(vib)   ...       0.01 
freq.    1346.39  E(vib)   ...       0.01 
freq.    1347.78  E(vib)   ...       0.01 
freq.    1348.17  E(vib)   ...       0.01 
freq.    1349.08  E(vib)   ...       0.01 
freq.    1353.65  E(vib)   ...       0.01 
freq.    1358.02  E(vib)   ...       0.01 
freq.    1364.16  E(vib)   ...       0.01 
freq.    1366.77  E(vib)   ...       0.01 
freq.    1369.52  E(vib)   ...       0.01 
freq.    1373.50  E(vib)   ...       0.01 
freq.    1390.01  E(vib)   ...       0.00 
freq.    1394.06  E(vib)   ...       0.00 
freq.    1415.03  E(vib)   ...       0.00 
freq.    1426.07  E(vib)   ...       0.00 
freq.    1428.89  E(vib)   ...       0.00 
freq.    1428.97  E(vib)   ...       0.00 
freq.    1432.26  E(vib)   ...       0.00 
freq.    1432.63  E(vib)   ...       0.00 
freq.    1434.63  E(vib)   ...       0.00 
freq.    1436.10  E(vib)   ...       0.00 
freq.    1436.47  E(vib)   ...       0.00 
freq.    1439.04  E(vib)   ...       0.00 
freq.    1440.05  E(vib)   ...       0.00 
freq.    1441.24  E(vib)   ...       0.00 
freq.    1444.47  E(vib)   ...       0.00 
freq.    1445.50  E(vib)   ...       0.00 
freq.    1448.79  E(vib)   ...       0.00 
freq.    1449.06  E(vib)   ...       0.00 
freq.    1449.61  E(vib)   ...       0.00 
freq.    1450.84  E(vib)   ...       0.00 
freq.    1451.32  E(vib)   ...       0.00 
freq.    1451.79  E(vib)   ...       0.00 
freq.    1451.99  E(vib)   ...       0.00 
freq.    1453.74  E(vib)   ...       0.00 
freq.    1454.84  E(vib)   ...       0.00 
freq.    1458.45  E(vib)   ...       0.00 
freq.    1462.45  E(vib)   ...       0.00 
freq.    1465.67  E(vib)   ...       0.00 
freq.    1466.62  E(vib)   ...       0.00 
freq.    1470.14  E(vib)   ...       0.00 
freq.    1476.46  E(vib)   ...       0.00 
freq.    1481.30  E(vib)   ...       0.00 
freq.    1521.51  E(vib)   ...       0.00 
freq.    1529.91  E(vib)   ...       0.00 
freq.    1550.74  E(vib)   ...       0.00 
freq.    1608.24  E(vib)   ...       0.00 
freq.    1641.89  E(vib)   ...       0.00 
freq.    1662.35  E(vib)   ...       0.00 
freq.    1683.65  E(vib)   ...       0.00 
freq.    1687.34  E(vib)   ...       0.00 
freq.    1691.23  E(vib)   ...       0.00 
freq.    1703.21  E(vib)   ...       0.00 
freq.    2868.87  E(vib)   ...       0.00 
freq.    2925.74  E(vib)   ...       0.00 
freq.    2926.51  E(vib)   ...       0.00 
freq.    2932.32  E(vib)   ...       0.00 
freq.    2934.13  E(vib)   ...       0.00 
freq.    2935.49  E(vib)   ...       0.00 
freq.    2942.22  E(vib)   ...       0.00 
freq.    2943.66  E(vib)   ...       0.00 
freq.    2946.35  E(vib)   ...       0.00 
freq.    2949.09  E(vib)   ...       0.00 
freq.    2951.36  E(vib)   ...       0.00 
freq.    2953.91  E(vib)   ...       0.00 
freq.    2956.77  E(vib)   ...       0.00 
freq.    2957.13  E(vib)   ...       0.00 
freq.    2958.10  E(vib)   ...       0.00 
freq.    2958.40  E(vib)   ...       0.00 
freq.    2960.37  E(vib)   ...       0.00 
freq.    2960.88  E(vib)   ...       0.00 
freq.    2961.08  E(vib)   ...       0.00 
freq.    2962.01  E(vib)   ...       0.00 
freq.    2967.96  E(vib)   ...       0.00 
freq.    2970.11  E(vib)   ...       0.00 
freq.    2973.77  E(vib)   ...       0.00 
freq.    2974.77  E(vib)   ...       0.00 
freq.    2975.47  E(vib)   ...       0.00 
freq.    2978.72  E(vib)   ...       0.00 
freq.    2979.18  E(vib)   ...       0.00 
freq.    2980.86  E(vib)   ...       0.00 
freq.    2984.85  E(vib)   ...       0.00 
freq.    2985.60  E(vib)   ...       0.00 
freq.    2988.57  E(vib)   ...       0.00 
freq.    2991.32  E(vib)   ...       0.00 
freq.    2991.90  E(vib)   ...       0.00 
freq.    2998.17  E(vib)   ...       0.00 
freq.    2998.87  E(vib)   ...       0.00 
freq.    3003.01  E(vib)   ...       0.00 
freq.    3009.09  E(vib)   ...       0.00 
freq.    3010.45  E(vib)   ...       0.00 
freq.    3012.84  E(vib)   ...       0.00 
freq.    3015.96  E(vib)   ...       0.00 
freq.    3019.65  E(vib)   ...       0.00 
freq.    3019.74  E(vib)   ...       0.00 
freq.    3020.53  E(vib)   ...       0.00 
freq.    3022.86  E(vib)   ...       0.00 
freq.    3026.41  E(vib)   ...       0.00 
freq.    3026.71  E(vib)   ...       0.00 
freq.    3027.54  E(vib)   ...       0.00 
freq.    3031.27  E(vib)   ...       0.00 
freq.    3032.87  E(vib)   ...       0.00 
freq.    3033.43  E(vib)   ...       0.00 
freq.    3038.15  E(vib)   ...       0.00 
freq.    3042.17  E(vib)   ...       0.00 
freq.    3048.29  E(vib)   ...       0.00 
freq.    3048.61  E(vib)   ...       0.00 
freq.    3050.62  E(vib)   ...       0.00 
freq.    3067.63  E(vib)   ...       0.00 
freq.    3070.26  E(vib)   ...       0.00 
freq.    3075.03  E(vib)   ...       0.00 
freq.    3239.52  E(vib)   ...       0.00 
freq.    3298.19  E(vib)   ...       0.00 
freq.    3398.70  E(vib)   ...       0.00 
freq.    3482.77  E(vib)   ...       0.00 
freq.    3519.57  E(vib)   ...       0.00 
freq.    3582.30  E(vib)   ...       0.00 

------------
INNER ENERGY
------------

The inner energy is: U= E(el) + E(ZPE) + E(vib) + E(rot) + E(trans)
    E(el)   - is the total energy from the electronic structure calculation
              = E(kin-el) + E(nuc-el) + E(el-el) + E(nuc-nuc)
    E(ZPE)  - the the zero temperature vibrational energy from the frequency calculation
    E(vib)  - the the finite temperature correction to E(ZPE) due to population
              of excited vibrational states
    E(rot)  - is the rotational thermal energy
    E(trans)- is the translational thermal energy

Summary of contributions to the inner energy U:
Electronic energy                ...  -2380.07728378 Eh
Zero point energy                ...      0.97693403 Eh     613.03 kcal/mol
Thermal vibrational correction   ...      0.05609314 Eh      35.20 kcal/mol
Thermal rotational correction    ...      0.00141627 Eh       0.89 kcal/mol
Thermal translational correction ...      0.00141627 Eh       0.89 kcal/mol
-----------------------------------------------------------------------
Total thermal energy                  -2379.04142406 Eh


Summary of corrections to the electronic energy:
(perhaps to be used in another calculation)
Total thermal correction                  0.05892569 Eh      36.98 kcal/mol
Non-thermal (ZPE) correction              0.97693403 Eh     613.03 kcal/mol
-----------------------------------------------------------------------
Total correction                          1.03585972 Eh     650.01 kcal/mol


--------
ENTHALPY
--------

The enthalpy is H = U + kB*T
                kB is Boltzmann's constant
Total free energy                 ...  -2379.04142406 Eh 
Thermal Enthalpy correction       ...      0.00094421 Eh       0.59 kcal/mol
-----------------------------------------------------------------------
Total Enthalpy                    ...  -2379.04047986 Eh


Note: Only C1 symmetry has been detected, increase convergence thresholds 
      if your molecule has a higher symmetry. Symmetry factor of 1.0 is   
      used for the rotational entropy correction. 
 

Note: Rotational entropy computed according to Herzberg 
Infrared and Raman Spectra, Chapter V,1, Van Nostrand Reinhold, 1945 
Point Group:  C1, Symmetry Number:   1  
Rotational constants in cm-1:     0.002776     0.000794     0.000716 

Vibrational entropy computed according to the QRRHO of S. Grimme
Chem.Eur.J. 2012 18 9955


-------
ENTROPY
-------

The entropy contributions are T*S = T*(S(el)+S(vib)+S(rot)+S(trans))
     S(el)   - electronic entropy
     S(vib)  - vibrational entropy
     S(rot)  - rotational entropy
     S(trans)- translational entropy
The entropies will be listed as mutliplied by the temperature to get
units of energy

Electronic entropy                ...      0.00000000 Eh      0.00 kcal/mol
Vibrational entropy               ...      0.10527029 Eh     66.06 kcal/mol
Rotational entropy                ...      0.01907850 Eh     11.97 kcal/mol
Translational entropy             ...      0.02166895 Eh     13.60 kcal/mol
-----------------------------------------------------------------------
Final entropy term                ...      0.14601774 Eh     91.63 kcal/mol

In case the symmetry of your molecule has not been determined correctly
or in case you have a reason to use a different symmetry number we print 
out the resulting rotational entropy values for sn=1,12 :
 --------------------------------------------------------
|  sn= 1 | S(rot)=       0.01907850 Eh     11.97 kcal/mol|
|  sn= 2 | S(rot)=       0.01842404 Eh     11.56 kcal/mol|
|  sn= 3 | S(rot)=       0.01804121 Eh     11.32 kcal/mol|
|  sn= 4 | S(rot)=       0.01776959 Eh     11.15 kcal/mol|
|  sn= 5 | S(rot)=       0.01755890 Eh     11.02 kcal/mol|
|  sn= 6 | S(rot)=       0.01738676 Eh     10.91 kcal/mol|
|  sn= 7 | S(rot)=       0.01724121 Eh     10.82 kcal/mol|
|  sn= 8 | S(rot)=       0.01711513 Eh     10.74 kcal/mol|
|  sn= 9 | S(rot)=       0.01700392 Eh     10.67 kcal/mol|
|  sn=10 | S(rot)=       0.01690444 Eh     10.61 kcal/mol|
|  sn=11 | S(rot)=       0.01681445 Eh     10.55 kcal/mol|
|  sn=12 | S(rot)=       0.01673230 Eh     10.50 kcal/mol|
 --------------------------------------------------------


-------------------
GIBBS FREE ENERGY
-------------------

The Gibbs free energy is G = H - T*S

Total enthalpy                    ...  -2379.04047986 Eh 
Total entropy correction          ...     -0.14601774 Eh    -91.63 kcal/mol
-----------------------------------------------------------------------
Final Gibbs free energy         ...  -2379.18649760 Eh

For completeness - the Gibbs free energy minus the electronic energy
G-E(el)                           ...      0.89078618 Eh    558.98 kcal/mol

--------------------------------------------------------------------------
WARNING: No preset parameters were found for the device that Open MPI
detected:

  Local host:            eu-g1-047-4
  Device name:           mlx5_0
  Device vendor ID:      0x02c9
  Device vendor part ID: 4123

Default device parameters will be used, which may result in lower
performance.  You can edit any of the files specified by the
btl_openib_device_param_files MCA parameter to set values for your
device.

NOTE: You can turn off this warning by setting the MCA parameter
      btl_openib_warn_no_device_params_found to 0.
--------------------------------------------------------------------------
--------------------------------------------------------------------------
WARNING: There was an error initializing an OpenFabrics device.

  Local host:   eu-g1-047-4
  Local device: mlx5_0
--------------------------------------------------------------------------

Timings for individual modules:

Sum of individual times         ...    42001.398 sec (= 700.023 min)
GTO integral calculation        ...       12.610 sec (=   0.210 min)   0.0 %
SCF iterations                  ...      427.606 sec (=   7.127 min)   1.0 %
SCF Gradient evaluation         ...       73.088 sec (=   1.218 min)   0.2 %
Geometry relaxation             ...        3.936 sec (=   0.066 min)   0.0 %
Analytical frequency calculation...    41484.158 sec (= 691.403 min)  98.8 %
                             ****ORCA TERMINATED NORMALLY****
TOTAL RUN TIME: 0 days 11 hours 40 minutes 18 seconds 901 msec
