
                                 *****************
                                 * O   R   C   A *
                                 *****************

           --- An Ab Initio, DFT and Semiempirical electronic structure package ---

                  #######################################################
                  #                        -***-                        #
                  #          Department of theory and spectroscopy      #
                  #               Directorship: Frank Neese             #
                  #        Max Planck Institute fuer Kohlenforschung    #
                  #                Kaiser Wilhelm Platz 1               #
                  #                 D-45470 Muelheim/Ruhr               #
                  #                      Germany                        #
                  #                                                     #
                  #                  All rights reserved                #
                  #                        -***-                        #
                  #######################################################


                         Program Version 4.2.0 -  RELEASE  -


 With contributions from (in alphabetic order):
   Daniel Aravena         : Magnetic Suceptibility
   Michael Atanasov       : Ab Initio Ligand Field Theory (pilot matlab implementation)
   Alexander A. Auer      : GIAO ZORA, VPT2
   Ute Becker             : Parallelization
   Giovanni Bistoni       : ED, misc. LED, open-shell LED, HFLED
   Martin Brehm           : Molecular dynamics
   Dmytro Bykov           : SCF Hessian
   Vijay G. Chilkuri      : MRCI spin determinant printing, contributions to CSF-ICE
   Dipayan Datta          : RHF DLPNO-CCSD density
   Achintya Kumar Dutta   : EOM-CC, STEOM-CC
   Dmitry Ganyushin       : Spin-Orbit,Spin-Spin,Magnetic field MRCI
   Miquel Garcia          : C-PCM Hessian, Gaussian charge scheme
   Yang Guo               : DLPNO-NEVPT2, CIM, IAO-localization
   Andreas Hansen         : Spin unrestricted coupled pair/coupled cluster methods
   Benjamin Helmich-Paris : CASSCF linear response (MC-RPA)
   Lee Huntington         : MR-EOM, pCC
   Robert Izsak           : Overlap fitted RIJCOSX, COSX-SCS-MP3, EOM
   Christian Kollmar      : KDIIS, OOCD, Brueckner-CCSD(T), CCSD density
   Simone Kossmann        : Meta GGA functionals, TD-DFT gradient, OOMP2, MP2 Hessian
   Martin Krupicka        : AUTO-CI
   Lucas Lang             : DCDCAS
   Dagmar Lenk            : GEPOL surface, SMD
   Dimitrios Liakos       : Extrapolation schemes; Compound Job, initial MDCI parallelization
   Dimitrios Manganas     : Further ROCIS development; embedding schemes
   Dimitrios Pantazis     : SARC Basis sets
   Taras Petrenko         : DFT Hessian,TD-DFT gradient, ASA, ECA, R-Raman, ABS, FL, XAS/XES, NRVS
   Peter Pinski           : DLPNO-MP2, DLPNO-MP2 Gradient
   Christoph Reimann      : Effective Core Potentials
   Marius Retegan         : Local ZFS, SOC
   Christoph Riplinger    : Optimizer, TS searches, QM/MM, DLPNO-CCSD(T), (RO)-DLPNO pert. Triples
   Tobias Risthaus        : Range-separated hybrids, TD-DFT gradient, RPA, STAB
   Michael Roemelt        : Original ROCIS implementation
   Masaaki Saitow         : Open-shell DLPNO-CCSD energy and density
   Barbara Sandhoefer     : DKH picture change effects
   Avijit Sen             : IP-ROCIS
   Kantharuban Sivalingam : CASSCF convergence, NEVPT2, FIC-MRCI
   Bernardo de Souza      : ESD, SOC TD-DFT
   Georgi Stoychev        : AutoAux, RI-MP2 NMR
   Willem Van den Heuvel  : Paramagnetic NMR
   Boris Wezisla          : Elementary symmetry handling
   Frank Wennmohs         : Technical directorship


 We gratefully acknowledge several colleagues who have allowed us to
 interface, adapt or use parts of their codes:
   Stefan Grimme, W. Hujo, H. Kruse,             : VdW corrections, initial TS optimization,
                  C. Bannwarth                     DFT functionals, gCP, sTDA/sTD-DF
   Ed Valeev, F. Pavosevic, A. Kumar             : LibInt (2-el integral package), F12 methods
   Garnet Chan, S. Sharma, J. Yang, R. Olivares  : DMRG
   Ulf Ekstrom                                   : XCFun DFT Library
   Mihaly Kallay                                 : mrcc  (arbitrary order and MRCC methods)
   Andreas Klamt, Michael Diedenhofen            : otool_cosmo (COSMO solvation model)
   Jiri Pittner, Ondrej Demel                    : Mk-CCSD
   Frank Weinhold                                : gennbo (NPA and NBO analysis)
   Christopher J. Cramer and Donald G. Truhlar   : smd solvation model
   Lars Goerigk                                  : TD-DFT with DH, B97 family of functionals
   V. Asgeirsson, H. Jonsson                     : NEB implementation
   FAccTs GmbH                                   : IRC, NEB, NEB-TS, Multilevel, MM, QM/MM, CI optimization
   S Lehtola, MJT Oliveira, MAL Marques          : LibXC Library


 Your calculation uses the libint2 library for the computation of 2-el integrals
 For citations please refer to: http://libint.valeyev.net

 Your ORCA version has been built with support for libXC version: 4.2.3
 For citations please refer to: https://tddft.org/programs/libxc/

 This ORCA versions uses:
   CBLAS   interface :  Fast vector & matrix operations
   LAPACKE interface :  Fast linear algebra routines
   SCALAPACK package :  Parallel linear algebra routines




***************************************
The coordinates will be read from file: 30.xyz
***************************************


Your calculation utilizes the atom-pairwise dispersion correction
with the Becke-Johnson damping scheme (D3BJ)
Cite in your paper:
S.Grimme, S.Ehrlich, L.Goerigk, J Comput Chem, (2011), 32, 1456–1465 
S.Grimme, J.Antony, S.Ehrlich and H.Krieg, J.Chem.Phys., 132, (2010), 154104 
   

----- Orbital basis set information -----
Your calculation utilizes the basis: def2-TZVP
   F. Weigend and R. Ahlrichs, Phys. Chem. Chem. Phys. 7, 3297 (2005).

----- AuxJ basis set information -----
Your calculation utilizes the auxiliary basis: def2/J
   F. Weigend, Phys. Chem. Chem. Phys. 8, 1057 (2006).

================================================================================
                                        WARNINGS
                       Please study these warnings very carefully!
================================================================================


WARNING: Geometry Optimization
  ===> : Switching off AutoStart
         For restart on a previous wavefunction, please use MOREAD

INFO   : the flag for use of LIBINT has been found!

================================================================================
                                       INPUT FILE
================================================================================
NAME = 30.inp
|  1> !RI BP86 def2-tzvp def2/J D3BJ VeryTightSCF VeryTightOpt Grid5 FinalGrid6 freq
|  2> %maxcore 4000
|  3> %pal nprocs 24
|  4> end
|  5> * xyzfile 0 1 30.xyz 
|  6> 
|  7>                          ****END OF INPUT****
================================================================================

                       *****************************
                       * Geometry Optimization Run *
                       *****************************

Geometry optimization settings:
Update method            Update   .... BFGS
Choice of coordinates    CoordSys .... Z-matrix Internals
Initial Hessian          InHess   .... Almoef's Model

Convergence Tolerances:
Energy Change            TolE     ....  2.0000e-07 Eh
Max. Gradient            TolMAXG  ....  3.0000e-05 Eh/bohr
RMS Gradient             TolRMSG  ....  8.0000e-06 Eh/bohr
Max. Displacement        TolMAXD  ....  2.0000e-04 bohr
RMS Displacement         TolRMSD  ....  1.0000e-04 bohr
Strict Convergence                ....  False
------------------------------------------------------------------------------
                        ORCA OPTIMIZATION COORDINATE SETUP
------------------------------------------------------------------------------

The optimization will be done in new redundant internal coordinates
Making redundant internal coordinates   ...  (new redundants) done
Evaluating the initial hessian          ...  (Almloef) done
Evaluating the coordinates              ...  done
Calculating the B-matrix                .... done
Calculating the G-matrix                .... done
Diagonalizing the G-matrix              .... done
Small eigenvalue found = 1.125e-03
Small eigenvalue found = 2.068e-03
Small eigenvalue found = 5.115e-03
Small eigenvalue found = 5.330e-03
Small eigenvalue found = 6.404e-03
Small eigenvalue found = 7.064e-03
Small eigenvalue found = 9.322e-03
Small eigenvalue found = 1.043e-02
Small eigenvalue found = 1.274e-02
Small eigenvalue found = 1.490e-02
Small eigenvalue found = 1.618e-02
Small eigenvalue found = 1.790e-02
Small eigenvalue found = 1.937e-02
Small eigenvalue found = 2.089e-02
Small eigenvalue found = 2.577e-02
Small eigenvalue found = 2.742e-02
Small eigenvalue found = 2.961e-02
The first mode is                       ....  330
The number of degrees of freedom        ....  339

    -----------------------------------------------------------------
                    Redundant Internal Coordinates


    -----------------------------------------------------------------
         Definition                    Initial Value    Approx d2E/dq
    -----------------------------------------------------------------
      1. B(C   1,O   0)                  1.2303         1.006004   
      2. B(C   2,C   1)                  1.5400         0.360039   
      3. B(C   3,C   2)                  1.5337         0.368586   
      4. B(C   4,C   3)                  1.5340         0.368139   
      5. B(C   5,C   4)                  1.5340         0.368134   
      6. B(N   6,C   5)                  1.4816         0.399701   
      7. B(N   6,C   2)                  1.4689         0.418812   
      8. B(C   7,N   6)                  1.3512         0.645232   
      9. B(O   8,C   7)                  1.2508         0.933191   
     10. B(N   9,C   1)                  1.3600         0.624692   
     11. B(C  10,N   9)                  1.4584         0.435339   
     12. B(C  11,C  10)                  1.5519         0.344721   
     13. B(N  12,C  11)                  1.3621         0.619973   
     14. B(C  13,N  12)                  1.4607         0.431525   
     15. B(C  14,C  13)                  1.5444         0.354318   
     16. B(N  15,C  14)                  1.3605         0.623665   
     17. B(C  16,N  15)                  1.4578         0.436148   
     18. B(C  17,C  16)                  1.5436         0.355350   
     19. B(C  18,C  17)                  1.5432         0.355876   
     20. B(C  19,C  18)                  1.5241         0.381763   
     21. B(N  20,C  19)                  1.3688         0.604985   
     22. B(C  21,N  20)                  1.4641         0.426300   
     23. B(C  22,C  21)                  1.5444         0.354344   
     24. B(N  23,C  22)                  1.3528         0.641638   
     25. B(C  24,C   7)                  1.5392         0.361206   
     26. B(C  24,N  23)                  1.4557         0.439530   
     27. B(C  25,C  24)                  1.5300         0.373560   
     28. B(O  26,C  22)                  1.2409         0.967609   
     29. B(C  27,C  21)                  1.5257         0.379556   
     30. B(C  28,C  27)                  1.5382         0.362492   
     31. B(C  29,C  28)                  1.5334         0.368984   
     32. B(C  30,C  28)                  1.5322         0.370514   
     33. B(O  31,C  19)                  1.2335         0.994308   
     34. B(C  32,C  18)                  1.5493         0.347967   
     35. B(C  33,C  32)                  1.5120         0.399158   
     36. B(C  34,C  33)                  1.5448         0.353855   
     37. B(C  35,C  34)                  1.5289         0.375088   
     38. B(C  36,C  35)                  1.5301         0.373439   
     39. B(C  37,C  36)                  1.5301         0.373461   
     40. B(C  38,C  37)                  1.5358         0.365716   
     41. B(C  39,C  38)                  1.5354         0.366212   
     42. B(C  40,C  39)                  1.5313         0.371781   
     43. B(C  41,C  40)                  1.5297         0.374002   
     44. B(O  42,C  32)                  1.2182         1.051773   
     45. B(O  43,C  17)                  1.4231         0.495547   
     46. B(O  44,C  14)                  1.2328         0.996827   
     47. B(C  45,C  13)                  1.5301         0.373393   
     48. B(C  46,C  45)                  1.5298         0.373842   
     49. B(O  47,C  11)                  1.2288         1.011586   
     50. B(C  48,C  10)                  1.5518         0.344860   
     51. B(C  49,C  48)                  1.5332         0.369191   
     52. B(C  50,C  48)                  1.5295         0.374305   
     53. B(H  51,C   2)                  1.0996         0.347576   
     54. B(H  52,C   3)                  1.1000         0.347155   
     55. B(H  53,C   3)                  1.0954         0.353023   
     56. B(H  54,C   4)                  1.0999         0.347267   
     57. B(H  55,C   4)                  1.0968         0.351224   
     58. B(H  56,C   5)                  1.0977         0.349994   
     59. B(H  57,C   5)                  1.1016         0.345067   
     60. B(H  58,N   9)                  1.0230         0.412512   
     61. B(H  59,C  10)                  1.0988         0.348698   
     62. B(H  60,N  12)                  1.0224         0.413406   
     63. B(H  60,O  26)                  4.0941         0.000005   
     64. B(H  61,C  13)                  1.1060         0.339558   
     65. B(H  62,N  15)                  1.0146         0.425441   
     66. B(H  63,C  16)                  1.0974         0.350426   
     67. B(H  64,C  16)                  1.0980         0.349638   
     68. B(H  65,C  17)                  1.0977         0.350016   
     69. B(H  66,C  18)                  1.1029         0.343396   
     70. B(H  67,N  20)                  1.0174         0.421172   
     71. B(H  68,C  21)                  1.1002         0.346830   
     72. B(H  69,N  23)                  1.0267         0.406973   
     73. B(H  70,C  24)                  1.0978         0.349910   
     74. B(H  71,C  25)                  1.0986         0.348849   
     75. B(H  72,C  25)                  1.0981         0.349533   
     76. B(H  73,C  25)                  1.0976         0.350167   
     77. B(H  74,C  27)                  1.1019         0.344669   
     78. B(H  75,C  27)                  1.1009         0.345948   
     79. B(H  76,C  28)                  1.1055         0.340113   
     80. B(H  77,C  29)                  1.1001         0.347000   
     81. B(H  78,C  29)                  1.0996         0.347650   
     82. B(H  79,H  56)                  3.9574         0.000002   
     83. B(H  79,C  29)                  1.0997         0.347439   
     84. B(H  80,C  30)                  1.1000         0.347146   
     85. B(H  81,C  30)                  1.1013         0.345404   
     86. B(H  82,C  30)                  1.0994         0.347891   
     87. B(H  83,C  33)                  1.0983         0.349237   
     88. B(H  84,C  33)                  1.1018         0.344846   
     89. B(H  85,C  34)                  1.1000         0.347078   
     90. B(H  86,C  34)                  1.1015         0.345211   
     91. B(H  87,C  35)                  1.1041         0.341942   
     92. B(H  88,C  35)                  1.1052         0.340517   
     93. B(H  89,C  36)                  1.1022         0.344286   
     94. B(H  90,O  44)                  4.4593         0.000001   
     95. B(H  90,C  36)                  1.1045         0.341446   
     96. B(H  91,C  37)                  1.1034         0.342752   
     97. B(H  92,C  37)                  1.1034         0.342777   
     98. B(H  93,C  38)                  1.1035         0.342618   
     99. B(H  94,C  38)                  1.1036         0.342553   
    100. B(H  95,C  39)                  1.1029         0.343481   
    101. B(H  96,C  39)                  1.1033         0.342871   
    102. B(H  97,C  40)                  1.1044         0.341608   
    103. B(H  98,C  40)                  1.1024         0.344080   
    104. B(H  99,C  41)                  1.0996         0.347629   
    105. B(H 100,C  41)                  1.1012         0.345589   
    106. B(H 101,C  41)                  1.0994         0.347921   
    107. B(H 102,O   8)                  1.8825         0.017543   
    108. B(H 102,O  43)                  0.9877         0.469722   
    109. B(H 103,H 101)                  3.6479         0.000006   
    110. B(H 103,C  45)                  1.0958         0.352573   
    111. B(H 104,C  45)                  1.0980         0.349688   
    112. B(H 105,C  46)                  1.0982         0.349410   
    113. B(H 106,C  46)                  1.1002         0.346897   
    114. B(H 107,C  46)                  1.1015         0.345202   
    115. B(H 108,C  48)                  1.1032         0.343075   
    116. B(H 109,H  67)                  1.8061         0.004965   
    117. B(H 109,C  49)                  1.1002         0.346869   
    118. B(H 110,H  89)                  2.9861         0.000065   
    119. B(H 110,C  49)                  1.0989         0.348540   
    120. B(H 111,C  49)                  1.0994         0.347903   
    121. B(H 112,C  50)                  1.0994         0.347845   
    122. B(H 113,H  81)                  4.8346         0.000000   
    123. B(H 113,C  50)                  1.0999         0.347282   
    124. B(H 114,H  98)                  2.4468         0.000472   
    125. B(H 114,C  50)                  1.0973         0.350510   
    126. A(O   0,C   1,N   9)          123.4410         0.468354   
    127. A(C   2,C   1,N   9)          117.9231         0.392131   
    128. A(O   0,C   1,C   2)          118.5231         0.426650   
    129. A(C   1,C   2,H  51)          104.6871         0.320499   
    130. A(N   6,C   2,H  51)          109.1684         0.326588   
    131. A(C   1,C   2,N   6)          116.1342         0.365903   
    132. A(C   1,C   2,C   3)          111.1132         0.360243   
    133. A(C   3,C   2,H  51)          112.8993         0.321732   
    134. A(C   3,C   2,N   6)          103.0967         0.367377   
    135. A(C   4,C   3,H  53)          114.2606         0.322488   
    136. A(C   4,C   3,H  52)          110.7812         0.321604   
    137. A(C   2,C   3,C   4)          102.1868         0.361612   
    138. A(C   2,C   3,H  53)          110.8178         0.322552   
    139. A(C   2,C   3,H  52)          109.9781         0.321668   
    140. A(H  52,C   3,H  53)          108.6727         0.288277   
    141. A(H  54,C   4,H  55)          107.9799         0.288061   
    142. A(C   3,C   4,H  55)          113.5703         0.322218   
    143. A(C   3,C   4,C   5)          103.4083         0.361536   
    144. A(C   3,C   4,H  54)          109.9150         0.321621   
    145. A(C   5,C   4,H  55)          111.9738         0.322217   
    146. A(C   5,C   4,H  54)          109.9397         0.321620   
    147. A(H  56,C   5,H  57)          109.1417         0.287617   
    148. A(C   4,C   5,N   6)          103.4688         0.364373   
    149. A(C   4,C   5,H  56)          113.0235         0.322032   
    150. A(N   6,C   5,H  57)          110.2917         0.323704   
    151. A(N   6,C   5,H  56)          109.8428         0.324459   
    152. A(C   4,C   5,H  57)          110.9598         0.321286   
    153. A(C   5,N   6,C   7)          126.2442         0.399094   
    154. A(C   2,N   6,C   7)          122.1727         0.402390   
    155. A(C   2,N   6,C   5)          111.5471         0.370197   
    156. A(O   8,C   7,C  24)          121.5386         0.421200   
    157. A(N   6,C   7,O   8)          121.9019         0.464698   
    158. A(N   6,C   7,C  24)          116.4663         0.394582   
    159. A(C   1,N   9,C  10)          119.1840         0.402841   
    160. A(C  10,N   9,H  58)          119.4982         0.335249   
    161. A(C   1,N   9,H  58)          120.6859         0.356223   
    162. A(C  48,C  10,H  59)          109.8307         0.318420   
    163. A(C  11,C  10,H  59)          104.9104         0.318400   
    164. A(N   9,C  10,C  11)          112.7030         0.365604   
    165. A(N   9,C  10,C  48)          110.8869         0.365629   
    166. A(N   9,C  10,H  59)          108.3980         0.328853   
    167. A(C  11,C  10,C  48)          109.9136         0.353572   
    168. A(N  12,C  11,O  47)          126.4852         0.468178   
    169. A(C  10,C  11,O  47)          119.2707         0.423763   
    170. A(C  10,C  11,N  12)          114.1880         0.388648   
    171. A(C  13,N  12,H  60)          114.1585         0.334880   
    172. A(C  11,N  12,C  13)          129.4069         0.401679   
    173. A(C  11,N  12,H  60)          116.4123         0.355895   
    174. A(C  14,C  13,C  45)          110.2873         0.360055   
    175. A(N  12,C  13,H  61)          106.1966         0.326941   
    176. A(C  14,C  13,H  61)          108.5111         0.318446   
    177. A(N  12,C  13,C  14)          107.7874         0.366774   
    178. A(C  45,C  13,H  61)          107.8084         0.321185   
    179. A(N  12,C  13,C  45)          115.9756         0.370091   
    180. A(C  13,C  14,N  15)          114.5141         0.390921   
    181. A(N  15,C  14,O  44)          123.5984         0.467427   
    182. A(C  13,C  14,O  44)          121.8826         0.424731   
    183. A(C  14,N  15,H  62)          117.5580         0.357995   
    184. A(C  16,N  15,H  62)          117.3400         0.337079   
    185. A(C  14,N  15,C  16)          124.9002         0.402856   
    186. A(H  63,C  16,H  64)          108.4442         0.288265   
    187. A(C  17,C  16,H  64)          108.9177         0.320122   
    188. A(N  15,C  16,H  63)          108.4381         0.329223   
    189. A(C  17,C  16,H  63)          110.9344         0.320240   
    190. A(N  15,C  16,C  17)          112.3392         0.367628   
    191. A(N  15,C  16,H  64)          107.6428         0.329100   
    192. A(O  43,C  17,H  65)          105.8658         0.336201   
    193. A(C  18,C  17,H  65)          107.3749         0.320256   
    194. A(C  16,C  17,H  65)          108.3907         0.320179   
    195. A(C  16,C  17,C  18)          110.5464         0.357300   
    196. A(C  18,C  17,O  43)          113.9626         0.375894   
    197. A(C  16,C  17,O  43)          110.4096         0.375798   
    198. A(C  19,C  18,H  66)          108.6335         0.322948   
    199. A(C  17,C  18,H  66)          109.6148         0.319259   
    200. A(C  17,C  18,C  32)          111.8530         0.356028   
    201. A(C  17,C  18,C  19)          110.8966         0.361689   
    202. A(C  19,C  18,C  32)          109.7695         0.360305   
    203. A(C  32,C  18,H  66)          105.9066         0.318091   
    204. A(C  18,C  19,N  20)          114.2969         0.393956   
    205. A(N  20,C  19,O  31)          122.4403         0.464616   
    206. A(C  18,C  19,O  31)          123.2531         0.430253   
    207. A(C  19,N  20,H  67)          117.6287         0.355541   
    208. A(C  19,N  20,C  21)          121.2224         0.399096   
    209. A(C  21,N  20,H  67)          116.1074         0.335238   
    210. A(C  27,C  21,H  68)          110.8508         0.323168   
    211. A(C  22,C  21,H  68)          109.0580         0.319553   
    212. A(N  20,C  21,H  68)          106.0350         0.327427   
    213. A(N  20,C  21,C  22)          104.9789         0.366014   
    214. A(C  22,C  21,C  27)          113.2879         0.361066   
    215. A(N  20,C  21,C  27)          112.2183         0.370357   
    216. A(C  21,C  22,N  23)          113.8382         0.392874   
    217. A(C  21,C  22,O  26)          123.3196         0.422483   
    218. A(N  23,C  22,O  26)          122.6755         0.467312   
    219. A(C  22,N  23,C  24)          120.4698         0.405433   
    220. A(C  24,N  23,H  69)          119.4388         0.335030   
    221. A(C  22,N  23,H  69)          117.8445         0.357025   
    222. A(C  25,C  24,H  70)          109.1641         0.322793   
    223. A(N  23,C  24,H  70)          107.6173         0.329563   
    224. A(C   7,C  24,H  70)          108.6767         0.321020   
    225. A(N  23,C  24,C  25)          110.2800         0.371291   
    226. A(C   7,C  24,N  23)          110.9800         0.369150   
    227. A(C   7,C  24,C  25)          110.0576         0.361266   
    228. A(H  71,C  25,H  73)          108.9305         0.288130   
    229. A(C  24,C  25,H  73)          110.6623         0.322832   
    230. A(H  71,C  25,H  72)          108.1919         0.288048   
    231. A(C  24,C  25,H  72)          110.1054         0.322736   
    232. A(C  24,C  25,H  71)          109.7837         0.322632   
    233. A(H  72,C  25,H  73)          109.1173         0.288218   
    234. A(C  28,C  27,H  75)          108.7764         0.320609   
    235. A(C  21,C  27,C  28)          114.0705         0.362469   
    236. A(H  74,C  27,H  75)          107.5554         0.287043   
    237. A(C  21,C  27,H  75)          107.9153         0.323033   
    238. A(C  28,C  27,H  74)          109.4688         0.320415   
    239. A(C  21,C  27,H  74)          108.8508         0.322837   
    240. A(C  29,C  28,C  30)          110.7819         0.362076   
    241. A(C  27,C  28,C  30)          109.7611         0.360981   
    242. A(C  27,C  28,C  29)          112.8605         0.360726   
    243. A(C  30,C  28,H  76)          108.0687         0.320865   
    244. A(C  29,C  28,H  76)          107.9256         0.320648   
    245. A(C  27,C  28,H  76)          107.2521         0.319719   
    246. A(C  28,C  29,H  79)          110.8434         0.321768   
    247. A(H  78,C  29,H  79)          108.3397         0.287623   
    248. A(H  77,C  29,H  79)          107.5928         0.287539   
    249. A(H  77,C  29,H  78)          107.2767         0.287566   
    250. A(C  28,C  29,H  78)          110.4895         0.321800   
    251. A(C  28,C  29,H  77)          112.1352         0.321701   
    252. A(H  81,C  30,H  82)          107.7048         0.287390   
    253. A(H  80,C  30,H  82)          107.9462         0.287616   
    254. A(C  28,C  30,H  82)          111.1576         0.322054   
    255. A(H  80,C  30,H  81)          107.7879         0.287294   
    256. A(C  28,C  30,H  81)          110.6103         0.321676   
    257. A(C  28,C  30,H  80)          111.4769         0.321941   
    258. A(C  33,C  32,O  42)          123.1643         0.438123   
    259. A(C  18,C  32,O  42)          121.3291         0.427445   
    260. A(C  18,C  32,C  33)          115.4572         0.363055   
    261. A(C  32,C  33,C  34)          110.0522         0.364098   
    262. A(C  34,C  33,H  84)          109.1127         0.319182   
    263. A(H  83,C  33,H  84)          108.4971         0.287491   
    264. A(C  32,C  33,H  84)          109.3798         0.325545   
    265. A(C  34,C  33,H  83)          111.0712         0.319842   
    266. A(C  32,C  33,H  83)          108.6951         0.326223   
    267. A(C  33,C  34,C  35)          113.4145         0.360253   
    268. A(H  85,C  34,H  86)          105.5781         0.287260   
    269. A(C  35,C  34,H  86)          110.1556         0.322294   
    270. A(C  33,C  34,H  86)          108.6745         0.319237   
    271. A(C  35,C  34,H  85)          108.6947         0.322579   
    272. A(C  33,C  34,H  85)          110.0319         0.319518   
    273. A(C  34,C  35,C  36)          111.9035         0.363580   
    274. A(H  87,C  35,H  88)          106.0826         0.285981   
    275. A(C  36,C  35,H  88)          109.2212         0.321340   
    276. A(C  34,C  35,H  88)          109.0527         0.321572   
    277. A(C  36,C  35,H  87)          109.9961         0.321560   
    278. A(C  34,C  35,H  87)          110.4044         0.321792   
    279. A(C  35,C  36,C  37)          113.6509         0.363310   
    280. A(H  89,C  36,H  90)          105.8076         0.286407   
    281. A(C  37,C  36,H  90)          109.1862         0.321487   
    282. A(C  35,C  36,H  90)          109.1806         0.321484   
    283. A(C  37,C  36,H  89)          110.1268         0.321923   
    284. A(C  35,C  36,H  89)          108.5884         0.321920   
    285. A(C  36,C  37,C  38)          113.6728         0.362016   
    286. A(H  91,C  37,H  92)          105.8363         0.286382   
    287. A(C  38,C  37,H  92)          109.9642         0.320590   
    288. A(C  36,C  37,H  92)          109.3047         0.321691   
    289. A(C  38,C  37,H  91)          108.7242         0.320587   
    290. A(C  36,C  37,H  91)          109.0362         0.321688   
    291. A(C  37,C  38,C  39)          115.1971         0.360807   
    292. A(H  93,C  38,H  94)          106.1135         0.286335   
    293. A(C  39,C  38,H  94)          108.7281         0.320627   
    294. A(C  37,C  38,H  94)          108.9353         0.320556   
    295. A(C  39,C  38,H  93)          108.9851         0.320637   
    296. A(C  37,C  38,H  93)          108.5013         0.320566   
    297. A(C  38,C  39,C  40)          114.1875         0.361821   
    298. A(H  95,C  39,H  96)          105.6788         0.286489   
    299. A(C  40,C  39,H  96)          108.6376         0.321469   
    300. A(C  38,C  39,H  96)          108.5916         0.320676   
    301. A(C  40,C  39,H  95)          109.2412         0.321562   
    302. A(C  38,C  39,H  95)          110.1444         0.320769   
    303. A(C  39,C  40,C  41)          112.8557         0.363124   
    304. A(H  97,C  40,H  98)          105.9523         0.286402   
    305. A(C  41,C  40,H  98)          109.2403         0.321968   
    306. A(C  39,C  40,H  98)          109.7420         0.321654   
    307. A(C  41,C  40,H  97)          109.9640         0.321588   
    308. A(C  39,C  40,H  97)          108.8537         0.321274   
    309. A(H 100,C  41,H 101)          108.0940         0.287418   
    310. A(H  99,C  41,H 101)          107.2503         0.287682   
    311. A(C  40,C  41,H 101)          111.3571         0.322554   
    312. A(H  99,C  41,H 100)          107.5394         0.287380   
    313. A(C  40,C  41,H 100)          110.8696         0.322199   
    314. A(C  40,C  41,H  99)          111.5457         0.322509   
    315. A(C  17,O  43,H 102)          111.8954         0.350141   
    316. A(C  13,C  45,C  46)          110.7709         0.363366   
    317. A(C  46,C  45,H 104)          110.7906         0.322799   
    318. A(C  13,C  45,H 104)          108.6317         0.322736   
    319. A(C  46,C  45,H 103)          110.8401         0.323234   
    320. A(C  13,C  45,H 103)          108.9155         0.323171   
    321. A(H 103,C  45,H 104)          106.7738         0.288547   
    322. A(H 106,C  46,H 107)          107.8834         0.287235   
    323. A(H 105,C  46,H 107)          107.6286         0.287559   
    324. A(C  45,C  46,H 107)          111.6501         0.322117   
    325. A(H 105,C  46,H 106)          107.4246         0.287780   
    326. A(C  45,C  46,H 106)          111.5329         0.322375   
    327. A(C  45,C  46,H 105)          110.5320         0.322757   
    328. A(C  50,C  48,H 108)          108.8682         0.321856   
    329. A(C  49,C  48,H 108)          108.2971         0.321132   
    330. A(C  10,C  48,H 108)          106.1221         0.317578   
    331. A(C  49,C  48,C  50)          110.8308         0.362741   
    332. A(C  10,C  48,C  50)          111.0774         0.358549   
    333. A(C  10,C  48,C  49)          111.4631         0.357711   
    334. A(H 110,C  49,H 111)          108.2184         0.287798   
    335. A(H 109,C  49,H 111)          109.5202         0.287582   
    336. A(C  48,C  49,H 111)          110.4063         0.321868   
    337. A(H 109,C  49,H 110)          107.1827         0.287664   
    338. A(C  48,C  49,H 110)          111.3584         0.321964   
    339. A(C  48,C  49,H 109)          110.0733         0.321711   
    340. A(H 113,C  50,H 114)          108.5983         0.287971   
    341. A(H 112,C  50,H 114)          107.9800         0.288044   
    342. A(C  48,C  50,H 114)          110.2587         0.322989   
    343. A(H 112,C  50,H 113)          108.1208         0.287628   
    344. A(C  48,C  50,H 113)          110.6384         0.322499   
    345. A(C  48,C  50,H 112)          111.1519         0.322585   
    346. D(H  51,C   2,C   1,N   9)   -113.9170         0.009747   
    347. D(C   3,C   2,C   1,N   9)    123.9146         0.009747   
    348. D(N   6,C   2,C   1,N   9)      6.5266         0.009747   
    349. D(N   6,C   2,C   1,O   0)   -177.2004         0.009747   
    350. D(C   3,C   2,C   1,O   0)    -59.8124         0.009747   
    351. D(H  51,C   2,C   1,O   0)     62.3560         0.009747   
    352. D(C   4,C   3,C   2,N   6)     35.6657         0.010865   
    353. D(H  53,C   3,C   2,H  51)    -84.5445         0.010865   
    354. D(H  53,C   3,C   2,C   1)     32.7227         0.010865   
    355. D(C   4,C   3,C   2,H  51)    153.3259         0.010865   
    356. D(H  53,C   3,C   2,N   6)    157.7953         0.010865   
    357. D(H  52,C   3,C   2,H  51)     35.6329         0.010865   
    358. D(C   4,C   3,C   2,C   1)    -89.4069         0.010865   
    359. D(H  52,C   3,C   2,C   1)    152.9001         0.010865   
    360. D(H  52,C   3,C   2,N   6)    -82.0272         0.010865   
    361. D(H  55,C   4,C   3,H  53)     78.5720         0.010841   
    362. D(H  55,C   4,C   3,H  52)    -44.5651         0.010841   
    363. D(H  54,C   4,C   3,H  52)   -165.6467         0.010841   
    364. D(H  55,C   4,C   3,C   2)   -161.6826         0.010841   
    365. D(H  54,C   4,C   3,H  53)    -42.5096         0.010841   
    366. D(C   5,C   4,C   3,C   2)    -40.1030         0.010841   
    367. D(H  54,C   4,C   3,C   2)     77.2357         0.010841   
    368. D(C   5,C   4,C   3,H  53)   -159.8484         0.010841   
    369. D(C   5,C   4,C   3,H  52)     77.0145         0.010841   
    370. D(N   6,C   5,C   4,C   3)     28.8508         0.010840   
    371. D(H  57,C   5,C   4,C   3)    -89.4187         0.010840   
    372. D(H  56,C   5,C   4,H  55)    -89.7490         0.010840   
    373. D(H  56,C   5,C   4,C   3)    147.6034         0.010840   
    374. D(H  57,C   5,C   4,H  54)    153.2599         0.010840   
    375. D(H  56,C   5,C   4,H  54)     30.2820         0.010840   
    376. D(H  57,C   5,C   4,H  55)     33.2288         0.010840   
    377. D(N   6,C   5,C   4,H  54)    -88.4706         0.010840   
    378. D(N   6,C   5,C   4,H  55)    151.4983         0.010840   
    379. D(C   5,N   6,C   2,C   3)    -18.4681         0.014957   
    380. D(C   7,N   6,C   5,H  57)    -69.9155         0.013641   
    381. D(C   7,N   6,C   5,H  56)     50.4224         0.013641   
    382. D(C   7,N   6,C   5,C   4)    171.3519         0.013641   
    383. D(C   2,N   6,C   5,H  57)    112.2403         0.013641   
    384. D(C   2,N   6,C   5,H  56)   -127.4219         0.013641   
    385. D(C   7,N   6,C   2,H  51)     43.3324         0.014957   
    386. D(C   2,N   6,C   5,C   4)     -6.4923         0.013641   
    387. D(C   7,N   6,C   2,C   3)    163.5859         0.014957   
    388. D(C   5,N   6,C   2,C   1)    103.2737         0.014957   
    389. D(C   7,N   6,C   2,C   1)    -74.6723         0.014957   
    390. D(C   5,N   6,C   2,H  51)   -138.7215         0.014957   
    391. D(C  24,C   7,N   6,C   5)     12.5116         0.033933   
    392. D(C  24,C   7,N   6,C   2)   -169.8574         0.033933   
    393. D(O   8,C   7,N   6,C   5)   -170.9487         0.033933   
    394. D(O   8,C   7,N   6,C   2)      6.6823         0.033933   
    395. D(H  58,N   9,C   1,O   0)    177.8419         0.031637   
    396. D(C  10,N   9,C   1,C   2)    164.7607         0.031637   
    397. D(H  58,N   9,C   1,C   2)     -6.0827         0.031637   
    398. D(C  10,N   9,C   1,O   0)    -11.3147         0.031637   
    399. D(H  59,C  10,N   9,C   1)     52.1351         0.016159   
    400. D(C  48,C  10,N   9,H  58)    -16.2747         0.016159   
    401. D(C  48,C  10,N   9,C   1)    172.7716         0.016159   
    402. D(C  11,C  10,N   9,C   1)    -63.5294         0.016159   
    403. D(H  59,C  10,N   9,H  58)   -136.9112         0.016159   
    404. D(C  11,C  10,N   9,H  58)    107.4243         0.016159   
    405. D(O  47,C  11,C  10,N   9)    163.3261         0.009005   
    406. D(N  12,C  11,C  10,H  59)   -136.9603         0.009005   
    407. D(N  12,C  11,C  10,C  48)    105.0151         0.009005   
    408. D(N  12,C  11,C  10,N   9)    -19.2212         0.009005   
    409. D(O  47,C  11,C  10,H  59)     45.5870         0.009005   
    410. D(O  47,C  11,C  10,C  48)    -72.4376         0.009005   
    411. D(H  60,N  12,C  11,O  47)    177.0938         0.031124   
    412. D(H  60,N  12,C  11,C  10)     -0.1423         0.031124   
    413. D(C  13,N  12,C  11,O  47)     -1.0687         0.031124   
    414. D(C  13,N  12,C  11,C  10)   -178.3048         0.031124   
    415. D(H  61,C  13,N  12,C  11)   -134.7171         0.015876   
    416. D(H  61,C  13,N  12,H  60)     47.0866         0.015876   
    417. D(C  45,C  13,N  12,H  60)    166.8077         0.015876   
    418. D(C  45,C  13,N  12,C  11)    -14.9960         0.015876   
    419. D(C  14,C  13,N  12,C  11)    109.1539         0.015876   
    420. D(C  14,C  13,N  12,H  60)    -69.0425         0.015876   
    421. D(O  44,C  14,C  13,C  45)     54.2695         0.009465   
    422. D(O  44,C  14,C  13,N  12)    -73.2473         0.009465   
    423. D(N  15,C  14,C  13,H  61)     -8.6323         0.009465   
    424. D(N  15,C  14,C  13,C  45)   -126.5122         0.009465   
    425. D(O  44,C  14,C  13,H  61)    172.1493         0.009465   
    426. D(N  15,C  14,C  13,N  12)    105.9711         0.009465   
    427. D(H  62,N  15,C  14,O  44)    174.8916         0.031525   
    428. D(H  62,N  15,C  14,C  13)     -4.3115         0.031525   
    429. D(C  16,N  15,C  14,O  44)      0.2060         0.031525   
    430. D(C  16,N  15,C  14,C  13)   -178.9971         0.031525   
    431. D(H  64,C  16,N  15,H  62)     37.7885         0.016219   
    432. D(H  64,C  16,N  15,C  14)   -147.5153         0.016219   
    433. D(H  63,C  16,N  15,H  62)    154.9174         0.016219   
    434. D(H  63,C  16,N  15,C  14)    -30.3864         0.016219   
    435. D(C  17,C  16,N  15,C  14)     92.5833         0.016219   
    436. D(C  17,C  16,N  15,H  62)    -82.1129         0.016219   
    437. D(H  65,C  17,C  16,H  64)     42.3307         0.010150   
    438. D(H  65,C  17,C  16,H  63)    -76.9568         0.010150   
    439. D(H  65,C  17,C  16,N  15)    161.4886         0.010150   
    440. D(O  43,C  17,C  16,H  64)    -73.2071         0.010150   
    441. D(O  43,C  17,C  16,H  63)    167.5054         0.010150   
    442. D(O  43,C  17,C  16,N  15)     45.9508         0.010150   
    443. D(C  18,C  17,C  16,H  64)    159.7622         0.010150   
    444. D(C  18,C  17,C  16,H  63)     40.4747         0.010150   
    445. D(C  18,C  17,C  16,N  15)    -81.0799         0.010150   
    446. D(H  66,C  18,C  17,H  65)    160.0985         0.010178   
    447. D(H  66,C  18,C  17,O  43)    -82.9947         0.010178   
    448. D(H  66,C  18,C  17,C  16)     42.0438         0.010178   
    449. D(C  32,C  18,C  17,O  43)    159.8501         0.010178   
    450. D(C  32,C  18,C  17,C  16)    -75.1114         0.010178   
    451. D(C  32,C  18,C  17,H  65)     42.9433         0.010178   
    452. D(C  19,C  18,C  17,H  65)    -79.9583         0.010178   
    453. D(C  19,C  18,C  17,O  43)     36.9485         0.010178   
    454. D(C  19,C  18,C  17,C  16)    161.9870         0.010178   
    455. D(O  31,C  19,C  18,H  66)    163.8356         0.010869   
    456. D(O  31,C  19,C  18,C  32)    -80.7896         0.010869   
    457. D(O  31,C  19,C  18,C  17)     43.3086         0.010869   
    458. D(N  20,C  19,C  18,H  66)    -15.0580         0.010869   
    459. D(N  20,C  19,C  18,C  17)   -135.5850         0.010869   
    460. D(N  20,C  19,C  18,C  32)    100.3168         0.010869   
    461. D(H  67,N  20,C  19,O  31)   -169.4618         0.029528   
    462. D(H  67,N  20,C  19,C  18)      9.4418         0.029528   
    463. D(C  21,N  20,C  19,O  31)    -15.5530         0.029528   
    464. D(C  21,N  20,C  19,C  18)    163.3507         0.029528   
    465. D(H  68,C  21,N  20,H  67)   -170.1765         0.015494   
    466. D(H  68,C  21,N  20,C  19)     35.5404         0.015494   
    467. D(C  27,C  21,N  20,H  67)    -49.0156         0.015494   
    468. D(C  27,C  21,N  20,C  19)    156.7013         0.015494   
    469. D(C  22,C  21,N  20,H  67)     74.4454         0.015494   
    470. D(C  22,C  21,N  20,C  19)    -79.8378         0.015494   
    471. D(N  23,C  22,C  21,C  27)   -162.4778         0.009467   
    472. D(N  23,C  22,C  21,N  20)     74.7489         0.009467   
    473. D(O  26,C  22,C  21,H  68)    146.0719         0.009467   
    474. D(O  26,C  22,C  21,C  27)     22.1081         0.009467   
    475. D(O  26,C  22,C  21,N  20)   -100.6652         0.009467   
    476. D(N  23,C  22,C  21,H  68)    -38.5140         0.009467   
    477. D(H  69,N  23,C  22,O  26)    166.7888         0.033524   
    478. D(H  69,N  23,C  22,C  21)     -8.6587         0.033524   
    479. D(C  24,N  23,C  22,O  26)      3.9083         0.033524   
    480. D(C  24,N  23,C  22,C  21)   -171.5392         0.033524   
    481. D(H  70,C  24,N  23,H  69)    126.4270         0.016473   
    482. D(H  70,C  24,N  23,C  22)    -70.9629         0.016473   
    483. D(C  25,C  24,N  23,H  69)      7.4453         0.016473   
    484. D(C  25,C  24,N  23,C  22)    170.0553         0.016473   
    485. D(C   7,C  24,N  23,H  69)   -114.7824         0.016473   
    486. D(C   7,C  24,N  23,C  22)     47.8276         0.016473   
    487. D(H  70,C  24,C   7,O   8)    175.0440         0.009806   
    488. D(H  70,C  24,C   7,N   6)     -8.4028         0.009806   
    489. D(C  25,C  24,C   7,O   8)    -65.4633         0.009806   
    490. D(C  25,C  24,C   7,N   6)    111.0900         0.009806   
    491. D(N  23,C  24,C   7,O   8)     56.8937         0.009806   
    492. D(N  23,C  24,C   7,N   6)   -126.5531         0.009806   
    493. D(H  73,C  25,C  24,H  70)   -177.8590         0.011143   
    494. D(H  73,C  25,C  24,N  23)    -59.8242         0.011143   
    495. D(H  73,C  25,C  24,C   7)     62.9454         0.011143   
    496. D(H  72,C  25,C  24,H  70)     61.4254         0.011143   
    497. D(H  72,C  25,C  24,N  23)    179.4602         0.011143   
    498. D(H  72,C  25,C  24,C   7)    -57.7702         0.011143   
    499. D(H  71,C  25,C  24,H  70)    -57.5860         0.011143   
    500. D(H  71,C  25,C  24,N  23)     60.4488         0.011143   
    501. D(H  71,C  25,C  24,C   7)   -176.7816         0.011143   
    502. D(H  75,C  27,C  21,H  68)     85.0419         0.011483   
    503. D(H  75,C  27,C  21,C  22)   -151.9788         0.011483   
    504. D(H  75,C  27,C  21,N  20)    -33.3086         0.011483   
    505. D(H  74,C  27,C  21,H  68)   -158.5130         0.011483   
    506. D(H  74,C  27,C  21,C  22)    -35.5338         0.011483   
    507. D(H  74,C  27,C  21,N  20)     83.1364         0.011483   
    508. D(C  28,C  27,C  21,H  68)    -35.9494         0.011483   
    509. D(C  28,C  27,C  21,C  22)     87.0299         0.011483   
    510. D(C  28,C  27,C  21,N  20)   -154.2999         0.011483   
    511. D(H  76,C  28,C  27,H  75)    -59.0224         0.010532   
    512. D(H  76,C  28,C  27,H  74)   -176.2858         0.010532   
    513. D(H  76,C  28,C  27,C  21)     61.4890         0.010532   
    514. D(C  30,C  28,C  27,H  75)     58.1493         0.010532   
    515. D(C  30,C  28,C  27,H  74)    -59.1141         0.010532   
    516. D(C  30,C  28,C  27,C  21)    178.6607         0.010532   
    517. D(C  29,C  28,C  27,H  75)   -177.7523         0.010532   
    518. D(C  29,C  28,C  27,H  74)     64.9843         0.010532   
    519. D(C  29,C  28,C  27,C  21)    -57.2410         0.010532   
    520. D(H  79,C  29,C  28,C  30)     65.2445         0.010887   
    521. D(H  79,C  29,C  28,C  27)    -58.2911         0.010887   
    522. D(H  78,C  29,C  28,H  76)     63.2596         0.010887   
    523. D(H  78,C  29,C  28,C  30)    -54.8676         0.010887   
    524. D(H  78,C  29,C  28,C  27)   -178.4031         0.010887   
    525. D(H  77,C  29,C  28,H  76)    -56.3621         0.010887   
    526. D(H  77,C  29,C  28,C  30)   -174.4893         0.010887   
    527. D(H  79,C  29,C  28,H  76)   -176.6284         0.010887   
    528. D(H  77,C  29,C  28,C  27)     61.9752         0.010887   
    529. D(H  82,C  30,C  28,H  76)    -59.9111         0.010972   
    530. D(H  82,C  30,C  28,C  29)     58.1290         0.010972   
    531. D(H  82,C  30,C  28,C  27)   -176.5706         0.010972   
    532. D(H  81,C  30,C  28,H  76)   -179.5113         0.010972   
    533. D(H  81,C  30,C  28,C  29)    -61.4713         0.010972   
    534. D(H  81,C  30,C  28,C  27)     63.8292         0.010972   
    535. D(H  80,C  30,C  28,H  76)     60.5744         0.010972   
    536. D(H  80,C  30,C  28,C  29)    178.6144         0.010972   
    537. D(H  80,C  30,C  28,C  27)    -56.0851         0.010972   
    538. D(O  42,C  32,C  18,H  66)   -129.6302         0.009159   
    539. D(O  42,C  32,C  18,C  19)    113.2745         0.009159   
    540. D(O  42,C  32,C  18,C  17)    -10.2649         0.009159   
    541. D(C  33,C  32,C  18,H  66)     47.8896         0.009159   
    542. D(C  33,C  32,C  18,C  19)    -69.2057         0.009159   
    543. D(C  33,C  32,C  18,C  17)    167.2549         0.009159   
    544. D(H  84,C  33,C  32,O  42)   -142.5527         0.011826   
    545. D(H  84,C  33,C  32,C  18)     39.9781         0.011826   
    546. D(H  83,C  33,C  32,O  42)    -24.2535         0.011826   
    547. D(H  83,C  33,C  32,C  18)    158.2773         0.011826   
    548. D(C  34,C  33,C  32,O  42)     97.5870         0.011826   
    549. D(C  34,C  33,C  32,C  18)    -79.8821         0.011826   
    550. D(H  86,C  34,C  33,H  84)    165.4149         0.010071   
    551. D(H  86,C  34,C  33,H  83)     45.8545         0.010071   
    552. D(H  86,C  34,C  33,C  32)    -74.5630         0.010071   
    553. D(H  85,C  34,C  33,H  84)    -79.4370         0.010071   
    554. D(H  85,C  34,C  33,H  83)    161.0026         0.010071   
    555. D(H  85,C  34,C  33,C  32)     40.5851         0.010071   
    556. D(C  35,C  34,C  33,H  84)     42.5460         0.010071   
    557. D(C  35,C  34,C  33,H  83)    -77.0144         0.010071   
    558. D(C  35,C  34,C  33,C  32)    162.5681         0.010071   
    559. D(H  88,C  35,C  34,H  86)   -178.7364         0.011229   
    560. D(H  88,C  35,C  34,H  85)     66.0366         0.011229   
    561. D(H  88,C  35,C  34,C  33)    -56.6883         0.011229   
    562. D(H  87,C  35,C  34,H  86)    -62.5582         0.011229   
    563. D(H  87,C  35,C  34,H  85)   -177.7852         0.011229   
    564. D(H  87,C  35,C  34,C  33)     59.4899         0.011229   
    565. D(C  36,C  35,C  34,H  86)     60.3162         0.011229   
    566. D(C  36,C  35,C  34,H  85)    -54.9108         0.011229   
    567. D(C  36,C  35,C  34,C  33)   -177.6357         0.011229   
    568. D(H  90,C  36,C  35,H  87)     63.0758         0.011136   
    569. D(H  90,C  36,C  35,C  34)    -60.0300         0.011136   
    570. D(H  89,C  36,C  35,H  88)    -65.9641         0.011136   
    571. D(H  89,C  36,C  35,H  87)    177.9914         0.011136   
    572. D(H  89,C  36,C  35,C  34)     54.8856         0.011136   
    573. D(C  37,C  36,C  35,H  88)     56.9658         0.011136   
    574. D(C  37,C  36,C  35,H  87)    -59.0787         0.011136   
    575. D(H  90,C  36,C  35,H  88)    179.1203         0.011136   
    576. D(C  37,C  36,C  35,C  34)    177.8155         0.011136   
    577. D(H  92,C  37,C  36,H  90)    176.6868         0.011137   
    578. D(H  92,C  37,C  36,H  89)     60.9200         0.011137   
    579. D(H  92,C  37,C  36,C  35)    -61.1618         0.011137   
    580. D(H  91,C  37,C  36,H  90)    -68.0526         0.011137   
    581. D(H  91,C  37,C  36,H  89)    176.1806         0.011137   
    582. D(H  91,C  37,C  36,C  35)     54.0988         0.011137   
    583. D(C  38,C  37,C  36,H  90)     53.4172         0.011137   
    584. D(C  38,C  37,C  36,H  89)    -62.3497         0.011137   
    585. D(C  38,C  37,C  36,C  35)    175.5686         0.011137   
    586. D(H  94,C  38,C  37,H  92)     62.0171         0.010708   
    587. D(H  94,C  38,C  37,H  91)    -53.4308         0.010708   
    588. D(H  94,C  38,C  37,C  36)   -175.0743         0.010708   
    589. D(H  93,C  38,C  37,H  92)    177.1176         0.010708   
    590. D(H  93,C  38,C  37,H  91)     61.6697         0.010708   
    591. D(H  93,C  38,C  37,C  36)    -59.9738         0.010708   
    592. D(C  39,C  38,C  37,H  92)    -60.4322         0.010708   
    593. D(C  39,C  38,C  37,H  91)   -175.8802         0.010708   
    594. D(C  39,C  38,C  37,C  36)     62.4763         0.010708   
    595. D(H  95,C  39,C  38,H  94)    178.5434         0.010735   
    596. D(H  95,C  39,C  38,H  93)     63.2944         0.010735   
    597. D(H  95,C  39,C  38,C  37)    -58.8963         0.010735   
    598. D(C  40,C  39,C  38,H  94)    -58.1196         0.010735   
    599. D(C  40,C  39,C  38,H  93)   -173.3686         0.010735   
    600. D(C  40,C  39,C  38,C  37)     64.4407         0.010735   
    601. D(H  96,C  39,C  38,H  94)     63.2603         0.010735   
    602. D(H  96,C  39,C  38,H  93)    -51.9887         0.010735   
    603. D(H  96,C  39,C  38,C  37)   -174.1794         0.010735   
    604. D(H  98,C  40,C  39,H  95)     63.0680         0.011043   
    605. D(H  98,C  40,C  39,C  38)    -60.7559         0.011043   
    606. D(H  97,C  40,C  39,H  96)    -66.5728         0.011043   
    607. D(H  97,C  40,C  39,H  95)    178.6056         0.011043   
    608. D(H  97,C  40,C  39,C  38)     54.7816         0.011043   
    609. D(C  41,C  40,C  39,H  96)     55.8024         0.011043   
    610. D(C  41,C  40,C  39,H  95)    -59.0192         0.011043   
    611. D(H  98,C  40,C  39,H  96)    177.8896         0.011043   
    612. D(C  41,C  40,C  39,C  38)    177.1568         0.011043   
    613. D(H 101,C  41,C  40,H  98)    -58.0707         0.011168   
    614. D(H 101,C  41,C  40,H  97)   -173.9511         0.011168   
    615. D(H 101,C  41,C  40,C  39)     64.2982         0.011168   
    616. D(H 100,C  41,C  40,H  98)   -178.4667         0.011168   
    617. D(H 100,C  41,C  40,H  97)     65.6528         0.011168   
    618. D(H 100,C  41,C  40,C  39)    -56.0978         0.011168   
    619. D(H  99,C  41,C  40,H  98)     61.7129         0.011168   
    620. D(H  99,C  41,C  40,H  97)    -54.1676         0.011168   
    621. D(H  99,C  41,C  40,C  39)   -175.9182         0.011168   
    622. D(H 102,O  43,C  17,H  65)    173.7618         0.019403   
    623. D(H 102,O  43,C  17,C  18)     55.9838         0.019403   
    624. D(H 102,O  43,C  17,C  16)    -69.1275         0.019403   
    625. D(H 104,C  45,C  13,H  61)     68.3096         0.011133   
    626. D(H 104,C  45,C  13,C  14)   -173.3788         0.011133   
    627. D(H 104,C  45,C  13,N  12)    -50.5325         0.011133   
    628. D(H 103,C  45,C  13,H  61)   -175.7476         0.011133   
    629. D(H 103,C  45,C  13,C  14)    -57.4360         0.011133   
    630. D(H 103,C  45,C  13,N  12)     65.4103         0.011133   
    631. D(C  46,C  45,C  13,H  61)    -53.5945         0.011133   
    632. D(C  46,C  45,C  13,C  14)     64.7171         0.011133   
    633. D(C  46,C  45,C  13,N  12)   -172.4366         0.011133   
    634. D(H 107,C  46,C  45,H 104)    -61.8387         0.011159   
    635. D(H 107,C  46,C  45,H 103)    179.8127         0.011159   
    636. D(H 107,C  46,C  45,C  13)     58.7914         0.011159   
    637. D(H 106,C  46,C  45,H 104)    177.3774         0.011159   
    638. D(H 106,C  46,C  45,H 103)     59.0289         0.011159   
    639. D(H 106,C  46,C  45,C  13)    -61.9924         0.011159   
    640. D(H 105,C  46,C  45,H 104)     57.9362         0.011159   
    641. D(H 105,C  46,C  45,H 103)    -60.4123         0.011159   
    642. D(H 105,C  46,C  45,C  13)    178.5664         0.011159   
    643. D(H 108,C  48,C  10,H  59)     87.2862         0.009605   
    644. D(H 108,C  48,C  10,C  11)   -157.7802         0.009605   
    645. D(H 108,C  48,C  10,N   9)    -32.4974         0.009605   
    646. D(C  50,C  48,C  10,H  59)    -30.8893         0.009605   
    647. D(C  50,C  48,C  10,C  11)     84.0443         0.009605   
    648. D(C  50,C  48,C  10,N   9)   -150.6729         0.009605   
    649. D(C  49,C  48,C  10,H  59)   -155.0168         0.009605   
    650. D(C  49,C  48,C  10,C  11)    -40.0833         0.009605   
    651. D(C  49,C  48,C  10,N   9)     85.1995         0.009605   
    652. D(H 111,C  49,C  48,C  50)     65.6675         0.010899   
    653. D(H 111,C  49,C  48,C  10)   -170.0660         0.010899   
    654. D(H 110,C  49,C  48,H 108)   -173.9313         0.010899   
    655. D(H 110,C  49,C  48,C  50)    -54.5747         0.010899   
    656. D(H 110,C  49,C  48,C  10)     69.6919         0.010899   
    657. D(H 109,C  49,C  48,H 108)     67.3427         0.010899   
    658. D(H 109,C  49,C  48,C  50)   -173.3007         0.010899   
    659. D(H 111,C  49,C  48,H 108)    -53.6892         0.010899   
    660. D(H 109,C  49,C  48,C  10)    -49.0341         0.010899   
    661. D(H 114,C  50,C  48,H 108)   -175.2546         0.011185   
    662. D(H 114,C  50,C  48,C  49)     65.7325         0.011185   
    663. D(H 114,C  50,C  48,C  10)    -58.7536         0.011185   
    664. D(H 113,C  50,C  48,H 108)     64.5938         0.011185   
    665. D(H 113,C  50,C  48,C  49)    -54.4192         0.011185   
    666. D(H 113,C  50,C  48,C  10)   -178.9052         0.011185   
    667. D(H 112,C  50,C  48,H 108)    -55.5443         0.011185   
    668. D(H 112,C  50,C  48,C  49)   -174.5573         0.011185   
    669. D(H 112,C  50,C  48,C  10)     60.9567         0.011185   
    -----------------------------------------------------------------

Number of atoms                         .... 115
Number of degrees of freedom            .... 669

         *************************************************************
         *                GEOMETRY OPTIMIZATION CYCLE   1            *
         *************************************************************
---------------------------------
CARTESIAN COORDINATES (ANGSTROEM)
---------------------------------
  O      3.374488   -3.074898    2.085435
  C      3.219490   -1.854702    2.114436
  C      4.467229   -0.953470    2.062761
  C      5.400990   -1.234343    3.246532
  C      4.872222   -0.266552    4.312792
  C      4.557761    1.005026    3.514456
  N      4.226061    0.491890    2.164715
  C      3.720255    1.211078    1.138666
  O      3.314581    0.667994    0.087489
  N      1.999341   -1.253909    2.111853
  C      0.813845   -2.052979    1.823977
  C      0.822493   -2.641642    0.388102
  N      1.670591   -2.008683   -0.469473
  C      1.914873   -2.261408   -1.887300
  C      1.309533   -1.087004   -2.687006
  N      2.225365   -0.219020   -3.195729
  C      1.903820    0.975836   -3.966598
  C      1.783429    2.232430   -3.078216
  C      0.395052    2.290180   -2.406964
  C      0.406160    3.241188   -1.216025
  N     -0.224028    2.756060   -0.102001
  C     -0.005643    3.356299    1.215382
  C      1.340069    2.774576    1.700961
  N      2.420225    3.308661    1.086164
  C      3.744552    2.741951    1.296355
  C      4.745513    3.354753    0.314783
  O      1.425414    1.840988    2.514010
  C     -1.161591    3.082743    2.172794
  C     -1.316776    4.133498    3.285396
  C     -0.050259    4.293064    4.134917
  C     -2.520964    3.782271    4.165356
  O      0.952619    4.346839   -1.238419
  C     -0.711156    2.713832   -3.405586
  C     -2.131006    2.510267   -2.927427
  C     -2.540295    1.030502   -3.097926
  C     -3.767755    0.640820   -2.273896
  C     -4.107673   -0.843560   -2.423143
  C     -5.299294   -1.288887   -1.572921
  C     -5.708658   -2.751146   -1.802838
  C     -4.641615   -3.793592   -1.439197
  C     -4.286596   -3.834895    0.049819
  C     -3.273013   -4.929278    0.388824
  O     -0.435496    3.135944   -4.514603
  O      2.871128    2.299226   -2.162995
  O      0.092053   -0.955070   -2.829210
  C      1.396735   -3.595233   -2.429287
  C      1.875085   -3.820076   -3.864882
  O      0.062653   -3.567617    0.113783
  C     -0.479268   -1.224916    2.047950
  C     -0.840884   -0.402296    0.805665
  C     -1.644188   -2.125321    2.462080
  H      4.930711   -1.174482    1.090375
  H      6.437629   -0.986795    2.974460
  H      5.356756   -2.290071    3.535302
  H      3.949963   -0.667433    4.758285
  H      5.585083   -0.075907    5.124236
  H      3.705810    1.566509    3.919386
  H      5.436690    1.667354    3.466018
  H      1.918623   -0.235742    2.169913
  H      0.815804   -2.928133    2.488335
  H      2.202596   -1.224015   -0.086573
  H      3.012941   -2.246583   -2.018589
  H      3.199669   -0.371421   -2.957108
  H      0.971794    0.793689   -4.516567
  H      2.711859    1.130117   -4.693875
  H      1.875105    3.119338   -3.718533
  H      0.113149    1.284591   -2.052319
  H     -0.505839    1.778530   -0.107432
  H      0.111669    4.436352    1.041575
  H      2.257781    3.927446    0.283162
  H      4.050923    2.984877    2.322181
  H      4.801552    4.440876    0.470376
  H      5.745232    2.932408    0.482197
  H      4.441370    3.158702   -0.721468
  H     -1.021821    2.087435    2.624521
  H     -2.090291    3.052001    1.582386
  H     -1.521732    5.102759    2.794727
  H      0.807233    4.640046    3.539515
  H     -0.213070    5.030884    4.933781
  H      0.232518    3.337074    4.599196
  H     -3.441246    3.689161    3.570081
  H     -2.356616    2.824081    4.682865
  H     -2.689941    4.551735    4.932187
  H     -2.793941    3.171949   -3.501048
  H     -2.200808    2.783453   -1.862335
  H     -1.703961    0.373459   -2.817041
  H     -2.723228    0.836050   -4.166576
  H     -4.636678    1.257964   -2.562179
  H     -3.573270    0.864288   -1.209118
  H     -3.214913   -1.436146   -2.164839
  H     -4.317396   -1.062807   -3.485133
  H     -6.163293   -0.639868   -1.796216
  H     -5.067764   -1.125697   -0.506478
  H     -5.984412   -2.874860   -2.864191
  H     -6.623005   -2.962599   -1.222161
  H     -3.724691   -3.619416   -2.026750
  H     -5.005462   -4.790019   -1.742710
  H     -5.212190   -3.984347    0.633369
  H     -3.884777   -2.857630    0.364070
  H     -3.088185   -4.987247    1.471223
  H     -3.636374   -5.915723    0.060910
  H     -2.304924   -4.742991   -0.097700
  H      2.819023    1.590898   -1.476683
  H      0.302185   -3.598333   -2.378105
  H      1.747016   -4.401196   -1.771031
  H      1.522325   -4.789681   -4.241014
  H      1.492208   -3.044079   -4.544296
  H      2.974519   -3.816122   -3.932215
  H     -0.257062   -0.526972    2.872882
  H      0.041292    0.149403    0.448157
  H     -1.175943   -1.047747   -0.018149
  H     -1.648588    0.306690    1.037161
  H     -1.427485   -2.645333    3.406201
  H     -2.561247   -1.533962    2.599933
  H     -1.829882   -2.884697    1.691991

----------------------------
CARTESIAN COORDINATES (A.U.)
----------------------------
  NO LB      ZA    FRAG     MASS         X           Y           Z
   0 O     8.0000    0    15.999    6.376858   -5.810714    3.940901
   1 C     6.0000    0    12.011    6.083955   -3.504880    3.995704
   2 C     6.0000    0    12.011    8.441839   -1.801797    3.898054
   3 C     6.0000    0    12.011   10.206392   -2.332571    6.135056
   4 C     6.0000    0    12.011    9.207166   -0.503711    8.149996
   5 C     6.0000    0    12.011    8.612921    1.899224    6.641359
   6 N     7.0000    0    14.007    7.986098    0.929538    4.090718
   7 C     6.0000    0    12.011    7.030263    2.288606    2.151767
   8 O     8.0000    0    15.999    6.263651    1.262325    0.165331
   9 N     7.0000    0    14.007    3.778207   -2.369545    3.990824
  10 C     6.0000    0    12.011    1.537945   -3.879568    3.446816
  11 C     6.0000    0    12.011    1.554286   -4.991979    0.733407
  12 N     7.0000    0    14.007    3.156959   -3.795862   -0.887176
  13 C     6.0000    0    12.011    3.618585   -4.273443   -3.566480
  14 C     6.0000    0    12.011    2.474659   -2.054140   -5.077705
  15 N     7.0000    0    14.007    4.205330   -0.413889   -6.039053
  16 C     6.0000    0    12.011    3.597699    1.844063   -7.495784
  17 C     6.0000    0    12.011    3.370192    4.218682   -5.816984
  18 C     6.0000    0    12.011    0.746541    4.327814   -4.548503
  19 C     6.0000    0    12.011    0.767532    6.124957   -2.297954
  20 N     7.0000    0    14.007   -0.423352    5.208199   -0.192754
  21 C     6.0000    0    12.011   -0.010663    6.342486    2.296739
  22 C     6.0000    0    12.011    2.532364    5.243188    3.214351
  23 N     7.0000    0    14.007    4.573562    6.252463    2.052552
  24 C     6.0000    0    12.011    7.076179    5.181537    2.449756
  25 C     6.0000    0    12.011    8.967721    6.339565    0.594854
  26 O     8.0000    0    15.999    2.693642    3.478963    4.750791
  27 C     6.0000    0    12.011   -2.195089    5.825540    4.105986
  28 C     6.0000    0    12.011   -2.488346    7.811180    6.208499
  29 C     6.0000    0    12.011   -0.094976    8.112716    7.813860
  30 C     6.0000    0    12.011   -4.763932    7.147456    7.871382
  31 O     8.0000    0    15.999    1.800188    8.214336   -2.340272
  32 C     6.0000    0    12.011   -1.343890    5.128399   -6.435624
  33 C     6.0000    0    12.011   -4.027018    4.743717   -5.532035
  34 C     6.0000    0    12.011   -4.800462    1.947367   -5.854231
  35 C     6.0000    0    12.011   -7.120025    1.210974   -4.297041
  36 C     6.0000    0    12.011   -7.762378   -1.594098   -4.579078
  37 C     6.0000    0    12.011  -10.014214   -2.435643   -2.972390
  38 C     6.0000    0    12.011  -10.787800   -5.198912   -3.406870
  39 C     6.0000    0    12.011   -8.771381   -7.168850   -2.719688
  40 C     6.0000    0    12.011   -8.100493   -7.246902    0.094144
  41 C     6.0000    0    12.011   -6.185098   -9.314985    0.734772
  42 O     8.0000    0    15.999   -0.822968    5.926074   -8.531364
  43 O     8.0000    0    15.999    5.425646    4.344908   -4.087468
  44 O     8.0000    0    15.999    0.173956   -1.804820   -5.346433
  45 C     6.0000    0    12.011    2.639446   -6.794006   -4.590687
  46 C     6.0000    0    12.011    3.543397   -7.218897   -7.303568
  47 O     8.0000    0    15.999    0.118397   -6.741819    0.215019
  48 C     6.0000    0    12.011   -0.905685   -2.314756    3.870064
  49 C     6.0000    0    12.011   -1.589040   -0.760230    1.522486
  50 C     6.0000    0    12.011   -3.107065   -4.016275    4.652658
  51 H     1.0000    0     1.008    9.317694   -2.219450    2.060509
  52 H     1.0000    0     1.008   12.165356   -1.864773    5.620915
  53 H     1.0000    0     1.008   10.122801   -4.327608    6.680753
  54 H     1.0000    0     1.008    7.464348   -1.261265    8.991855
  55 H     1.0000    0     1.008   10.554277   -0.143443    9.683403
  56 H     1.0000    0     1.008    7.002966    2.960273    7.406566
  57 H     1.0000    0     1.008   10.273855    3.150843    6.549824
  58 H     1.0000    0     1.008    3.625673   -0.445487    4.100542
  59 H     1.0000    0     1.008    1.541646   -5.533370    4.702272
  60 H     1.0000    0     1.008    4.162303   -2.313053   -0.163599
  61 H     1.0000    0     1.008    5.693634   -4.245427   -3.814581
  62 H     1.0000    0     1.008    6.046498   -0.701885   -5.588123
  63 H     1.0000    0     1.008    1.836425    1.499855   -8.535075
  64 H     1.0000    0     1.008    5.124671    2.135613   -8.870137
  65 H     1.0000    0     1.008    3.543435    5.894694   -7.027008
  66 H     1.0000    0     1.008    0.213820    2.427525   -3.878322
  67 H     1.0000    0     1.008   -0.955898    3.360935   -0.203018
  68 H     1.0000    0     1.008    0.211024    8.383490    1.968292
  69 H     1.0000    0     1.008    4.266588    7.421797    0.535099
  70 H     1.0000    0     1.008    7.655135    5.640600    4.388287
  71 H     1.0000    0     1.008    9.073619    8.392039    0.888882
  72 H     1.0000    0     1.008   10.856914    5.541448    0.911220
  73 H     1.0000    0     1.008    8.392972    5.969081   -1.363377
  74 H     1.0000    0     1.008   -1.930963    3.944680    4.959627
  75 H     1.0000    0     1.008   -3.950078    5.767447    2.990276
  76 H     1.0000    0     1.008   -2.875657    9.642816    5.281269
  77 H     1.0000    0     1.008    1.525449    8.768417    6.688714
  78 H     1.0000    0     1.008   -0.402644    9.506994    9.323496
  79 H     1.0000    0     1.008    0.439395    6.306156    8.691221
  80 H     1.0000    0     1.008   -6.503012    6.971503    6.746475
  81 H     1.0000    0     1.008   -4.453358    5.336739    8.849332
  82 H     1.0000    0     1.008   -5.083252    8.601532    9.320482
  83 H     1.0000    0     1.008   -5.279784    5.994115   -6.616021
  84 H     1.0000    0     1.008   -4.158925    5.259964   -3.519303
  85 H     1.0000    0     1.008   -3.220020    0.705735   -5.323435
  86 H     1.0000    0     1.008   -5.146154    1.579905   -7.873687
  87 H     1.0000    0     1.008   -8.762052    2.377207   -4.841817
  88 H     1.0000    0     1.008   -6.752501    1.633267   -2.284902
  89 H     1.0000    0     1.008   -6.075306   -2.713923   -4.090953
  90 H     1.0000    0     1.008   -8.158695   -2.008414   -6.585947
  91 H     1.0000    0     1.008  -11.646935   -1.209175   -3.394356
  92 H     1.0000    0     1.008   -9.576687   -2.127259   -0.957105
  93 H     1.0000    0     1.008  -11.308899   -5.432698   -5.412536
  94 H     1.0000    0     1.008  -12.515666   -5.598502   -2.309549
  95 H     1.0000    0     1.008   -7.038647   -6.839706   -3.830003
  96 H     1.0000    0     1.008   -9.458952   -9.051824   -3.293244
  97 H     1.0000    0     1.008   -9.849611   -7.529325    1.196894
  98 H     1.0000    0     1.008   -7.341165   -5.400139    0.687992
  99 H     1.0000    0     1.008   -5.835825   -9.424530    2.780209
 100 H     1.0000    0     1.008   -6.871751  -11.179096    0.115103
 101 H     1.0000    0     1.008   -4.355674   -8.962954   -0.184627
 102 H     1.0000    0     1.008    5.327182    3.006361   -2.790527
 103 H     1.0000    0     1.008    0.571046   -6.799863   -4.493967
 104 H     1.0000    0     1.008    3.301383   -8.317055   -3.346763
 105 H     1.0000    0     1.008    2.876778   -9.051186   -8.014355
 106 H     1.0000    0     1.008    2.819865   -5.752476   -8.587475
 107 H     1.0000    0     1.008    5.621027   -7.211426   -7.430810
 108 H     1.0000    0     1.008   -0.485777   -0.995834    5.428961
 109 H     1.0000    0     1.008    0.078030    0.282331    0.846895
 110 H     1.0000    0     1.008   -2.222211   -1.979956   -0.034297
 111 H     1.0000    0     1.008   -3.115379    0.579560    1.959950
 112 H     1.0000    0     1.008   -2.697556   -4.998955    6.436787
 113 H     1.0000    0     1.008   -4.840056   -2.898768    4.913161
 114 H     1.0000    0     1.008   -3.457977   -5.451288    3.197400

--------------------------------
INTERNAL COORDINATES (ANGSTROEM)
--------------------------------
 O      0   0   0     0.000000000000     0.00000000     0.00000000
 C      1   0   0     1.230342028698     0.00000000     0.00000000
 C      2   1   0     1.540045956190   118.52311533     0.00000000
 C      3   2   1     1.533659627268   111.11323217   300.18758000
 C      4   3   2     1.533990174481   102.18683821   270.59307149
 C      5   4   3     1.533993958141   103.40828618   319.89695977
 N      3   2   1     1.468885156728   116.13424533   182.79963285
 C      7   3   2     1.351239112471   122.17269803   285.32768212
 O      8   7   3     1.250793411247   121.90187238     6.68231810
 N      2   1   3     1.360045624307   123.44100112   176.05327195
 C     10   2   1     1.458350042510   119.18403163   348.68530764
 C     11  10   2     1.551880723235   112.70299111   296.47062422
 N     12  11  10     1.362109535231   114.18802337   340.77878713
 C     13  12  11     1.460745160257   129.40685534   181.69523389
 C     14  13  12     1.544406243755   107.78736067   109.15387922
 N     15  14  13     1.360493486579   114.51406621   105.97107686
 C     16  15  14     1.457844678404   124.90023871   181.00285156
 C     17  16  15     1.543614863424   112.33922253    92.58329882
 C     18  17  16     1.543211775574   110.54642804   278.92005168
 C     19  18  17     1.524097820498   110.89658509   161.98697582
 N     20  19  18     1.368771206286   114.29692063   224.41498894
 C     21  20  19     1.464061530276   121.22244805   163.35065747
 C     22  21  20     1.544386352575   104.97890030   280.16223140
 N     23  22  21     1.352759560221   113.83822841    74.74891611
 C     24  23  22     1.455741751321   120.46976793   188.46075021
 C     25  24  23     1.530010815100   110.28002982   170.05533663
 O     23  22  21     1.240934568081   123.31955209   259.33483888
 C     22  21  20     1.525676364889   112.21829889   156.70128264
 C     28  22  21     1.538197797285   114.07051768   205.70010372
 C     29  28  22     1.533366139585   112.86052550   302.75901418
 C     29  28  22     1.532239700204   109.76111992   178.66065081
 O     20  19  18     1.233525185141   123.25309702    43.30859186
 C     19  18  17     1.549329672950   111.85300167   284.88858476
 C     33  19  18     1.511968981614   115.45721961   167.25492062
 C     34  33  19     1.544761956403   110.05216855   280.11793037
 C     35  34  33     1.528899909838   113.41452275   162.56808796
 C     36  35  34     1.530098964892   111.90352965   182.36433635
 C     37  36  35     1.530082736887   113.65090537   177.81552253
 C     38  37  36     1.535787103739   113.67282143   175.56859711
 C     39  38  37     1.535418412462   115.19706179    62.47631591
 C     40  39  38     1.531310513814   114.18749595    64.44070014
 C     41  40  39     1.529688969206   112.85571942   177.15684836
 O     33  19  18     1.218231034039   121.32905782   349.73513601
 O     18  17  16     1.423088592289   110.40955423    45.95079863
 O     15  14  13     1.232836571303   121.88255603   286.75274316
 C     14  13  12     1.530132632475   115.97561820   345.00399842
 C     46  14  13     1.529805564506   110.77085056   187.56344418
 O     12  11  10     1.228835810380   119.27068788   163.32611764
 C     11  10   2     1.551770923232   110.88688937   172.77162274
 C     49  11  10     1.533212944169   111.46312302    85.19951264
 C     49  11  10     1.529468090563   111.07737963   209.32709516
 H      3   2   1     1.099635518989   104.68712979    62.35601788
 H      4   3   2     1.099965474836   109.97813071   152.90011058
 H      4   3   2     1.095402682198   110.81780864    32.72266893
 H      5   4   3     1.099877969157   109.91495936    77.23574556
 H      5   4   3     1.096794042688   113.57034336   198.31736326
 H      6   5   4     1.097748793252   113.02353118   147.60344353
 H      6   5   4     1.101608213452   110.95975524   270.58131631
 H     10   2   1     1.023010874714   120.68593379   177.84186773
 H     11  10   2     1.098758856627   108.39797534    52.13513611
 H     13  12  11     1.022422081230   116.41230834   359.85773489
 H     14  13  12     1.105989002728   106.19659652   225.28292640
 H     16  15  14     1.014610643622   117.55803142   355.68849715
 H     17  16  15     1.097413047673   108.43808111   329.61360861
 H     17  16  15     1.098025762070   107.64280416   212.48465684
 H     18  17  16     1.097731845453   108.39073150   161.48856030
 H     19  18  17     1.102929039835   109.61481062    42.04379660
 H     21  20  19     1.017355605478   117.62869177     9.44184907
 H     22  21  20     1.100220582157   106.03497411    35.54038455
 H     24  23  22     1.026690865552   117.84450555   351.34127140
 H     25  24  23     1.097813764872   107.61726746   289.03705185
 H     26  25  24     1.098640920452   109.78368414    60.44879003
 H     26  25  24     1.098107243956   110.10535622   179.46022978
 H     26  25  24     1.097613925553   110.66230429   300.17582021
 H     28  22  21     1.101921786318   108.85078048    83.13642938
 H     28  22  21     1.100913957035   107.91530538   326.69135985
 H     29  28  22     1.105544482081   107.25210418    61.48898594
 H     30  29  28     1.100087444996   112.13518456    61.97519977
 H     30  29  28     1.099577558504   110.48951243   181.59691831
 H     30  29  28     1.099743199425   110.84337102   301.70894548
 H     31  29  28     1.099972839863   111.47689755   303.91487756
 H     31  29  28     1.101342095369   110.61029874    63.82918514
 H     31  29  28     1.099389587177   111.15755651   183.42940453
 H     34  33  19     1.098338321887   108.69505115   158.27734787
 H     34  33  19     1.101782083602   109.37981786    39.97813465
 H     35  34  33     1.100025774726   110.03193510    40.58510352
 H     35  34  33     1.101494189623   108.67447557   285.43697726
 H     36  35  34     1.104084475889   110.40444269    59.48994848
 H     36  35  34     1.105221388398   109.05265816   303.31174150
 H     37  36  35     1.102224954611   108.58841415    54.88558664
 H     37  36  35     1.104479087792   109.18064048   299.97003437
 H     38  37  36     1.103440015160   109.03621582    54.09882173
 H     38  37  36     1.103420563425   109.30466779   298.83823406
 H     39  38  37     1.103546853513   108.50130575   300.02616205
 H     39  38  37     1.103598522060   108.93533052   184.92568405
 H     40  39  38     1.102862164996   110.14439337   301.10368567
 H     40  39  38     1.103345621917   108.59156799   185.82055280
 H     41  40  39     1.104350699646   108.85371125    54.78164748
 H     41  40  39     1.102387827290   109.74195904   299.24405397
 H     42  41  40     1.099594669923   111.54570978   184.08177356
 H     42  41  40     1.101196189134   110.86963567   303.90216978
 H     42  41  40     1.099366119715   111.35707585    64.29819397
 H     44  18  17     0.987657431021   111.89540054   290.87245974
 H     46  14  13     1.095750274907   108.91545935    65.41034927
 H     46  14  13     1.097986564444   108.63165617   309.46750270
 H     47  46  14     1.098202949646   110.53197063   178.56638406
 H     47  46  14     1.100167909966   111.53293282   298.00760389
 H     47  46  14     1.101501491089   111.65006745    58.79141356
 H     49  11  10     1.103183821317   106.12214130   327.50256247
 H     50  49  11     1.100190024321   110.07332041   310.96586887
 H     50  49  11     1.098881864317   111.35844079    69.69187888
 H     50  49  11     1.099380117051   110.40630972   189.93402255
 H     51  49  11     1.099425384490   111.15191450    60.95669838
 H     51  49  11     1.099866560094   110.63838933   181.09476374
 H     51  49  11     1.097347576644   110.25870179   301.24644486

---------------------------
INTERNAL COORDINATES (A.U.)
---------------------------
 O      0   0   0     0.000000000000     0.00000000     0.00000000
 C      1   0   0     2.325009485292     0.00000000     0.00000000
 C      2   1   0     2.910265090851   118.52311533     0.00000000
 C      3   2   1     2.898196678188   111.11323217   300.18758000
 C      4   3   2     2.898821321896   102.18683821   270.59307149
 C      5   4   3     2.898828471977   103.40828618   319.89695977
 N      3   2   1     2.775790668398   116.13424533   182.79963285
 C      7   3   2     2.553471864013   122.17269803   285.32768212
 O      8   7   3     2.363656997370   121.90187238     6.68231810
 N      2   1   3     2.570113759578   123.44100112   176.05327195
 C     10   2   1     2.755882187736   119.18403163   348.68530764
 C     11  10   2     2.932629559425   112.70299111   296.47062422
 N     12  11  10     2.574013985990   114.18802337   340.77878713
 C     13  12  11     2.760408304337   129.40685534   181.69523389
 C     14  13  12     2.918504840216   107.78736067   109.15387922
 N     15  14  13     2.570960096618   114.51406621   105.97107686
 C     16  15  14     2.754927187979   124.90023871   181.00285156
 C     17  16  15     2.917009348121   112.33922253    92.58329882
 C     18  17  16     2.916247622477   110.54642804   278.92005168
 C     19  18  17     2.880127482047   110.89658509   161.98697582
 N     20  19  18     2.586602719877   114.29692063   224.41498894
 C     21  20  19     2.766675335431   121.22244805   163.35065747
 C     22  21  20     2.918467251331   104.97890030   280.16223140
 N     23  22  21     2.556345093861   113.83822841    74.74891611
 C     24  23  22     2.750953231712   120.46976793   188.46075021
 C     25  24  23     2.891301422477   110.28002982   170.05533663
 O     23  22  21     2.345026483789   123.31955209   259.33483888
 C     22  21  20     2.883110498636   112.21829889   156.70128264
 C     28  22  21     2.906772576670   114.07051768   205.70010372
 C     29  28  22     2.897642066844   112.86052550   302.75901418
 C     29  28  22     2.895513404908   109.76111992   178.66065081
 O     20  19  18     2.331024779210   123.25309702    43.30859186
 C     19  18  17     2.927808773034   111.85300167   284.88858476
 C     33  19  18     2.857207298234   115.45721961   167.25492062
 C     34  33  19     2.919177039702   110.05216855   280.11793037
 C     35  34  33     2.889202115770   113.41452275   162.56808796
 C     36  35  34     2.891468001442   111.90352965   182.36433635
 C     37  36  35     2.891437334958   113.65090537   177.81552253
 C     38  37  36     2.902217026074   113.67282143   175.56859711
 C     39  38  37     2.901520300534   115.19706179    62.47631591
 C     40  39  38     2.893757497102   114.18749595    64.44070014
 C     41  40  39     2.890693221880   112.85571942   177.15684836
 O     33  19  18     2.302123022178   121.32905782   349.73513601
 O     18  17  16     2.689247703734   110.40955423    45.95079863
 O     15  14  13     2.329723487644   121.88255603   286.75274316
 C     14  13  12     2.891531623954   115.97561820   345.00399842
 C     46  14  13     2.890913555065   110.77085056   187.56344418
 O     12  11  10     2.322163145174   119.27068788   163.32611764
 C     11  10   2     2.932422067491   110.88688937   172.77162274
 C     49  11  10     2.897352569463   111.46312302    85.19951264
 C     49  11  10     2.890275821735   111.07737963   209.32709516
 H      3   2   1     2.078009978021   104.68712979    62.35601788
 H      4   3   2     2.078633504208   109.97813071   152.90011058
 H      4   3   2     2.070011075717   110.81780864    32.72266893
 H      5   4   3     2.078468142440   109.91495936    77.23574556
[...]
freq.      91.53  E(vib)   ...       0.47 
freq.      95.02  E(vib)   ...       0.47 
freq.      99.37  E(vib)   ...       0.46 
freq.     103.81  E(vib)   ...       0.46 
freq.     108.24  E(vib)   ...       0.45 
freq.     111.07  E(vib)   ...       0.45 
freq.     117.54  E(vib)   ...       0.44 
freq.     123.13  E(vib)   ...       0.43 
freq.     129.14  E(vib)   ...       0.43 
freq.     137.06  E(vib)   ...       0.42 
freq.     140.59  E(vib)   ...       0.41 
freq.     150.29  E(vib)   ...       0.40 
freq.     151.00  E(vib)   ...       0.40 
freq.     158.98  E(vib)   ...       0.39 
freq.     167.08  E(vib)   ...       0.39 
freq.     168.32  E(vib)   ...       0.38 
freq.     175.01  E(vib)   ...       0.38 
freq.     182.40  E(vib)   ...       0.37 
freq.     192.43  E(vib)   ...       0.36 
freq.     193.31  E(vib)   ...       0.36 
freq.     199.94  E(vib)   ...       0.35 
freq.     202.60  E(vib)   ...       0.35 
freq.     206.55  E(vib)   ...       0.35 
freq.     221.23  E(vib)   ...       0.33 
freq.     226.95  E(vib)   ...       0.33 
freq.     231.49  E(vib)   ...       0.32 
freq.     238.53  E(vib)   ...       0.32 
freq.     241.84  E(vib)   ...       0.31 
freq.     244.71  E(vib)   ...       0.31 
freq.     246.25  E(vib)   ...       0.31 
freq.     248.33  E(vib)   ...       0.31 
freq.     250.30  E(vib)   ...       0.31 
freq.     257.79  E(vib)   ...       0.30 
freq.     261.88  E(vib)   ...       0.29 
freq.     265.98  E(vib)   ...       0.29 
freq.     269.46  E(vib)   ...       0.29 
freq.     278.78  E(vib)   ...       0.28 
freq.     281.57  E(vib)   ...       0.28 
freq.     283.35  E(vib)   ...       0.28 
freq.     296.07  E(vib)   ...       0.27 
freq.     297.68  E(vib)   ...       0.27 
freq.     302.02  E(vib)   ...       0.26 
freq.     313.75  E(vib)   ...       0.25 
freq.     318.35  E(vib)   ...       0.25 
freq.     319.90  E(vib)   ...       0.25 
freq.     334.82  E(vib)   ...       0.24 
freq.     340.69  E(vib)   ...       0.23 
freq.     349.40  E(vib)   ...       0.23 
freq.     350.06  E(vib)   ...       0.23 
freq.     365.80  E(vib)   ...       0.22 
freq.     370.40  E(vib)   ...       0.21 
freq.     382.27  E(vib)   ...       0.21 
freq.     398.81  E(vib)   ...       0.19 
freq.     401.76  E(vib)   ...       0.19 
freq.     417.50  E(vib)   ...       0.18 
freq.     427.54  E(vib)   ...       0.18 
freq.     429.68  E(vib)   ...       0.18 
freq.     436.87  E(vib)   ...       0.17 
freq.     441.21  E(vib)   ...       0.17 
freq.     448.65  E(vib)   ...       0.17 
freq.     487.82  E(vib)   ...       0.15 
freq.     488.73  E(vib)   ...       0.15 
freq.     494.74  E(vib)   ...       0.14 
freq.     498.97  E(vib)   ...       0.14 
freq.     517.54  E(vib)   ...       0.13 
freq.     533.42  E(vib)   ...       0.13 
freq.     551.03  E(vib)   ...       0.12 
freq.     555.24  E(vib)   ...       0.12 
freq.     572.97  E(vib)   ...       0.11 
freq.     583.44  E(vib)   ...       0.11 
freq.     608.85  E(vib)   ...       0.10 
freq.     618.38  E(vib)   ...       0.09 
freq.     624.04  E(vib)   ...       0.09 
freq.     631.16  E(vib)   ...       0.09 
freq.     642.14  E(vib)   ...       0.09 
freq.     646.58  E(vib)   ...       0.09 
freq.     657.95  E(vib)   ...       0.08 
freq.     673.35  E(vib)   ...       0.08 
freq.     687.29  E(vib)   ...       0.07 
freq.     700.97  E(vib)   ...       0.07 
freq.     703.72  E(vib)   ...       0.07 
freq.     704.55  E(vib)   ...       0.07 
freq.     710.84  E(vib)   ...       0.07 
freq.     718.94  E(vib)   ...       0.07 
freq.     736.65  E(vib)   ...       0.06 
freq.     743.25  E(vib)   ...       0.06 
freq.     750.76  E(vib)   ...       0.06 
freq.     759.92  E(vib)   ...       0.06 
freq.     767.73  E(vib)   ...       0.06 
freq.     771.80  E(vib)   ...       0.05 
freq.     776.56  E(vib)   ...       0.05 
freq.     786.20  E(vib)   ...       0.05 
freq.     790.87  E(vib)   ...       0.05 
freq.     805.28  E(vib)   ...       0.05 
freq.     809.37  E(vib)   ...       0.05 
freq.     826.28  E(vib)   ...       0.04 
freq.     827.34  E(vib)   ...       0.04 
freq.     829.24  E(vib)   ...       0.04 
freq.     839.23  E(vib)   ...       0.04 
freq.     843.10  E(vib)   ...       0.04 
freq.     862.36  E(vib)   ...       0.04 
freq.     864.56  E(vib)   ...       0.04 
freq.     869.56  E(vib)   ...       0.04 
freq.     878.68  E(vib)   ...       0.04 
freq.     883.93  E(vib)   ...       0.04 
freq.     884.22  E(vib)   ...       0.04 
freq.     898.81  E(vib)   ...       0.03 
freq.     900.70  E(vib)   ...       0.03 
freq.     903.77  E(vib)   ...       0.03 
freq.     904.01  E(vib)   ...       0.03 
freq.     909.70  E(vib)   ...       0.03 
freq.     915.26  E(vib)   ...       0.03 
freq.     923.55  E(vib)   ...       0.03 
freq.     927.43  E(vib)   ...       0.03 
freq.     938.67  E(vib)   ...       0.03 
freq.     942.36  E(vib)   ...       0.03 
freq.     946.15  E(vib)   ...       0.03 
freq.     946.48  E(vib)   ...       0.03 
freq.     951.60  E(vib)   ...       0.03 
freq.     959.46  E(vib)   ...       0.03 
freq.     968.32  E(vib)   ...       0.03 
freq.     970.95  E(vib)   ...       0.03 
freq.     979.06  E(vib)   ...       0.03 
freq.     983.44  E(vib)   ...       0.02 
freq.     994.38  E(vib)   ...       0.02 
freq.    1007.13  E(vib)   ...       0.02 
freq.    1010.99  E(vib)   ...       0.02 
freq.    1018.60  E(vib)   ...       0.02 
freq.    1023.31  E(vib)   ...       0.02 
freq.    1025.60  E(vib)   ...       0.02 
freq.    1029.04  E(vib)   ...       0.02 
freq.    1032.07  E(vib)   ...       0.02 
freq.    1039.36  E(vib)   ...       0.02 
freq.    1040.69  E(vib)   ...       0.02 
freq.    1045.38  E(vib)   ...       0.02 
freq.    1052.53  E(vib)   ...       0.02 
freq.    1067.79  E(vib)   ...       0.02 
freq.    1071.28  E(vib)   ...       0.02 
freq.    1074.11  E(vib)   ...       0.02 
freq.    1076.28  E(vib)   ...       0.02 
freq.    1079.99  E(vib)   ...       0.02 
freq.    1092.96  E(vib)   ...       0.02 
freq.    1095.02  E(vib)   ...       0.02 
freq.    1102.90  E(vib)   ...       0.02 
freq.    1106.43  E(vib)   ...       0.02 
freq.    1108.79  E(vib)   ...       0.02 
freq.    1118.92  E(vib)   ...       0.01 
freq.    1125.28  E(vib)   ...       0.01 
freq.    1128.08  E(vib)   ...       0.01 
freq.    1130.54  E(vib)   ...       0.01 
freq.    1132.27  E(vib)   ...       0.01 
freq.    1143.15  E(vib)   ...       0.01 
freq.    1148.86  E(vib)   ...       0.01 
freq.    1153.76  E(vib)   ...       0.01 
freq.    1161.72  E(vib)   ...       0.01 
freq.    1165.14  E(vib)   ...       0.01 
freq.    1167.15  E(vib)   ...       0.01 
freq.    1170.37  E(vib)   ...       0.01 
freq.    1172.13  E(vib)   ...       0.01 
freq.    1185.25  E(vib)   ...       0.01 
freq.    1194.55  E(vib)   ...       0.01 
freq.    1196.66  E(vib)   ...       0.01 
freq.    1207.09  E(vib)   ...       0.01 
freq.    1209.19  E(vib)   ...       0.01 
freq.    1216.15  E(vib)   ...       0.01 
freq.    1221.92  E(vib)   ...       0.01 
freq.    1223.42  E(vib)   ...       0.01 
freq.    1232.98  E(vib)   ...       0.01 
freq.    1236.90  E(vib)   ...       0.01 
freq.    1239.31  E(vib)   ...       0.01 
freq.    1242.31  E(vib)   ...       0.01 
freq.    1245.70  E(vib)   ...       0.01 
freq.    1246.73  E(vib)   ...       0.01 
freq.    1250.49  E(vib)   ...       0.01 
freq.    1252.02  E(vib)   ...       0.01 
freq.    1254.41  E(vib)   ...       0.01 
freq.    1260.68  E(vib)   ...       0.01 
freq.    1271.81  E(vib)   ...       0.01 
freq.    1278.11  E(vib)   ...       0.01 
freq.    1281.25  E(vib)   ...       0.01 
freq.    1282.21  E(vib)   ...       0.01 
freq.    1282.64  E(vib)   ...       0.01 
freq.    1285.87  E(vib)   ...       0.01 
freq.    1287.50  E(vib)   ...       0.01 
freq.    1294.69  E(vib)   ...       0.01 
freq.    1295.62  E(vib)   ...       0.01 
freq.    1296.63  E(vib)   ...       0.01 
freq.    1300.16  E(vib)   ...       0.01 
freq.    1302.29  E(vib)   ...       0.01 
freq.    1309.68  E(vib)   ...       0.01 
freq.    1313.53  E(vib)   ...       0.01 
freq.    1317.25  E(vib)   ...       0.01 
freq.    1319.55  E(vib)   ...       0.01 
freq.    1321.26  E(vib)   ...       0.01 
freq.    1327.90  E(vib)   ...       0.01 
freq.    1329.08  E(vib)   ...       0.01 
freq.    1331.63  E(vib)   ...       0.01 
freq.    1333.09  E(vib)   ...       0.01 
freq.    1335.12  E(vib)   ...       0.01 
freq.    1337.98  E(vib)   ...       0.01 
freq.    1340.46  E(vib)   ...       0.01 
freq.    1343.59  E(vib)   ...       0.01 
freq.    1347.02  E(vib)   ...       0.01 
freq.    1349.18  E(vib)   ...       0.01 
freq.    1351.89  E(vib)   ...       0.01 
freq.    1352.54  E(vib)   ...       0.01 
freq.    1353.55  E(vib)   ...       0.01 
freq.    1353.63  E(vib)   ...       0.01 
freq.    1358.07  E(vib)   ...       0.01 
freq.    1365.36  E(vib)   ...       0.01 
freq.    1367.92  E(vib)   ...       0.01 
freq.    1369.28  E(vib)   ...       0.01 
freq.    1371.02  E(vib)   ...       0.01 
freq.    1374.20  E(vib)   ...       0.01 
freq.    1411.69  E(vib)   ...       0.00 
freq.    1418.69  E(vib)   ...       0.00 
freq.    1424.10  E(vib)   ...       0.00 
freq.    1426.90  E(vib)   ...       0.00 
freq.    1431.78  E(vib)   ...       0.00 
freq.    1433.51  E(vib)   ...       0.00 
freq.    1435.87  E(vib)   ...       0.00 
freq.    1437.60  E(vib)   ...       0.00 
freq.    1438.13  E(vib)   ...       0.00 
freq.    1439.17  E(vib)   ...       0.00 
freq.    1440.46  E(vib)   ...       0.00 
freq.    1443.67  E(vib)   ...       0.00 
freq.    1444.31  E(vib)   ...       0.00 
freq.    1444.97  E(vib)   ...       0.00 
freq.    1446.89  E(vib)   ...       0.00 
freq.    1447.10  E(vib)   ...       0.00 
freq.    1450.94  E(vib)   ...       0.00 
freq.    1451.55  E(vib)   ...       0.00 
freq.    1451.66  E(vib)   ...       0.00 
freq.    1453.60  E(vib)   ...       0.00 
freq.    1455.22  E(vib)   ...       0.00 
freq.    1455.67  E(vib)   ...       0.00 
freq.    1456.29  E(vib)   ...       0.00 
freq.    1460.89  E(vib)   ...       0.00 
freq.    1462.61  E(vib)   ...       0.00 
freq.    1463.01  E(vib)   ...       0.00 
freq.    1465.04  E(vib)   ...       0.00 
freq.    1466.94  E(vib)   ...       0.00 
freq.    1470.44  E(vib)   ...       0.00 
freq.    1481.36  E(vib)   ...       0.00 
freq.    1484.71  E(vib)   ...       0.00 
freq.    1494.03  E(vib)   ...       0.00 
freq.    1505.72  E(vib)   ...       0.00 
freq.    1526.38  E(vib)   ...       0.00 
freq.    1607.62  E(vib)   ...       0.00 
freq.    1645.17  E(vib)   ...       0.00 
freq.    1663.67  E(vib)   ...       0.00 
freq.    1675.11  E(vib)   ...       0.00 
freq.    1678.68  E(vib)   ...       0.00 
freq.    1696.22  E(vib)   ...       0.00 
freq.    1719.20  E(vib)   ...       0.00 
freq.    2909.94  E(vib)   ...       0.00 
freq.    2921.69  E(vib)   ...       0.00 
freq.    2922.28  E(vib)   ...       0.00 
freq.    2931.65  E(vib)   ...       0.00 
freq.    2931.78  E(vib)   ...       0.00 
freq.    2936.08  E(vib)   ...       0.00 
freq.    2942.52  E(vib)   ...       0.00 
freq.    2946.56  E(vib)   ...       0.00 
freq.    2949.33  E(vib)   ...       0.00 
freq.    2951.73  E(vib)   ...       0.00 
freq.    2955.05  E(vib)   ...       0.00 
freq.    2955.13  E(vib)   ...       0.00 
freq.    2956.30  E(vib)   ...       0.00 
freq.    2956.46  E(vib)   ...       0.00 
freq.    2956.84  E(vib)   ...       0.00 
freq.    2960.16  E(vib)   ...       0.00 
freq.    2961.27  E(vib)   ...       0.00 
freq.    2962.43  E(vib)   ...       0.00 
freq.    2962.89  E(vib)   ...       0.00 
freq.    2963.26  E(vib)   ...       0.00 
freq.    2965.54  E(vib)   ...       0.00 
freq.    2966.37  E(vib)   ...       0.00 
freq.    2974.77  E(vib)   ...       0.00 
freq.    2975.74  E(vib)   ...       0.00 
freq.    2975.92  E(vib)   ...       0.00 
freq.    2982.56  E(vib)   ...       0.00 
freq.    2987.22  E(vib)   ...       0.00 
freq.    2991.58  E(vib)   ...       0.00 
freq.    2992.53  E(vib)   ...       0.00 
freq.    2993.50  E(vib)   ...       0.00 
freq.    2998.66  E(vib)   ...       0.00 
freq.    3003.46  E(vib)   ...       0.00 
freq.    3006.68  E(vib)   ...       0.00 
freq.    3007.19  E(vib)   ...       0.00 
freq.    3007.52  E(vib)   ...       0.00 
freq.    3007.74  E(vib)   ...       0.00 
freq.    3012.39  E(vib)   ...       0.00 
freq.    3015.18  E(vib)   ...       0.00 
freq.    3020.32  E(vib)   ...       0.00 
freq.    3020.72  E(vib)   ...       0.00 
freq.    3024.00  E(vib)   ...       0.00 
freq.    3025.83  E(vib)   ...       0.00 
freq.    3026.37  E(vib)   ...       0.00 
freq.    3028.01  E(vib)   ...       0.00 
freq.    3030.15  E(vib)   ...       0.00 
freq.    3030.74  E(vib)   ...       0.00 
freq.    3034.53  E(vib)   ...       0.00 
freq.    3035.64  E(vib)   ...       0.00 
freq.    3036.57  E(vib)   ...       0.00 
freq.    3038.92  E(vib)   ...       0.00 
freq.    3040.53  E(vib)   ...       0.00 
freq.    3047.75  E(vib)   ...       0.00 
freq.    3049.09  E(vib)   ...       0.00 
freq.    3054.40  E(vib)   ...       0.00 
freq.    3059.77  E(vib)   ...       0.00 
freq.    3064.64  E(vib)   ...       0.00 
freq.    3064.95  E(vib)   ...       0.00 
freq.    3066.30  E(vib)   ...       0.00 
freq.    3340.31  E(vib)   ...       0.00 
freq.    3391.71  E(vib)   ...       0.00 
freq.    3396.25  E(vib)   ...       0.00 
freq.    3413.59  E(vib)   ...       0.00 
freq.    3479.56  E(vib)   ...       0.00 
freq.    3525.98  E(vib)   ...       0.00 

------------
INNER ENERGY
------------

The inner energy is: U= E(el) + E(ZPE) + E(vib) + E(rot) + E(trans)
    E(el)   - is the total energy from the electronic structure calculation
              = E(kin-el) + E(nuc-el) + E(el-el) + E(nuc-nuc)
    E(ZPE)  - the the zero temperature vibrational energy from the frequency calculation
    E(vib)  - the the finite temperature correction to E(ZPE) due to population
              of excited vibrational states
    E(rot)  - is the rotational thermal energy
    E(trans)- is the translational thermal energy

Summary of contributions to the inner energy U:
Electronic energy                ...  -2380.08519588 Eh
Zero point energy                ...      0.97973062 Eh     614.79 kcal/mol
Thermal vibrational correction   ...      0.05391013 Eh      33.83 kcal/mol
Thermal rotational correction    ...      0.00141627 Eh       0.89 kcal/mol
Thermal translational correction ...      0.00141627 Eh       0.89 kcal/mol
-----------------------------------------------------------------------
Total thermal energy                  -2379.04872260 Eh


Summary of corrections to the electronic energy:
(perhaps to be used in another calculation)
Total thermal correction                  0.05674267 Eh      35.61 kcal/mol
Non-thermal (ZPE) correction              0.97973062 Eh     614.79 kcal/mol
-----------------------------------------------------------------------
Total correction                          1.03647329 Eh     650.40 kcal/mol


--------
ENTHALPY
--------

The enthalpy is H = U + kB*T
                kB is Boltzmann's constant
Total free energy                 ...  -2379.04872260 Eh 
Thermal Enthalpy correction       ...      0.00094421 Eh       0.59 kcal/mol
-----------------------------------------------------------------------
Total Enthalpy                    ...  -2379.04777839 Eh


Note: Only C1 symmetry has been detected, increase convergence thresholds 
      if your molecule has a higher symmetry. Symmetry factor of 1.0 is   
      used for the rotational entropy correction. 
 

Note: Rotational entropy computed according to Herzberg 
Infrared and Raman Spectra, Chapter V,1, Van Nostrand Reinhold, 1945 
Point Group:  C1, Symmetry Number:   1  
Rotational constants in cm-1:     0.002119     0.001615     0.001467 

Vibrational entropy computed according to the QRRHO of S. Grimme
Chem.Eur.J. 2012 18 9955


-------
ENTROPY
-------

The entropy contributions are T*S = T*(S(el)+S(vib)+S(rot)+S(trans))
     S(el)   - electronic entropy
     S(vib)  - vibrational entropy
     S(rot)  - rotational entropy
     S(trans)- translational entropy
The entropies will be listed as mutliplied by the temperature to get
units of energy

Electronic entropy                ...      0.00000000 Eh      0.00 kcal/mol
Vibrational entropy               ...      0.09776724 Eh     61.35 kcal/mol
Rotational entropy                ...      0.01853236 Eh     11.63 kcal/mol
Translational entropy             ...      0.02166895 Eh     13.60 kcal/mol
-----------------------------------------------------------------------
Final entropy term                ...      0.13796855 Eh     86.58 kcal/mol

In case the symmetry of your molecule has not been determined correctly
or in case you have a reason to use a different symmetry number we print 
out the resulting rotational entropy values for sn=1,12 :
 --------------------------------------------------------
|  sn= 1 | S(rot)=       0.01853236 Eh     11.63 kcal/mol|
|  sn= 2 | S(rot)=       0.01787790 Eh     11.22 kcal/mol|
|  sn= 3 | S(rot)=       0.01749507 Eh     10.98 kcal/mol|
|  sn= 4 | S(rot)=       0.01722344 Eh     10.81 kcal/mol|
|  sn= 5 | S(rot)=       0.01701276 Eh     10.68 kcal/mol|
|  sn= 6 | S(rot)=       0.01684061 Eh     10.57 kcal/mol|
|  sn= 7 | S(rot)=       0.01669507 Eh     10.48 kcal/mol|
|  sn= 8 | S(rot)=       0.01656899 Eh     10.40 kcal/mol|
|  sn= 9 | S(rot)=       0.01645778 Eh     10.33 kcal/mol|
|  sn=10 | S(rot)=       0.01635830 Eh     10.26 kcal/mol|
|  sn=11 | S(rot)=       0.01626831 Eh     10.21 kcal/mol|
|  sn=12 | S(rot)=       0.01618616 Eh     10.16 kcal/mol|
 --------------------------------------------------------


-------------------
GIBBS FREE ENERGY
-------------------

The Gibbs free energy is G = H - T*S

Total enthalpy                    ...  -2379.04777839 Eh 
Total entropy correction          ...     -0.13796855 Eh    -86.58 kcal/mol
-----------------------------------------------------------------------
Final Gibbs free energy         ...  -2379.18574693 Eh

For completeness - the Gibbs free energy minus the electronic energy
G-E(el)                           ...      0.89944895 Eh    564.41 kcal/mol

--------------------------------------------------------------------------
WARNING: No preset parameters were found for the device that Open MPI
detected:

  Local host:            eu-g1-019-2
  Device name:           mlx5_0
  Device vendor ID:      0x02c9
  Device vendor part ID: 4123

Default device parameters will be used, which may result in lower
performance.  You can edit any of the files specified by the
btl_openib_device_param_files MCA parameter to set values for your
device.

NOTE: You can turn off this warning by setting the MCA parameter
      btl_openib_warn_no_device_params_found to 0.
--------------------------------------------------------------------------
--------------------------------------------------------------------------
WARNING: There was an error initializing an OpenFabrics device.

  Local host:   eu-g1-019-2
  Local device: mlx5_0
--------------------------------------------------------------------------

Timings for individual modules:

Sum of individual times         ...    40420.046 sec (= 673.667 min)
GTO integral calculation        ...       13.482 sec (=   0.225 min)   0.0 %
SCF iterations                  ...      478.678 sec (=   7.978 min)   1.2 %
SCF Gradient evaluation         ...       86.493 sec (=   1.442 min)   0.2 %
Geometry relaxation             ...        4.064 sec (=   0.068 min)   0.0 %
Analytical frequency calculation...    39837.329 sec (= 663.955 min)  98.6 %
                             ****ORCA TERMINATED NORMALLY****
TOTAL RUN TIME: 0 days 11 hours 13 minutes 57 seconds 249 msec
