
                                 *****************
                                 * O   R   C   A *
                                 *****************

           --- An Ab Initio, DFT and Semiempirical electronic structure package ---

                  #######################################################
                  #                        -***-                        #
                  #          Department of theory and spectroscopy      #
                  #               Directorship: Frank Neese             #
                  #        Max Planck Institute fuer Kohlenforschung    #
                  #                Kaiser Wilhelm Platz 1               #
                  #                 D-45470 Muelheim/Ruhr               #
                  #                      Germany                        #
                  #                                                     #
                  #                  All rights reserved                #
                  #                        -***-                        #
                  #######################################################


                         Program Version 4.2.0 -  RELEASE  -


 With contributions from (in alphabetic order):
   Daniel Aravena         : Magnetic Suceptibility
   Michael Atanasov       : Ab Initio Ligand Field Theory (pilot matlab implementation)
   Alexander A. Auer      : GIAO ZORA, VPT2
   Ute Becker             : Parallelization
   Giovanni Bistoni       : ED, misc. LED, open-shell LED, HFLED
   Martin Brehm           : Molecular dynamics
   Dmytro Bykov           : SCF Hessian
   Vijay G. Chilkuri      : MRCI spin determinant printing, contributions to CSF-ICE
   Dipayan Datta          : RHF DLPNO-CCSD density
   Achintya Kumar Dutta   : EOM-CC, STEOM-CC
   Dmitry Ganyushin       : Spin-Orbit,Spin-Spin,Magnetic field MRCI
   Miquel Garcia          : C-PCM Hessian, Gaussian charge scheme
   Yang Guo               : DLPNO-NEVPT2, CIM, IAO-localization
   Andreas Hansen         : Spin unrestricted coupled pair/coupled cluster methods
   Benjamin Helmich-Paris : CASSCF linear response (MC-RPA)
   Lee Huntington         : MR-EOM, pCC
   Robert Izsak           : Overlap fitted RIJCOSX, COSX-SCS-MP3, EOM
   Christian Kollmar      : KDIIS, OOCD, Brueckner-CCSD(T), CCSD density
   Simone Kossmann        : Meta GGA functionals, TD-DFT gradient, OOMP2, MP2 Hessian
   Martin Krupicka        : AUTO-CI
   Lucas Lang             : DCDCAS
   Dagmar Lenk            : GEPOL surface, SMD
   Dimitrios Liakos       : Extrapolation schemes; Compound Job, initial MDCI parallelization
   Dimitrios Manganas     : Further ROCIS development; embedding schemes
   Dimitrios Pantazis     : SARC Basis sets
   Taras Petrenko         : DFT Hessian,TD-DFT gradient, ASA, ECA, R-Raman, ABS, FL, XAS/XES, NRVS
   Peter Pinski           : DLPNO-MP2, DLPNO-MP2 Gradient
   Christoph Reimann      : Effective Core Potentials
   Marius Retegan         : Local ZFS, SOC
   Christoph Riplinger    : Optimizer, TS searches, QM/MM, DLPNO-CCSD(T), (RO)-DLPNO pert. Triples
   Tobias Risthaus        : Range-separated hybrids, TD-DFT gradient, RPA, STAB
   Michael Roemelt        : Original ROCIS implementation
   Masaaki Saitow         : Open-shell DLPNO-CCSD energy and density
   Barbara Sandhoefer     : DKH picture change effects
   Avijit Sen             : IP-ROCIS
   Kantharuban Sivalingam : CASSCF convergence, NEVPT2, FIC-MRCI
   Bernardo de Souza      : ESD, SOC TD-DFT
   Georgi Stoychev        : AutoAux, RI-MP2 NMR
   Willem Van den Heuvel  : Paramagnetic NMR
   Boris Wezisla          : Elementary symmetry handling
   Frank Wennmohs         : Technical directorship


 We gratefully acknowledge several colleagues who have allowed us to
 interface, adapt or use parts of their codes:
   Stefan Grimme, W. Hujo, H. Kruse,             : VdW corrections, initial TS optimization,
                  C. Bannwarth                     DFT functionals, gCP, sTDA/sTD-DF
   Ed Valeev, F. Pavosevic, A. Kumar             : LibInt (2-el integral package), F12 methods
   Garnet Chan, S. Sharma, J. Yang, R. Olivares  : DMRG
   Ulf Ekstrom                                   : XCFun DFT Library
   Mihaly Kallay                                 : mrcc  (arbitrary order and MRCC methods)
   Andreas Klamt, Michael Diedenhofen            : otool_cosmo (COSMO solvation model)
   Jiri Pittner, Ondrej Demel                    : Mk-CCSD
   Frank Weinhold                                : gennbo (NPA and NBO analysis)
   Christopher J. Cramer and Donald G. Truhlar   : smd solvation model
   Lars Goerigk                                  : TD-DFT with DH, B97 family of functionals
   V. Asgeirsson, H. Jonsson                     : NEB implementation
   FAccTs GmbH                                   : IRC, NEB, NEB-TS, Multilevel, MM, QM/MM, CI optimization
   S Lehtola, MJT Oliveira, MAL Marques          : LibXC Library


 Your calculation uses the libint2 library for the computation of 2-el integrals
 For citations please refer to: http://libint.valeyev.net

 Your ORCA version has been built with support for libXC version: 4.2.3
 For citations please refer to: https://tddft.org/programs/libxc/

 This ORCA versions uses:
   CBLAS   interface :  Fast vector & matrix operations
   LAPACKE interface :  Fast linear algebra routines
   SCALAPACK package :  Parallel linear algebra routines




***************************************
The coordinates will be read from file: 31.xyz
***************************************


Your calculation utilizes the atom-pairwise dispersion correction
with the Becke-Johnson damping scheme (D3BJ)
Cite in your paper:
S.Grimme, S.Ehrlich, L.Goerigk, J Comput Chem, (2011), 32, 1456–1465 
S.Grimme, J.Antony, S.Ehrlich and H.Krieg, J.Chem.Phys., 132, (2010), 154104 
   

----- Orbital basis set information -----
Your calculation utilizes the basis: def2-TZVP
   F. Weigend and R. Ahlrichs, Phys. Chem. Chem. Phys. 7, 3297 (2005).

----- AuxJ basis set information -----
Your calculation utilizes the auxiliary basis: def2/J
   F. Weigend, Phys. Chem. Chem. Phys. 8, 1057 (2006).

================================================================================
                                        WARNINGS
                       Please study these warnings very carefully!
================================================================================


WARNING: Geometry Optimization
  ===> : Switching off AutoStart
         For restart on a previous wavefunction, please use MOREAD

INFO   : the flag for use of LIBINT has been found!

================================================================================
                                       INPUT FILE
================================================================================
NAME = 31.inp
|  1> !RI BP86 def2-tzvp def2/J D3BJ TIGHTSCF TightOpt Grid5 FinalGrid6 freq
|  2> %maxcore 4000
|  3> %pal nprocs 24
|  4> end
|  5> * xyzfile 0 1 31.xyz 
|  6> 
|  7>                          ****END OF INPUT****
================================================================================

                       *****************************
                       * Geometry Optimization Run *
                       *****************************

Geometry optimization settings:
Update method            Update   .... BFGS
Choice of coordinates    CoordSys .... Z-matrix Internals
Initial Hessian          InHess   .... Almoef's Model

Convergence Tolerances:
Energy Change            TolE     ....  1.0000e-06 Eh
Max. Gradient            TolMAXG  ....  1.0000e-04 Eh/bohr
RMS Gradient             TolRMSG  ....  3.0000e-05 Eh/bohr
Max. Displacement        TolMAXD  ....  1.0000e-03 bohr
RMS Displacement         TolRMSD  ....  6.0000e-04 bohr
Strict Convergence                ....  False
------------------------------------------------------------------------------
                        ORCA OPTIMIZATION COORDINATE SETUP
------------------------------------------------------------------------------

The optimization will be done in new redundant internal coordinates
Making redundant internal coordinates   ...  (new redundants) done
Evaluating the initial hessian          ...  (Almloef) done
Evaluating the coordinates              ...  done
Calculating the B-matrix                .... done
Calculating the G-matrix                .... done
Diagonalizing the G-matrix              .... done
Small eigenvalue found = 3.607e-04
Small eigenvalue found = 1.090e-03
Small eigenvalue found = 1.931e-03
Small eigenvalue found = 2.542e-03
Small eigenvalue found = 2.891e-03
Small eigenvalue found = 4.467e-03
Small eigenvalue found = 5.308e-03
Small eigenvalue found = 7.079e-03
Small eigenvalue found = 7.534e-03
Small eigenvalue found = 1.010e-02
Small eigenvalue found = 1.077e-02
Small eigenvalue found = 1.133e-02
Small eigenvalue found = 1.272e-02
Small eigenvalue found = 1.368e-02
Small eigenvalue found = 1.479e-02
Small eigenvalue found = 2.073e-02
Small eigenvalue found = 2.193e-02
Small eigenvalue found = 2.491e-02
Small eigenvalue found = 2.761e-02
The first mode is                       ....  324
The number of degrees of freedom        ....  339

    -----------------------------------------------------------------
                    Redundant Internal Coordinates


    -----------------------------------------------------------------
         Definition                    Initial Value    Approx d2E/dq
    -----------------------------------------------------------------
      1. B(C   1,O   0)                  1.2272         1.017788   
      2. B(C   2,C   1)                  1.5415         0.358064   
      3. B(C   3,C   2)                  1.5450         0.353509   
      4. B(C   4,C   3)                  1.5351         0.366691   
      5. B(C   5,C   4)                  1.5318         0.371101   
      6. B(N   6,C   5)                  1.4731         0.412442   
      7. B(N   6,C   2)                  1.4610         0.431139   
      8. B(C   7,N   6)                  1.3504         0.647204   
      9. B(O   8,C   7)                  1.2433         0.959154   
     10. B(N   9,C   1)                  1.3703         0.601693   
     11. B(C  10,N   9)                  1.4596         0.433417   
     12. B(C  11,C  10)                  1.5416         0.358034   
     13. B(N  12,C  11)                  1.3595         0.626034   
     14. B(C  13,N  12)                  1.4621         0.429418   
     15. B(C  14,C  13)                  1.5382         0.362443   
     16. B(N  15,C  14)                  1.3609         0.622635   
     17. B(C  16,N  15)                  1.4513         0.446816   
     18. B(C  17,C  16)                  1.5308         0.372529   
     19. B(C  18,C  17)                  1.5542         0.341786   
     20. B(C  19,C  18)                  1.5370         0.364128   
     21. B(N  20,C  19)                  1.3727         0.596397   
     22. B(C  21,N  20)                  1.4551         0.440613   
     23. B(C  22,C  21)                  1.5431         0.356056   
     24. B(N  23,C  22)                  1.3550         0.636309   
     25. B(C  24,N  23)                  1.4464         0.454900   
     26. B(C  24,C   7)                  1.5278         0.376675   
     27. B(C  25,C  24)                  1.5407         0.359145   
     28. B(O  26,C  22)                  1.2326         0.997701   
     29. B(C  27,C  21)                  1.5302         0.373254   
     30. B(C  28,C  27)                  1.5358         0.365633   
     31. B(C  29,C  28)                  1.5325         0.370197   
     32. B(C  30,C  28)                  1.5324         0.370315   
     33. B(O  31,C  19)                  1.2265         1.020432   
     34. B(C  32,C  18)                  1.5411         0.358640   
     35. B(C  33,C  32)                  1.5170         0.391817   
     36. B(C  34,C  33)                  1.5391         0.361264   
     37. B(C  35,C  34)                  1.5297         0.373983   
     38. B(C  36,C  35)                  1.5294         0.374409   
     39. B(C  37,C  36)                  1.5311         0.372074   
     40. B(C  38,C  37)                  1.5340         0.368182   
     41. B(C  39,C  38)                  1.5307         0.372549   
     42. B(C  40,C  39)                  1.5302         0.373273   
     43. B(C  41,C  40)                  1.5298         0.373809   
     44. B(O  42,C  32)                  1.2141         1.067911   
     45. B(O  43,C  17)                  1.4339         0.476178   
     46. B(O  44,C  14)                  1.2298         1.008077   
     47. B(C  45,C  13)                  1.5418         0.357701   
     48. B(C  46,C  45)                  1.5291         0.374844   
     49. B(O  47,C  11)                  1.2310         1.003527   
     50. B(C  48,C  10)                  1.5495         0.347722   
     51. B(C  49,C  48)                  1.5310         0.372211   
     52. B(C  50,C  48)                  1.5326         0.370039   
     53. B(H  51,C   2)                  1.0982         0.349381   
     54. B(H  52,C   3)                  1.0996         0.347576   
     55. B(H  53,C   3)                  1.0970         0.350931   
     56. B(H  54,C   4)                  1.0983         0.349259   
     57. B(H  55,C   4)                  1.0969         0.351083   
     58. B(H  56,C   5)                  1.0971         0.350798   
     59. B(H  57,C   5)                  1.1025         0.343993   
     60. B(H  58,N   9)                  1.0188         0.418929   
     61. B(H  59,C  10)                  1.0990         0.348423   
     62. B(H  60,N  12)                  1.0176         0.420774   
     63. B(H  61,C  13)                  1.1002         0.346794   
     64. B(H  62,O   8)                  2.0349         0.010025   
     65. B(H  62,N  15)                  1.0198         0.417477   
     66. B(H  63,C  16)                  1.0949         0.353644   
     67. B(H  64,C  16)                  1.0988         0.348683   
     68. B(H  65,C  17)                  1.1080         0.337044   
     69. B(H  66,C  18)                  1.1042         0.341743   
     70. B(H  67,N  20)                  1.0157         0.423675   
     71. B(H  68,C  21)                  1.1019         0.344757   
     72. B(H  69,N  23)                  1.0177         0.420653   
     73. B(H  70,C  24)                  1.0996         0.347604   
     74. B(H  71,C  25)                  1.0967         0.351370   
     75. B(H  72,C  25)                  1.0988         0.348667   
     76. B(H  73,C  25)                  1.0982         0.349411   
     77. B(H  74,C  27)                  1.1000         0.347112   
     78. B(H  75,C  27)                  1.1050         0.340766   
     79. B(H  76,C  28)                  1.1057         0.339861   
     80. B(H  77,C  29)                  1.1003         0.346710   
     81. B(H  78,C  29)                  1.1012         0.345541   
     82. B(H  79,C  29)                  1.0989         0.348568   
     83. B(H  80,C  30)                  1.0990         0.348430   
     84. B(H  81,C  30)                  1.0990         0.348339   
     85. B(H  82,C  30)                  1.1014         0.345283   
     86. B(H  83,C  33)                  1.1044         0.341521   
     87. B(H  84,C  33)                  1.0986         0.348915   
     88. B(H  85,C  34)                  1.1015         0.345194   
     89. B(H  86,H  80)                  3.0826         0.000046   
     90. B(H  86,C  34)                  1.1032         0.343064   
     91. B(H  87,C  35)                  1.1044         0.341513   
     92. B(H  88,C  35)                  1.1035         0.342721   
     93. B(H  89,C  36)                  1.1044         0.341526   
     94. B(H  90,C  36)                  1.1022         0.344291   
     95. B(H  91,C  37)                  1.1044         0.341487   
     96. B(H  92,C  37)                  1.1031         0.343161   
     97. B(H  93,C  38)                  1.1032         0.343117   
     98. B(H  94,C  38)                  1.1043         0.341668   
     99. B(H  95,H  79)                  2.3150         0.000766   
    100. B(H  95,C  39)                  1.1028         0.343561   
    101. B(H  96,C  39)                  1.1053         0.340382   
    102. B(H  97,C  40)                  1.1033         0.342939   
    103. B(H  98,C  40)                  1.1033         0.342894   
    104. B(H  99,C  41)                  1.0993         0.347965   
    105. B(H 100,C  41)                  1.1008         0.346128   
    106. B(H 101,C  41)                  1.1006         0.346368   
    107. B(H 102,O  43)                  0.9719         0.497785   
    108. B(H 103,C  45)                  1.1010         0.345856   
    109. B(H 104,C  45)                  1.0977         0.350093   
    110. B(H 105,C  46)                  1.0987         0.348726   
    111. B(H 106,C  46)                  1.1016         0.345134   
    112. B(H 107,C  46)                  1.0994         0.347867   
    113. B(H 108,C  48)                  1.1005         0.346477   
    114. B(H 109,C  49)                  1.1000         0.347100   
    115. B(H 110,C  49)                  1.1007         0.346203   
    116. B(H 111,C  49)                  1.0989         0.348527   
    117. B(H 112,C  50)                  1.0984         0.349218   
    118. B(H 113,C  50)                  1.0985         0.349043   
    119. B(H 114,C  50)                  1.1025         0.343912   
    120. A(O   0,C   1,N   9)          122.2991         0.466139   
    121. A(C   2,C   1,N   9)          115.2509         0.389194   
    122. A(O   0,C   1,C   2)          122.4295         0.427120   
    123. A(C   1,C   2,H  51)          109.7027         0.320482   
    124. A(N   6,C   2,H  51)          109.3637         0.328434   
    125. A(C   1,C   2,N   6)          110.4626         0.367380   
    126. A(C   1,C   2,C   3)          111.2398         0.357356   
    127. A(C   3,C   2,H  51)          112.8058         0.319812   
    128. A(C   3,C   2,N   6)          103.0911         0.366574   
    129. A(C   4,C   3,H  53)          112.6543         0.321966   
    130. A(C   4,C   3,H  52)          111.0769         0.321460   
    131. A(C   2,C   3,C   4)          103.1229         0.358806   
    132. A(C   2,C   3,H  53)          112.4632         0.320044   
    133. A(C   2,C   3,H  52)          109.4244         0.319542   
    134. A(H  52,C   3,H  53)          108.0569         0.288063   
    135. A(H  54,C   4,H  55)          108.5318         0.288301   
    136. A(C   3,C   4,H  55)          112.9734         0.321989   
    137. A(C   3,C   4,C   5)          103.4641         0.361788   
    138. A(C   3,C   4,H  54)          109.9036         0.321715   
    139. A(C   5,C   4,H  55)          112.3207         0.322620   
    140. A(C   5,C   4,H  54)          109.5500         0.322345   
    141. A(H  56,C   5,H  57)          108.3650         0.287580   
    142. A(C   4,C   5,N   6)          103.2341         0.366840   
    143. A(C   4,C   5,H  56)          112.3853         0.322577   
    144. A(N   6,C   5,H  57)          110.4434         0.325211   
    145. A(N   6,C   5,H  56)          110.8546         0.326260   
    146. A(C   4,C   5,H  57)          111.5227         0.321544   
    147. A(C   5,N   6,C   7)          127.1756         0.401520   
    148. A(C   2,N   6,C   7)          119.5310         0.404672   
    149. A(C   2,N   6,C   5)          112.8888         0.374067   
    150. A(O   8,C   7,C  24)          120.7641         0.426457   
    151. A(N   6,C   7,O   8)          121.8981         0.467300   
    152. A(N   6,C   7,C  24)          117.2395         0.397709   
    153. A(C   1,N   9,C  10)          127.0286         0.399876   
    154. A(C  10,N   9,H  58)          117.7467         0.335864   
    155. A(C   1,N   9,H  58)          113.6312         0.354891   
    156. A(C  48,C  10,H  59)          106.5052         0.318809   
    157. A(C  11,C  10,H  59)          105.1993         0.320334   
    158. A(N   9,C  10,C  11)          115.1284         0.367707   
    159. A(N   9,C  10,C  48)          111.0698         0.365869   
    160. A(N   9,C  10,H  59)          109.2367         0.328570   
    161. A(C  11,C  10,C  48)          109.2038         0.356351   
    162. A(N  12,C  11,O  47)          124.3310         0.468326   
    163. A(C  10,C  11,O  47)          119.0888         0.426035   
    164. A(C  10,C  11,N  12)          116.5717         0.391895   
    165. A(C  13,N  12,H  60)          119.3868         0.335591   
    166. A(C  11,N  12,C  13)          120.7500         0.402021   
    167. A(C  11,N  12,H  60)          116.9502         0.357555   
    168. A(C  14,C  13,C  45)          109.3775         0.358815   
    169. A(N  12,C  13,H  61)          105.7737         0.327815   
    170. A(C  14,C  13,H  61)          107.5708         0.320730   
    171. A(N  12,C  13,C  14)          114.2408         0.367894   
    172. A(C  45,C  13,H  61)          108.4040         0.320040   
    173. A(N  12,C  13,C  45)          111.2058         0.367064   
    174. A(C  13,C  14,N  15)          117.2203         0.392361   
    175. A(N  15,C  14,O  44)          123.8825         0.468247   
    176. A(C  13,C  14,O  44)          118.8915         0.427316   
    177. A(C  14,N  15,H  62)          121.2142         0.356747   
    178. A(C  16,N  15,H  62)          117.8566         0.337375   
    179. A(C  14,N  15,C  16)          120.9029         0.404459   
    180. A(H  63,C  16,H  64)          108.1887         0.288554   
    181. A(C  17,C  16,H  64)          109.6628         0.322461   
    182. A(N  15,C  16,H  63)          108.0827         0.331040   
    183. A(C  17,C  16,H  63)          109.8544         0.323209   
    184. A(N  15,C  16,C  17)          110.1851         0.372166   
    185. A(N  15,C  16,H  64)          110.8258         0.330268   
    186. A(O  43,C  17,H  65)          109.4301         0.331895   
    187. A(C  18,C  17,H  65)          107.2174         0.316201   
    188. A(C  16,C  17,H  65)          107.7084         0.320674   
    189. A(C  16,C  17,C  18)          114.9142         0.357714   
    190. A(C  18,C  17,O  43)          109.7073         0.370729   
    191. A(C  16,C  17,O  43)          107.7633         0.376275   
    192. A(C  19,C  18,H  66)          107.4949         0.320204   
    193. A(C  17,C  18,H  66)          106.1313         0.316914   
    194. A(C  17,C  18,C  32)          114.1443         0.355413   
    195. A(C  17,C  18,C  19)          111.3338         0.356330   
    196. A(C  19,C  18,C  32)          109.7768         0.359258   
    197. A(C  32,C  18,H  66)          107.6189         0.319411   
    198. A(C  18,C  19,N  20)          113.4761         0.389735   
    199. A(N  20,C  19,O  31)          122.6734         0.465607   
    200. A(C  18,C  19,O  31)          123.8086         0.428607   
    201. A(C  19,N  20,H  67)          118.8466         0.355037   
    202. A(C  19,N  20,C  21)          123.0777         0.400413   
    203. A(C  21,N  20,H  67)          117.8988         0.337418   
    204. A(C  27,C  21,H  68)          110.2923         0.321966   
    205. A(C  22,C  21,H  68)          105.1336         0.319492   
    206. A(N  20,C  21,H  68)          105.3266         0.328890   
    207. A(N  20,C  21,C  22)          113.2844         0.368397   
    208. A(C  22,C  21,C  27)          110.9351         0.360332   
    209. A(N  20,C  21,C  27)          111.5061         0.371396   
    210. A(C  21,C  22,N  23)          115.2037         0.392632   
    211. A(C  21,C  22,O  26)          121.4379         0.425170   
    212. A(N  23,C  22,O  26)          123.3345         0.469225   
    213. A(C  22,N  23,C  24)          122.2575         0.407303   
    214. A(C  24,N  23,H  69)          116.3043         0.338814   
    215. A(C  22,N  23,H  69)          121.3798         0.358529   
    216. A(C  25,C  24,H  70)          108.8930         0.320373   
    217. A(N  23,C  24,H  70)          107.6834         0.331079   
    218. A(C   7,C  24,H  70)          111.2535         0.322882   
    219. A(N  23,C  24,C  25)          111.9385         0.370973   
    220. A(C   7,C  24,N  23)          107.2180         0.374031   
    221. A(C   7,C  24,C  25)          109.8485         0.361425   
    222. A(H  71,C  25,H  73)          109.2427         0.288357   
    223. A(C  24,C  25,H  73)          109.9768         0.320645   
    224. A(H  71,C  25,H  72)          108.6055         0.288261   
    225. A(C  24,C  25,H  72)          111.2909         0.320533   
    226. A(C  24,C  25,H  71)          108.9271         0.320938   
    227. A(H  72,C  25,H  73)          108.7628         0.288009   
    228. A(C  28,C  27,H  75)          109.5630         0.320270   
    229. A(C  21,C  27,C  28)          114.7482         0.361967   
    230. A(H  74,C  27,H  75)          105.9434         0.286684   
    231. A(C  21,C  27,H  75)          108.8308         0.321353   
    232. A(C  28,C  27,H  74)          110.2127         0.321238   
    233. A(C  21,C  27,H  74)          107.1531         0.322325   
    234. A(C  29,C  28,C  30)          111.1265         0.362245   
    235. A(C  27,C  28,C  30)          112.0640         0.361479   
    236. A(C  27,C  28,C  29)          109.7390         0.361460   
    237. A(C  30,C  28,H  76)          107.7791         0.320798   
    238. A(C  29,C  28,H  76)          107.7871         0.320781   
    239. A(C  27,C  28,H  76)          108.1879         0.320131   
    240. A(C  28,C  29,H  79)          111.2862         0.322112   
    241. A(H  78,C  29,H  79)          107.6627         0.287495   
    242. A(H  77,C  29,H  79)          107.9371         0.287647   
    243. A(H  77,C  29,H  78)          107.6613         0.287255   
    244. A(C  28,C  29,H  78)          110.6716         0.321652   
    245. A(C  28,C  29,H  77)          111.4548         0.321830   
    246. A(H  81,C  30,H  82)          107.7422         0.287432   
    247. A(H  80,C  30,H  82)          108.0725         0.287444   
    248. A(C  28,C  30,H  82)          110.6191         0.321630   
    249. A(H  80,C  30,H  81)          107.2732         0.287840   
    250. A(C  28,C  30,H  81)          110.7645         0.322094   
    251. A(C  28,C  30,H  80)          112.1907         0.322108   
    252. A(C  33,C  32,O  42)          122.3795         0.437860   
    253. A(C  18,C  32,O  42)          122.1845         0.430943   
    254. A(C  18,C  32,C  33)          115.3928         0.363779   
    255. A(C  32,C  33,C  34)          112.2263         0.364233   
    256. A(C  34,C  33,H  84)          110.4822         0.320879   
    257. A(H  83,C  33,H  84)          108.1401         0.287015   
    258. A(C  32,C  33,H  84)          107.6468         0.325179   
    259. A(C  34,C  33,H  83)          109.3587         0.319757   
    260. A(C  32,C  33,H  83)          108.8821         0.324037   
    261. A(C  33,C  34,C  35)          112.7988         0.361346   
    262. A(H  85,C  34,H  86)          105.9353         0.286736   
    263. A(C  35,C  34,H  86)          108.8812         0.321809   
    264. A(C  33,C  34,H  86)          110.1429         0.319993   
    265. A(C  35,C  34,H  85)          109.9161         0.322136   
    266. A(C  33,C  34,H  85)          108.9388         0.320317   
    267. A(C  34,C  35,C  36)          112.6481         0.363558   
    268. A(H  87,C  35,H  88)          106.0624         0.286212   
    269. A(C  36,C  35,H  88)          109.5438         0.321816   
    270. A(C  34,C  35,H  88)          109.4172         0.321756   
    271. A(C  36,C  35,H  87)          109.5461         0.321630   
    272. A(C  34,C  35,H  87)          109.4090         0.321571   
    273. A(C  35,C  36,C  37)          113.5260         0.363240   
    274. A(H  89,C  36,H  90)          105.9483         0.286418   
    275. A(C  37,C  36,H  90)          109.7575         0.321728   
    276. A(C  35,C  36,H  90)          108.8080         0.322057   
    277. A(C  37,C  36,H  89)          109.3697         0.321303   
    278. A(C  35,C  36,H  89)          109.1508         0.321633   
    279. A(C  36,C  37,C  38)          114.0085         0.362201   
    280. A(H  91,C  37,H  92)          106.0634         0.286266   
    281. A(C  38,C  37,H  92)          109.0098         0.321002   
    282. A(C  36,C  37,H  92)          108.9910         0.321555   
    283. A(C  38,C  37,H  91)          109.3365         0.320745   
    284. A(C  36,C  37,H  91)          109.1290         0.321297   
    285. A(C  37,C  38,C  39)          114.2182         0.362280   
    286. A(H  93,C  38,H  94)          106.0320         0.286284   
    287. A(C  39,C  38,H  94)          109.0421         0.321392   
    288. A(C  37,C  38,H  94)          109.1876         0.320773   
    289. A(C  39,C  38,H  93)          109.0061         0.321615   
    290. A(C  37,C  38,H  93)          109.0357         0.320995   
    291. A(C  38,C  39,C  40)          113.6517         0.363131   
    292. A(H  95,C  39,H  96)          105.9570         0.286174   
    293. A(C  40,C  39,H  96)          109.3356         0.321296   
    294. A(C  38,C  39,H  96)          109.3573         0.321194   
    295. A(C  40,C  39,H  95)          108.6037         0.321785   
    296. A(C  38,C  39,H  95)          109.6475         0.321683   
    297. A(C  39,C  40,C  41)          112.8871         0.363340   
    298. A(H  97,C  40,H  98)          105.9799         0.286421   
    299. A(C  41,C  40,H  98)          109.6257         0.321759   
    300. A(C  39,C  40,H  98)          109.0714         0.321683   
    301. A(C  41,C  40,H  97)          109.7928         0.321765   
    302. A(C  39,C  40,H  97)          109.2470         0.321690   
    303. A(H 100,C  41,H 101)          107.4232         0.287287   
    304. A(H  99,C  41,H 101)          107.7108         0.287525   
    305. A(C  40,C  41,H 101)          111.0288         0.322290   
    306. A(H  99,C  41,H 100)          107.7019         0.287494   
    307. A(C  40,C  41,H 100)          111.0962         0.322254   
    308. A(C  40,C  41,H  99)          111.6884         0.322533   
    309. A(C  17,O  43,H 102)          108.1806         0.351216   
    310. A(C  13,C  45,C  46)          113.1904         0.360877   
    311. A(C  46,C  45,H 104)          109.8361         0.323002   
    312. A(C  13,C  45,H 104)          107.0575         0.320536   
    313. A(C  46,C  45,H 103)          111.1555         0.322358   
    314. A(C  13,C  45,H 103)          107.7201         0.319899   
    315. A(H 103,C  45,H 104)          107.6463         0.287732   
    316. A(H 106,C  46,H 107)          108.1476         0.287352   
    317. A(H 105,C  46,H 107)          107.9970         0.287817   
    318. A(C  45,C  46,H 107)          110.8475         0.322665   
    319. A(H 105,C  46,H 106)          107.0701         0.287463   
    320. A(C  45,C  46,H 106)          111.8412         0.322248   
    321. A(C  45,C  46,H 105)          110.7688         0.322795   
    322. A(C  50,C  48,H 108)          107.9732         0.321772   
    323. A(C  49,C  48,H 108)          108.8644         0.322081   
    324. A(C  10,C  48,H 108)          104.1287         0.318518   
    325. A(C  49,C  48,C  50)          111.9122         0.362535   
    326. A(C  10,C  48,C  50)          112.5434         0.358354   
    327. A(C  10,C  48,C  49)          111.0195         0.358711   
    328. A(H 110,C  49,H 111)          107.4734         0.287576   
    329. A(H 109,C  49,H 111)          107.7789         0.287692   
    330. A(C  48,C  49,H 111)          110.5393         0.322392   
    331. A(H 109,C  49,H 110)          107.8660         0.287391   
    332. A(C  48,C  49,H 110)          111.7799         0.322039   
    333. A(C  48,C  49,H 109)          111.2272         0.322175   
    334. A(H 113,C  50,H 114)          106.5014         0.287344   
    335. A(H 112,C  50,H 114)          108.0167         0.287367   
    336. A(C  48,C  50,H 114)          112.4337         0.321381   
    337. A(H 112,C  50,H 113)          107.7704         0.288033   
    338. A(C  48,C  50,H 113)          110.1133         0.322161   
    339. A(C  48,C  50,H 112)          111.7579         0.322188   
    340. D(H  51,C   2,C   1,N   9)     37.0923         0.009649   
    341. D(C   3,C   2,C   1,N   9)    -88.4218         0.009649   
    342. D(N   6,C   2,C   1,N   9)    157.7245         0.009649   
    343. D(N   6,C   2,C   1,O   0)    -23.8870         0.009649   
    344. D(C   3,C   2,C   1,O   0)     89.9667         0.009649   
    345. D(H  51,C   2,C   1,O   0)   -144.5192         0.009649   
    346. D(C   4,C   3,C   2,N   6)     30.6939         0.010053   
    347. D(H  53,C   3,C   2,H  51)    -89.8375         0.010053   
    348. D(H  53,C   3,C   2,C   1)     33.9294         0.010053   
    349. D(C   4,C   3,C   2,H  51)    148.5374         0.010053   
    350. D(H  53,C   3,C   2,N   6)    152.3190         0.010053   
    351. D(H  52,C   3,C   2,H  51)     30.2588         0.010053   
    352. D(C   4,C   3,C   2,C   1)    -87.6958         0.010053   
    353. D(H  52,C   3,C   2,C   1)    154.0256         0.010053   
    354. D(H  52,C   3,C   2,N   6)    -87.5847         0.010053   
    355. D(H  55,C   4,C   3,H  53)     78.8107         0.010761   
    356. D(H  55,C   4,C   3,H  52)    -42.5761         0.010761   
    357. D(H  54,C   4,C   3,H  52)   -163.9508         0.010761   
    358. D(H  55,C   4,C   3,C   2)   -159.6934         0.010761   
    359. D(H  54,C   4,C   3,H  53)    -42.5640         0.010761   
    360. D(C   5,C   4,C   3,C   2)    -37.9807         0.010761   
    361. D(H  54,C   4,C   3,C   2)     78.9319         0.010761   
    362. D(C   5,C   4,C   3,H  53)   -159.4766         0.010761   
    363. D(C   5,C   4,C   3,H  52)     79.1366         0.010761   
    364. D(N   6,C   5,C   4,C   3)     30.2657         0.011005   
    365. D(H  57,C   5,C   4,C   3)    -88.3186         0.011005   
    366. D(H  56,C   5,C   4,H  55)    -88.0876         0.011005   
    367. D(H  56,C   5,C   4,C   3)    149.7627         0.011005   
    368. D(H  57,C   5,C   4,H  54)    154.5204         0.011005   
    369. D(H  56,C   5,C   4,H  54)     32.6016         0.011005   
    370. D(H  57,C   5,C   4,H  55)     33.8312         0.011005   
    371. D(N   6,C   5,C   4,H  54)    -86.8953         0.011005   
    372. D(N   6,C   5,C   4,H  55)    152.4155         0.011005   
    373. D(C   5,N   6,C   2,C   3)    -12.2600         0.015848   
    374. D(C   7,N   6,C   5,H  57)    -79.3800         0.014510   
    375. D(C   7,N   6,C   5,H  56)     40.7408         0.014510   
    376. D(C   7,N   6,C   5,C   4)    161.2876         0.014510   
    377. D(C   2,N   6,C   5,H  57)    108.0302         0.014510   
    378. D(C   2,N   6,C   5,H  56)   -131.8490         0.014510   
    379. D(C   7,N   6,C   2,H  51)     54.2885         0.015848   
    380. D(C   2,N   6,C   5,C   4)    -11.3022         0.014510   
    381. D(C   7,N   6,C   2,C   3)    174.5229         0.015848   
    382. D(C   5,N   6,C   2,C   1)    106.6712         0.015848   
    383. D(C   7,N   6,C   2,C   1)    -66.5459         0.015848   
    384. D(C   5,N   6,C   2,H  51)   -132.4943         0.015848   
    385. D(C  24,C   7,N   6,C   5)     11.2081         0.034159   
    386. D(C  24,C   7,N   6,C   2)   -176.6406         0.034159   
    387. D(O   8,C   7,N   6,C   5)   -172.3718         0.034159   
    388. D(O   8,C   7,N   6,C   2)     -0.2205         0.034159   
    389. D(H  58,N   9,C   1,O   0)     -4.4931         0.029184   
    390. D(C  10,N   9,C   1,C   2)      8.7483         0.029184   
    391. D(H  58,N   9,C   1,C   2)    173.8978         0.029184   
    392. D(C  10,N   9,C   1,O   0)   -169.6425         0.029184   
    393. D(H  59,C  10,N   9,C   1)     26.1739         0.016016   
    394. D(C  48,C  10,N   9,H  58)    -21.2531         0.016016   
    395. D(C  48,C  10,N   9,C   1)    143.3612         0.016016   
    396. D(C  11,C  10,N   9,C   1)    -91.8852         0.016016   
    397. D(H  59,C  10,N   9,H  58)   -138.4405         0.016016   
    398. D(C  11,C  10,N   9,H  58)    103.5004         0.016016   
    399. D(O  47,C  11,C  10,N   9)    170.9693         0.009648   
    400. D(N  12,C  11,C  10,H  59)   -130.3523         0.009648   
    401. D(N  12,C  11,C  10,C  48)    115.6702         0.009648   
    402. D(N  12,C  11,C  10,N   9)    -10.0520         0.009648   
    403. D(O  47,C  11,C  10,H  59)     50.6690         0.009648   
    404. D(O  47,C  11,C  10,C  48)    -63.3085         0.009648   
    405. D(H  60,N  12,C  11,O  47)    173.7388         0.031784   
    406. D(H  60,N  12,C  11,C  10)     -5.1804         0.031784   
    407. D(C  13,N  12,C  11,O  47)     13.1726         0.031784   
    408. D(C  13,N  12,C  11,C  10)   -165.7466         0.031784   
    409. D(H  61,C  13,N  12,C  11)    -34.1279         0.015721   
    410. D(H  61,C  13,N  12,H  60)    165.7722         0.015721   
    411. D(C  45,C  13,N  12,H  60)    -76.7441         0.015721   
    412. D(C  45,C  13,N  12,C  11)     83.3557         0.015721   
    413. D(C  14,C  13,N  12,C  11)   -152.2417         0.015721   
    414. D(C  14,C  13,N  12,H  60)     47.6585         0.015721   
    415. D(O  44,C  14,C  13,C  45)    -42.0451         0.009868   
    416. D(O  44,C  14,C  13,N  12)   -167.4173         0.009868   
    417. D(N  15,C  14,C  13,H  61)   -105.3387         0.009868   
    418. D(N  15,C  14,C  13,C  45)    137.1175         0.009868   
    419. D(O  44,C  14,C  13,H  61)     75.4987         0.009868   
    420. D(N  15,C  14,C  13,N  12)     11.7454         0.009868   
    421. D(H  62,N  15,C  14,O  44)   -173.3520         0.031413   
    422. D(H  62,N  15,C  14,C  13)      7.5310         0.031413   
    423. D(C  16,N  15,C  14,O  44)      8.5550         0.031413   
    424. D(C  16,N  15,C  14,C  13)   -170.5619         0.031413   
    425. D(H  64,C  16,N  15,H  62)     51.3176         0.017028   
    426. D(H  64,C  16,N  15,C  14)   -130.5272         0.017028   
    427. D(H  63,C  16,N  15,H  62)    169.7107         0.017028   
    428. D(H  63,C  16,N  15,C  14)    -12.1340         0.017028   
    429. D(C  17,C  16,N  15,C  14)    107.9120         0.017028   
    430. D(C  17,C  16,N  15,H  62)    -70.2432         0.017028   
    431. D(H  65,C  17,C  16,H  64)    -67.3408         0.011085   
    432. D(H  65,C  17,C  16,H  63)    173.8789         0.011085   
    433. D(H  65,C  17,C  16,N  15)     54.9090         0.011085   
    434. D(O  43,C  17,C  16,H  64)    174.6913         0.011085   
    435. D(O  43,C  17,C  16,H  63)     55.9111         0.011085   
    436. D(O  43,C  17,C  16,N  15)    -63.0589         0.011085   
    437. D(C  18,C  17,C  16,H  64)     52.0600         0.011085   
    438. D(C  18,C  17,C  16,H  63)    -66.7203         0.011085   
    439. D(C  18,C  17,C  16,N  15)    174.3097         0.011085   
    440. D(H  66,C  18,C  17,H  65)    -59.1082         0.009450   
    441. D(H  66,C  18,C  17,O  43)     59.6380         0.009450   
    442. D(H  66,C  18,C  17,C  16)   -178.7816         0.009450   
    443. D(C  32,C  18,C  17,O  43)    -58.7177         0.009450   
    444. D(C  32,C  18,C  17,C  16)     62.8628         0.009450   
    445. D(C  32,C  18,C  17,H  65)   -177.4638         0.009450   
    446. D(C  19,C  18,C  17,H  65)     57.5665         0.009450   
    447. D(C  19,C  18,C  17,O  43)    176.3127         0.009450   
    448. D(C  19,C  18,C  17,C  16)    -62.1069         0.009450   
    449. D(O  31,C  19,C  18,H  66)   -152.9245         0.009952   
    450. D(O  31,C  19,C  18,C  32)    -36.1429         0.009952   
    451. D(O  31,C  19,C  18,C  17)     91.2360         0.009952   
    452. D(N  20,C  19,C  18,H  66)     29.3799         0.009952   
    453. D(N  20,C  19,C  18,C  17)    -86.4596         0.009952   
    454. D(N  20,C  19,C  18,C  32)    146.1615         0.009952   
    455. D(H  67,N  20,C  19,O  31)    177.1889         0.028636   
    456. D(H  67,N  20,C  19,C  18)     -5.0858         0.028636   
    457. D(C  21,N  20,C  19,O  31)      2.1275         0.028636   
    458. D(C  21,N  20,C  19,C  18)    179.8528         0.028636   
    459. D(H  68,C  21,N  20,H  67)   -161.9649         0.016555   
    460. D(H  68,C  21,N  20,C  19)     13.1405         0.016555   
    461. D(C  27,C  21,N  20,H  67)    -42.3280         0.016555   
    462. D(C  27,C  21,N  20,C  19)    132.7774         0.016555   
    463. D(C  22,C  21,N  20,H  67)     83.6640         0.016555   
    464. D(C  22,C  21,N  20,C  19)   -101.2306         0.016555   
    465. D(N  23,C  22,C  21,C  27)    142.8183         0.009551   
    466. D(N  23,C  22,C  21,N  20)     16.5227         0.009551   
    467. D(O  26,C  22,C  21,H  68)     80.3138         0.009551   
    468. D(O  26,C  22,C  21,C  27)    -38.9038         0.009551   
    469. D(O  26,C  22,C  21,N  20)   -165.1994         0.009551   
    470. D(N  23,C  22,C  21,H  68)    -97.9641         0.009551   
    471. D(H  69,N  23,C  22,O  26)   -178.6776         0.032923   
    472. D(H  69,N  23,C  22,C  21)     -0.4363         0.032923   
    473. D(C  24,N  23,C  22,O  26)     -1.5574         0.032923   
    474. D(C  24,N  23,C  22,C  21)    176.6839         0.032923   
    475. D(H  70,C  24,N  23,H  69)   -141.2555         0.017658   
    476. D(H  70,C  24,N  23,C  22)     41.4869         0.017658   
    477. D(C  25,C  24,N  23,H  69)     99.0874         0.017658   
    478. D(C  25,C  24,N  23,C  22)    -78.1702         0.017658   
    479. D(C   7,C  24,N  23,H  69)    -21.4456         0.017658   
    480. D(C   7,C  24,N  23,C  22)    161.2968         0.017658   
    481. D(H  70,C  24,C   7,O   8)    144.0555         0.010599   
    482. D(H  70,C  24,C   7,N   6)    -39.4814         0.010599   
    483. D(C  25,C  24,C   7,O   8)    -95.2954         0.010599   
    484. D(C  25,C  24,C   7,N   6)     81.1676         0.010599   
    485. D(N  23,C  24,C   7,O   8)     26.5555         0.010599   
    486. D(N  23,C  24,C   7,N   6)   -156.9815         0.010599   
    487. D(H  73,C  25,C  24,H  70)   -179.4093         0.010352   
    488. D(H  73,C  25,C  24,N  23)    -60.4646         0.010352   
    489. D(H  73,C  25,C  24,C   7)     58.5260         0.010352   
    490. D(H  72,C  25,C  24,H  70)     59.9953         0.010352   
    491. D(H  72,C  25,C  24,N  23)    178.9400         0.010352   
    492. D(H  72,C  25,C  24,C   7)    -62.0694         0.010352   
    493. D(H  71,C  25,C  24,H  70)    -59.7156         0.010352   
    494. D(H  71,C  25,C  24,N  23)     59.2291         0.010352   
    495. D(H  71,C  25,C  24,C   7)    178.2198         0.010352   
    496. D(H  75,C  27,C  21,H  68)    177.3842         0.011126   
    497. D(H  75,C  27,C  21,C  22)    -66.5452         0.011126   
    498. D(H  75,C  27,C  21,N  20)     60.7304         0.011126   
    499. D(H  74,C  27,C  21,H  68)    -68.4743         0.011126   
    500. D(H  74,C  27,C  21,C  22)     47.5962         0.011126   
    501. D(H  74,C  27,C  21,N  20)    174.8719         0.011126   
    502. D(C  28,C  27,C  21,H  68)     54.2392         0.011126   
    503. D(C  28,C  27,C  21,C  22)    170.3097         0.011126   
    504. D(C  28,C  27,C  21,N  20)    -62.4146         0.011126   
    505. D(H  76,C  28,C  27,H  75)    -62.7635         0.010703   
    506. D(H  76,C  28,C  27,H  74)   -178.9619         0.010703   
    507. D(H  76,C  28,C  27,C  21)     59.9882         0.010703   
    508. D(C  30,C  28,C  27,H  75)    178.5529         0.010703   
    509. D(C  30,C  28,C  27,H  74)     62.3545         0.010703   
    510. D(C  30,C  28,C  27,C  21)    -58.6954         0.010703   
    511. D(C  29,C  28,C  27,H  75)     54.5919         0.010703   
    512. D(C  29,C  28,C  27,H  74)    -61.6065         0.010703   
    513. D(C  29,C  28,C  27,C  21)    177.3436         0.010703   
    514. D(H  79,C  29,C  28,C  30)     59.0650         0.010955   
    515. D(H  79,C  29,C  28,C  27)   -176.4287         0.010955   
    516. D(H  78,C  29,C  28,H  76)   -178.4951         0.010955   
    517. D(H  78,C  29,C  28,C  30)    -60.6070         0.010955   
    518. D(H  78,C  29,C  28,C  27)     63.8993         0.010955   
    519. D(H  77,C  29,C  28,H  76)     61.7238         0.010955   
    520. D(H  77,C  29,C  28,C  30)    179.6119         0.010955   
    521. D(H  79,C  29,C  28,H  76)    -58.8231         0.010955   
    522. D(H  77,C  29,C  28,C  27)    -55.8818         0.010955   
    523. D(H  82,C  30,C  28,H  76)   -175.3197         0.010961   
    524. D(H  82,C  30,C  28,C  29)     66.7874         0.010961   
    525. D(H  82,C  30,C  28,C  27)    -56.3947         0.010961   
    526. D(H  81,C  30,C  28,H  76)     65.2827         0.010961   
    527. D(H  81,C  30,C  28,C  29)    -52.6103         0.010961   
    528. D(H  81,C  30,C  28,C  27)   -175.7924         0.010961   
    529. D(H  80,C  30,C  28,H  76)    -54.5597         0.010961   
    530. D(H  80,C  30,C  28,C  29)   -172.4527         0.010961   
    531. D(H  80,C  30,C  28,C  27)     64.3652         0.010961   
    532. D(O  42,C  32,C  18,H  66)   -159.1070         0.009678   
    533. D(O  42,C  32,C  18,C  19)     84.1893         0.009678   
    534. D(O  42,C  32,C  18,C  17)    -41.6026         0.009678   
    535. D(C  33,C  32,C  18,H  66)     23.2289         0.009678   
    536. D(C  33,C  32,C  18,C  19)    -93.4748         0.009678   
    537. D(C  33,C  32,C  18,C  17)    140.7333         0.009678   
    538. D(H  84,C  33,C  32,O  42)      8.5060         0.011416   
    539. D(H  84,C  33,C  32,C  18)   -173.8349         0.011416   
    540. D(H  83,C  33,C  32,O  42)    125.5133         0.011416   
    541. D(H  83,C  33,C  32,C  18)    -56.8276         0.011416   
    542. D(C  34,C  33,C  32,O  42)   -113.2740         0.011416   
    543. D(C  34,C  33,C  32,C  18)     64.3850         0.011416   
    544. D(H  86,C  34,C  33,H  84)   -178.6248         0.010466   
    545. D(H  86,C  34,C  33,H  83)     62.4604         0.010466   
    546. D(H  86,C  34,C  33,C  32)    -58.4782         0.010466   
    547. D(H  85,C  34,C  33,H  84)    -62.8373         0.010466   
    548. D(H  85,C  34,C  33,H  83)    178.2479         0.010466   
    549. D(H  85,C  34,C  33,C  32)     57.3094         0.010466   
    550. D(C  35,C  34,C  33,H  84)     59.4993         0.010466   
    551. D(C  35,C  34,C  33,H  83)    -59.4155         0.010466   
    552. D(C  35,C  34,C  33,C  32)    179.6460         0.010466   
    553. D(H  88,C  35,C  34,H  86)   -178.6826         0.011167   
    554. D(H  88,C  35,C  34,H  85)     65.6887         0.011167   
    555. D(H  88,C  35,C  34,C  33)    -56.0976         0.011167   
    556. D(H  87,C  35,C  34,H  86)    -62.8819         0.011167   
    557. D(H  87,C  35,C  34,H  85)   -178.5107         0.011167   
    558. D(H  87,C  35,C  34,C  33)     59.7030         0.011167   
    559. D(C  36,C  35,C  34,H  86)     59.2163         0.011167   
    560. D(C  36,C  35,C  34,H  85)    -56.4125         0.011167   
    561. D(C  36,C  35,C  34,C  33)   -178.1987         0.011167   
    562. D(H  90,C  36,C  35,H  87)     66.3150         0.011191   
    563. D(H  90,C  36,C  35,C  34)    -55.7058         0.011191   
    564. D(H  89,C  36,C  35,H  88)    -62.5499         0.011191   
    565. D(H  89,C  36,C  35,H  87)   -178.4995         0.011191   
    566. D(H  89,C  36,C  35,C  34)     59.4797         0.011191   
    567. D(C  37,C  36,C  35,H  88)     59.7335         0.011191   
    568. D(C  37,C  36,C  35,H  87)    -56.2160         0.011191   
    569. D(H  90,C  36,C  35,H  88)   -177.7354         0.011191   
    570. D(C  37,C  36,C  35,C  34)   -178.2368         0.011191   
    571. D(H  92,C  37,C  36,H  90)   -173.6426         0.011059   
    572. D(H  92,C  37,C  36,H  89)     70.5244         0.011059   
    573. D(H  92,C  37,C  36,C  35)    -51.6377         0.011059   
    574. D(H  91,C  37,C  36,H  90)    -58.2322         0.011059   
    575. D(H  91,C  37,C  36,H  89)   -174.0652         0.011059   
    576. D(H  91,C  37,C  36,C  35)     63.7727         0.011059   
    577. D(C  38,C  37,C  36,H  90)     64.3254         0.011059   
    578. D(C  38,C  37,C  36,H  89)    -51.5076         0.011059   
    579. D(C  38,C  37,C  36,C  35)   -173.6697         0.011059   
    580. D(H  94,C  38,C  37,H  92)    -59.6822         0.010843   
    581. D(H  94,C  38,C  37,H  91)   -175.2166         0.010843   
    582. D(H  94,C  38,C  37,C  36)     62.3394         0.010843   
    583. D(H  93,C  38,C  37,H  92)     55.7474         0.010843   
    584. D(H  93,C  38,C  37,H  91)    -59.7870         0.010843   
    585. D(H  93,C  38,C  37,C  36)    177.7690         0.010843   
    586. D(C  39,C  38,C  37,H  92)    177.9522         0.010843   
    587. D(C  39,C  38,C  37,H  91)     62.4178         0.010843   
    588. D(C  39,C  38,C  37,C  36)    -60.0262         0.010843   
    589. D(H  95,C  39,C  38,H  94)    -59.7817         0.011086   
    590. D(H  95,C  39,C  38,H  93)   -175.1157         0.011086   
    591. D(H  95,C  39,C  38,C  37)     62.6633         0.011086   
    592. D(C  40,C  39,C  38,H  94)     61.9651         0.011086   
    593. D(C  40,C  39,C  38,H  93)    -53.3688         0.011086   
    594. D(C  40,C  39,C  38,C  37)   -175.5898         0.011086   
    595. D(H  96,C  39,C  38,H  94)   -175.5562         0.011086   
    596. D(H  96,C  39,C  38,H  93)     69.1098         0.011086   
    597. D(H  96,C  39,C  38,C  37)    -53.1112         0.011086   
    598. D(H  98,C  40,C  39,H  95)     66.1628         0.011127   
    599. D(H  98,C  40,C  39,C  38)    -56.1626         0.011127   
    600. D(H  97,C  40,C  39,H  96)    -63.2336         0.011127   
    601. D(H  97,C  40,C  39,H  95)   -178.4176         0.011127   
    602. D(H  97,C  40,C  39,C  38)     59.2570         0.011127   
    603. D(C  41,C  40,C  39,H  96)     59.2266         0.011127   
    604. D(C  41,C  40,C  39,H  95)    -55.9574         0.011127   
    605. D(H  98,C  40,C  39,H  96)   -178.6532         0.011127   
    606. D(C  41,C  40,C  39,C  38)   -178.2827         0.011127   
    607. D(H 101,C  41,C  40,H  98)    -61.7905         0.011157   
    608. D(H 101,C  41,C  40,H  97)   -177.8281         0.011157   
    609. D(H 101,C  41,C  40,C  39)     60.0177         0.011157   
    610. D(H 100,C  41,C  40,H  98)    178.7274         0.011157   
    611. D(H 100,C  41,C  40,H  97)     62.6899         0.011157   
    612. D(H 100,C  41,C  40,C  39)    -59.4644         0.011157   
    613. D(H  99,C  41,C  40,H  98)     58.4510         0.011157   
    614. D(H  99,C  41,C  40,H  97)    -57.5865         0.011157   
    615. D(H  99,C  41,C  40,C  39)   -179.7408         0.011157   
    616. D(H 102,O  43,C  17,H  65)     40.7259         0.017881   
    617. D(H 102,O  43,C  17,C  18)    -76.6453         0.017881   
    618. D(H 102,O  43,C  17,C  16)    157.5784         0.017881   
    619. D(H 104,C  45,C  13,H  61)    -60.2933         0.010275   
    620. D(H 104,C  45,C  13,C  14)     56.7259         0.010275   
    621. D(H 104,C  45,C  13,N  12)   -176.1676         0.010275   
    622. D(H 103,C  45,C  13,H  61)     55.2328         0.010275   
    623. D(H 103,C  45,C  13,C  14)    172.2520         0.010275   
    624. D(H 103,C  45,C  13,N  12)    -60.6414         0.010275   
    625. D(C  46,C  45,C  13,H  61)    178.5358         0.010275   
    626. D(C  46,C  45,C  13,C  14)    -64.4449         0.010275   
    627. D(C  46,C  45,C  13,N  12)     62.6616         0.010275   
    628. D(H 107,C  46,C  45,H 104)    -60.5394         0.011215   
    629. D(H 107,C  46,C  45,H 103)   -179.5615         0.011215   
    630. D(H 107,C  46,C  45,C  13)     59.0502         0.011215   
    631. D(H 106,C  46,C  45,H 104)    178.6840         0.011215   
    632. D(H 106,C  46,C  45,H 103)     59.6619         0.011215   
    633. D(H 106,C  46,C  45,C  13)    -61.7264         0.011215   
    634. D(H 105,C  46,C  45,H 104)     59.3289         0.011215   
    635. D(H 105,C  46,C  45,H 103)    -59.6933         0.011215   
    636. D(H 105,C  46,C  45,C  13)    178.9185         0.011215   
    637. D(H 108,C  48,C  10,H  59)    -62.9675         0.009752   
    638. D(H 108,C  48,C  10,C  11)     50.1592         0.009752   
    639. D(H 108,C  48,C  10,N   9)    178.1896         0.009752   
    640. D(C  50,C  48,C  10,H  59)   -179.6477         0.009752   
    641. D(C  50,C  48,C  10,C  11)    -66.5209         0.009752   
    642. D(C  50,C  48,C  10,N   9)     61.5095         0.009752   
    643. D(C  49,C  48,C  10,H  59)     54.0271         0.009752   
    644. D(C  49,C  48,C  10,C  11)    167.1538         0.009752   
    645. D(C  49,C  48,C  10,N   9)    -64.8158         0.009752   
    646. D(H 111,C  49,C  48,C  50)     56.9438         0.011067   
    647. D(H 111,C  49,C  48,C  10)   -176.3824         0.011067   
    648. D(H 110,C  49,C  48,H 108)    178.0046         0.011067   
    649. D(H 110,C  49,C  48,C  50)    -62.7258         0.011067   
    650. D(H 110,C  49,C  48,C  10)     63.9480         0.011067   
    651. D(H 109,C  49,C  48,H 108)     57.3659         0.011067   
    652. D(H 109,C  49,C  48,C  50)    176.6356         0.011067   
    653. D(H 111,C  49,C  48,H 108)    -62.3258         0.011067   
    654. D(H 109,C  49,C  48,C  10)    -56.6906         0.011067   
    655. D(H 114,C  50,C  48,H 108)    178.7996         0.010946   
    656. D(H 114,C  50,C  48,C  49)     59.0061         0.010946   
    657. D(H 114,C  50,C  48,C  10)    -66.8375         0.010946   
    658. D(H 113,C  50,C  48,H 108)     60.2158         0.010946   
    659. D(H 113,C  50,C  48,C  49)    -59.5777         0.010946   
    660. D(H 113,C  50,C  48,C  10)    174.5787         0.010946   
    661. D(H 112,C  50,C  48,H 108)    -59.5277         0.010946   
    662. D(H 112,C  50,C  48,C  49)   -179.3213         0.010946   
    663. D(H 112,C  50,C  48,C  10)     54.8351         0.010946   
    -----------------------------------------------------------------

Number of atoms                         .... 115
Number of degrees of freedom            .... 663

         *************************************************************
         *                GEOMETRY OPTIMIZATION CYCLE   1            *
         *************************************************************
---------------------------------
CARTESIAN COORDINATES (ANGSTROEM)
---------------------------------
  O      3.281390   -1.509133    3.318798
  C      4.345202   -1.357839    2.726038
  C      5.034767    0.015344    2.602642
  C      6.001795    0.264031    3.781678
  C      5.095639    0.893808    4.848766
  C      4.158248    1.791984    4.035736
  N      4.057451    1.092150    2.743463
  C      3.105526    1.254708    1.799526
  O      3.034887    0.514124    0.803333
  N      5.021354   -2.404754    2.156487
  C      6.377229   -2.385745    1.616539
  C      6.478238   -2.065900    0.111906
  N      5.311445   -2.047297   -0.585505
  C      5.314031   -2.064279   -2.047482
  C      4.089211   -1.390235   -2.689078
  N      3.286110   -0.653258   -1.874178
  C      2.007109   -0.152493   -2.342754
  C      0.863041   -0.926977   -1.683574
  C     -0.560125   -0.389246   -2.001394
  C     -0.741547    1.048838   -1.490235
  N     -1.146605    1.116605   -0.180449
  C     -1.378600    2.373467    0.515043
  C     -0.216056    2.779703    1.444851
  N      0.953589    2.132627    1.222751
  C      2.159764    2.444047    1.957728
  C      2.837948    3.724867    1.434860
  O     -0.353274    3.656475    2.300269
  C     -2.706595    2.357179    1.275162
  C     -3.951637    2.193911    0.390829
  C     -5.205342    2.126184    1.269526
  C     -4.067620    3.310895   -0.651813
  O     -0.507562    2.046989   -2.163409
  C     -0.944392   -0.465235   -3.491888
  C     -2.380378   -0.864934   -3.773918
  C     -3.387582    0.174282   -3.250025
  C     -4.840035   -0.211750   -3.535247
  C     -5.835691    0.843979   -3.052393
  C     -7.298341    0.458319   -3.289404
  C     -8.299613    1.570166   -2.951351
  C     -8.257928    2.030321   -1.491998
  C     -9.332422    3.062357   -1.142802
  C     -9.248603    3.540985    0.307808
  O     -0.162784   -0.181428   -4.376505
  O      0.966186   -2.296078   -2.097230
  O      3.880943   -1.555607   -3.889761
  C      5.448658   -3.501851   -2.588288
  C      4.278743   -4.404836   -2.195869
  O      7.586855   -1.865252   -0.384182
  C      7.110169   -3.720302    1.904246
  C      7.313565   -3.921971    3.408210
  C      6.417402   -4.923069    1.254436
  H      5.526910    0.095932    1.624174
  H      6.788841    0.964809    3.467561
  H      6.485598   -0.657436    4.128505
  H      4.510847    0.111818    5.351577
  H      5.654364    1.454097    5.608436
  H      3.170492    1.895625    4.501867
  H      4.583787    2.799349    3.895941
  H      4.595190   -3.312464    2.336537
  H      6.955701   -1.597396    2.118154
  H      4.470156   -2.324169   -0.084397
  H      6.204382   -1.493919   -2.351643
  H      3.548753   -0.459372   -0.908090
  H      1.967908   -0.284137   -3.429029
  H      1.902935    0.919055   -2.123144
  H      1.000595   -0.862173   -0.586045
  H     -1.262811   -1.031547   -1.441901
  H     -1.366106    0.254543    0.309860
  H     -1.398898    3.143083   -0.273219
  H      1.038751    1.426807    0.494561
  H      1.880107    2.593633    3.010613
  H      2.135344    4.561981    1.525942
  H      3.742224    3.961740    2.012354
  H      3.115575    3.598511    0.379869
  H     -2.765717    3.296156    1.845098
  H     -2.677616    1.547387    2.026475
  H     -3.866634    1.233769   -0.150999
  H     -5.130670    1.321190    2.015919
  H     -5.350966    3.072996    1.812717
  H     -6.105987    1.945929    0.666334
  H     -3.240391    3.291147   -1.375023
  H     -5.002178    3.215880   -1.222303
  H     -4.071246    4.298265   -0.163703
  H     -2.579947   -1.840929   -3.297105
  H     -2.484658   -0.987484   -4.860659
  H     -3.162639    1.151528   -3.705779
  H     -3.261461    0.310981   -2.162625
  H     -5.064232   -1.179355   -3.052306
  H     -4.970486   -0.373907   -4.618909
  H     -5.622617    1.801701   -3.559444
  H     -5.667688    1.025985   -1.978363
  H     -7.536347   -0.441378   -2.694676
  H     -7.426471    0.168458   -4.346015
  H     -9.318725    1.221063   -3.189003
  H     -8.113620    2.438127   -3.608264
  H     -7.268588    2.462823   -1.267694
  H     -8.363638    1.152971   -0.828043
  H    -10.328744    2.629846   -1.336525
  H     -9.238276    3.925327   -1.823795
  H    -10.031391    4.277580    0.538454
  H     -9.362605    2.700576    1.009531
  H     -8.275091    4.011686    0.512746
  H      0.504494   -2.846269   -1.442518
  H      6.404459   -3.908902   -2.223699
  H      5.513123   -3.429812   -3.681694
  H      4.405480   -5.411758   -2.616900
  H      4.197764   -4.519057   -1.103249
  H      3.328058   -3.997819   -2.569008
  H      8.093325   -3.595396    1.425813
  H      7.864129   -3.079469    3.852159
  H      6.355013   -4.017136    3.940836
  H      7.889912   -4.837736    3.599944
  H      6.283533   -4.780813    0.173593
  H      7.019152   -5.830283    1.401197
  H      5.428440   -5.128356    1.696434

----------------------------
CARTESIAN COORDINATES (A.U.)
----------------------------
  NO LB      ZA    FRAG     MASS         X           Y           Z
   0 O     8.0000    0    15.999    6.200929   -2.851848    6.271619
   1 C     6.0000    0    12.011    8.211242   -2.565943    5.151466
   2 C     6.0000    0    12.011    9.514330    0.028997    4.918281
   3 C     6.0000    0    12.011   11.341749    0.498947    7.146335
   4 C     6.0000    0    12.011    9.629361    1.689053    9.162840
   5 C     6.0000    0    12.011    7.857950    3.386359    7.626436
   6 N     7.0000    0    14.007    7.667471    2.063865    5.184394
   7 C     6.0000    0    12.011    5.868594    2.371054    3.400611
   8 O     8.0000    0    15.999    5.735106    0.971554    1.518080
   9 N     7.0000    0    14.007    9.488985   -4.544326    4.075170
  10 C     6.0000    0    12.011   12.051216   -4.508406    3.054817
  11 C     6.0000    0    12.011   12.242096   -3.903985    0.211472
  12 N     7.0000    0    14.007   10.037177   -3.868830   -1.106445
  13 C     6.0000    0    12.011   10.042063   -3.900923   -3.869180
  14 C     6.0000    0    12.011    7.727489   -2.627163   -5.081621
  15 N     7.0000    0    14.007    6.209849   -1.234479   -3.541684
  16 C     6.0000    0    12.011    3.792886   -0.288171   -4.427164
  17 C     6.0000    0    12.011    1.630911   -1.751732   -3.181493
  18 C     6.0000    0    12.011   -1.058482   -0.735568   -3.782087
  19 C     6.0000    0    12.011   -1.401321    1.982016   -2.816136
  20 N     7.0000    0    14.007   -2.166769    2.110078   -0.340999
  21 C     6.0000    0    12.011   -2.605177    4.485203    0.973291
  22 C     6.0000    0    12.011   -0.408287    5.252877    2.730372
  23 N     7.0000    0    14.007    1.802023    4.030081    2.310665
  24 C     6.0000    0    12.011    4.081362    4.618579    3.699571
  25 C     6.0000    0    12.011    5.362945    7.038979    2.711492
  26 O     8.0000    0    15.999   -0.667592    6.909736    4.346878
  27 C     6.0000    0    12.011   -5.114724    4.454423    2.409707
  28 C     6.0000    0    12.011   -7.467513    4.145891    0.738559
  29 C     6.0000    0    12.011   -9.836671    4.017905    2.399056
  30 C     6.0000    0    12.011   -7.686687    6.256685   -1.231748
  31 O     8.0000    0    15.999   -0.959153    3.868249   -4.088250
  32 C     6.0000    0    12.011   -1.784643   -0.879167   -6.598712
  33 C     6.0000    0    12.011   -4.498263   -1.634489   -7.131672
  34 C     6.0000    0    12.011   -6.401603    0.329346   -6.141658
  35 C     6.0000    0    12.011   -9.146340   -0.400149   -6.680648
  36 C     6.0000    0    12.011  -11.027858    1.594889   -5.768187
  37 C     6.0000    0    12.011  -13.791867    0.866098   -6.216073
  38 C     6.0000    0    12.011  -15.683995    2.967185   -5.577246
  39 C     6.0000    0    12.011  -15.605223    3.836750   -2.819467
  40 C     6.0000    0    12.011  -17.635721    5.787017   -2.159583
  41 C     6.0000    0    12.011  -17.477326    6.691492    0.581672
  42 O     8.0000    0    15.999   -0.307617   -0.342850   -8.270395
  43 O     8.0000    0    15.999    1.825826   -4.338959   -3.963190
  44 O     8.0000    0    15.999    7.333920   -2.939672   -7.350583
  45 C     6.0000    0    12.011   10.296472   -6.617540   -4.891155
  46 C     6.0000    0    12.011    8.085652   -8.323933   -4.149591
  47 O     8.0000    0    15.999   14.337078   -3.524816   -0.725999
  48 C     6.0000    0    12.011   13.436272   -7.030353    3.598503
  49 C     6.0000    0    12.011   13.820635   -7.411451    6.440583
  50 C     6.0000    0    12.011   12.127133   -9.303252    2.370540
  51 H     1.0000    0     1.008   10.444346    0.181286    3.069244
  52 H     1.0000    0     1.008   12.829050    1.823225    6.552740
  53 H     1.0000    0     1.008   12.256003   -1.242373    7.801744
  54 H     1.0000    0     1.008    8.524265    0.211305   10.113015
  55 H     1.0000    0     1.008   10.685198    2.747845   10.598409
  56 H     1.0000    0     1.008    5.991362    3.582213    8.507296
  57 H     1.0000    0     1.008    8.662102    5.290003    7.362262
  58 H     1.0000    0     1.008    8.683650   -6.259650    4.415415
  59 H     1.0000    0     1.008   13.144370   -3.018641    4.002730
  60 H     1.0000    0     1.008    8.447370   -4.392043   -0.159486
  61 H     1.0000    0     1.008   11.724582   -2.823099   -4.443962
  62 H     1.0000    0     1.008    6.706171   -0.868087   -1.716042
  63 H     1.0000    0     1.008    3.718806   -0.536941   -6.479926
  64 H     1.0000    0     1.008    3.596027    1.736762   -4.012160
  65 H     1.0000    0     1.008    1.890851   -1.629271   -1.107465
  66 H     1.0000    0     1.008   -2.386367   -1.949342   -2.724798
  67 H     1.0000    0     1.008   -2.581565    0.481017    0.585550
  68 H     1.0000    0     1.008   -2.643534    5.939566   -0.516309
  69 H     1.0000    0     1.008    1.962955    2.696274    0.934585
  70 H     1.0000    0     1.008    3.552887    4.901257    5.689235
  71 H     1.0000    0     1.008    4.035215    8.620895    2.883612
  72 H     1.0000    0     1.008    7.071778    7.486604    3.802798
  73 H     1.0000    0     1.008    5.887583    6.800200    0.717849
  74 H     1.0000    0     1.008   -5.226447    6.228832    3.486730
  75 H     1.0000    0     1.008   -5.059961    2.924138    3.829482
  76 H     1.0000    0     1.008   -7.306879    2.331486   -0.285348
  77 H     1.0000    0     1.008   -9.695561    2.496687    3.809534
  78 H     1.0000    0     1.008  -10.111861    5.807122    3.425539
  79 H     1.0000    0     1.008  -11.538644    3.677273    1.259189
  80 H     1.0000    0     1.008   -6.123451    6.219367   -2.598418
  81 H     1.0000    0     1.008   -9.452746    6.077133   -2.309818
  82 H     1.0000    0     1.008   -7.693540    8.122544   -0.309353
  83 H     1.0000    0     1.008   -4.875394   -3.478851   -6.230626
  84 H     1.0000    0     1.008   -4.695323   -1.866075   -9.185314
  85 H     1.0000    0     1.008   -5.976521    2.176072   -7.002908
  86 H     1.0000    0     1.008   -6.163268    0.587668   -4.086769
  87 H     1.0000    0     1.008   -9.570012   -2.228658   -5.768022
  88 H     1.0000    0     1.008   -9.392858   -0.706582   -8.728472
  89 H     1.0000    0     1.008  -10.625207    3.404721   -6.726375
  90 H     1.0000    0     1.008  -10.710378    1.938831   -3.738564
  91 H     1.0000    0     1.008  -14.241631   -0.834083   -5.092199
  92 H     1.0000    0     1.008  -14.033996    0.318339   -8.212779
  93 H     1.0000    0     1.008  -17.609838    2.307475   -6.026342
  94 H     1.0000    0     1.008  -15.332520    4.607393   -6.818631
  95 H     1.0000    0     1.008  -13.735640    4.654061   -2.395595
  96 H     1.0000    0     1.008  -15.804986    2.178800   -1.564774
  97 H     1.0000    0     1.008  -19.518497    4.969688   -2.525667
  98 H     1.0000    0     1.008  -17.457811    7.417792   -3.446474
  99 H     1.0000    0     1.008  -18.956583    8.083455    1.017531
 100 H     1.0000    0     1.008  -17.692759    5.103349    1.907737
 101 H     1.0000    0     1.008  -15.637656    7.580988    0.968950
 102 H     1.0000    0     1.008    0.953355   -5.378668   -2.725965
 103 H     1.0000    0     1.008   12.102673   -7.386754   -4.202182
 104 H     1.0000    0     1.008   10.418293   -6.481406   -6.957393
 105 H     1.0000    0     1.008    8.325152  -10.226741   -4.945224
 106 H     1.0000    0     1.008    7.932624   -8.539780   -2.084838
 107 H     1.0000    0     1.008    6.289118   -7.554782   -4.854721
 108 H     1.0000    0     1.008   15.294167   -6.794313    2.694396
 109 H     1.0000    0     1.008   14.861049   -5.819353    7.279526
 110 H     1.0000    0     1.008   12.009233   -7.591288    7.447101
 111 H     1.0000    0     1.008   14.909773   -9.141995    6.802909
 112 H     1.0000    0     1.008   11.874157   -9.034428    0.328042
 113 H     1.0000    0     1.008   13.264275  -11.017639    2.647878
 114 H     1.0000    0     1.008   10.258265   -9.691188    3.205796

--------------------------------
INTERNAL COORDINATES (ANGSTROEM)
--------------------------------
 O      0   0   0     0.000000000000     0.00000000     0.00000000
 C      1   0   0     1.227171779822     0.00000000     0.00000000
 C      2   1   0     1.541543687388   122.42950190     0.00000000
 C      3   2   1     1.545028855260   111.23975550    89.96671672
 C      4   3   2     1.535062364533   103.12285301   272.30424332
 C      5   4   3     1.531808852657   103.46414406   322.01934913
 N      3   2   1     1.460988634276   110.46261727   336.11300546
 C      7   3   2     1.350408580846   119.53103947   293.45405153
 O      8   7   3     1.243323645570   121.89810767   359.77954923
 N      2   1   3     1.370256344580   122.29913853   178.27563748
 C     10   2   1     1.459554641721   127.02858347   190.35750818
 C     11  10   2     1.541565996797   115.12841685   268.11479764
 N     12  11  10     1.359461342979   116.57165591   349.94799790
 C     13  12  11     1.462077550302   120.75002070   194.25342002
 C     14  13  12     1.538234708661   114.24077965   207.75834348
 N     15  14  13     1.360943202288   117.22032671    11.74541835
 C     16  15  14     1.451266380584   120.90290485   189.43809556
 C     17  16  15     1.530762706369   110.18513945   107.91202638
 C     18  17  16     1.554208700064   114.91424098   174.30973459
 C     19  18  17     1.536971994725   111.33381837   297.89313122
 N     20  19  18     1.372662897239   113.47608664   273.54041864
 C     21  20  19     1.455072053999   123.07772865   179.85280360
 C     22  21  20     1.543073967028   113.28442410   258.76941310
 N     23  22  21     1.355029974859   115.20370631    16.52270138
 C     24  23  22     1.446385480929   122.25752278   176.68394118
 C     25  24  23     1.540722769090   111.93850640   281.82983351
 O     23  22  21     1.232597807263   121.43787027   194.80061357
 C     22  21  20     1.530234145127   111.50612453   132.77739448
 C     28  22  21     1.535849046240   114.74820803   297.58542517
 C     29  28  22     1.532472371628   109.73902150   177.34358023
 C     29  28  22     1.532385961420   112.06396290   301.30456013
 O     20  19  18     1.226465659780   123.80858173    91.23602043
 C     19  18  17     1.541105645224   114.14432477    62.86276840
 C     33  19  18     1.517021963829   115.39284439   140.73333999
 C     34  33  19     1.539121384725   112.22625207    64.38504996
 C     35  34  33     1.529702531285   112.79878103   179.64598102
 C     36  35  34     1.529392788305   112.64811036   181.80128670
 C     37  36  35     1.531095541560   113.52600476   181.76315257
 C     38  37  36     1.533958291647   114.00845833   186.33028933
 C     39  38  37     1.530748786144   114.21818685   299.97379818
 C     40  39  38     1.530220144129   113.65167952   184.41017442
 C     41  40  39     1.529829499399   112.88711185   181.71730018
 O     33  19  18     1.214085978897   122.18452806   318.39744167
 O     18  17  16     1.433941809474   107.76325815   296.94108058
 O     15  14  13     1.229781532892   118.89147507   192.58274833
 C     14  13  12     1.541819688498   111.20575614    83.35571739
 C     46  14  13     1.529076556319   113.19044992    62.66160644
 O     12  11  10     1.231013034463   119.08877131   170.96932756
 C     11  10   2     1.549521868861   111.06979141   143.36124623
 C     49  11  10     1.530995853476   111.01953000   295.18421330
 C     49  11  10     1.532588332885   112.54338604    61.50945268
 H      3   2   1     1.098225574635   109.70273542   215.48084326
 H      4   3   2     1.099636203687   109.42442818   154.02562897
 H      4   3   2     1.097021167552   112.46320146    33.92935788
 H      5   4   3     1.098321077651   109.90360756    78.93193349
 H      5   4   3     1.096902793094   112.97343844   200.30660771
 H      6   5   4     1.097124078713   112.38530669   149.76265591
 H      6   5   4     1.102456223531   111.52272439   271.68140653
 H     10   2   1     1.018809396265   113.63119614   355.50694072
 H     11  10   2     1.098973159959   109.23668719    26.17387844
 H     13  12  11     1.017612990289   116.95018529   354.81963717
 H     14  13  12     1.100249321247   105.77368835   325.87205722
 H     16  15  14     1.019754304952   121.21417939     7.53103684
 H     17  16  15     1.094924938964   108.08272814   347.86599418
 H     17  16  15     1.098770307980   110.82579674   229.47282113
 H     18  17  16     1.108011317444   107.70840531    54.90895184
 H     19  18  17     1.104242717790   106.13132264   181.21840920
 H     21  20  19     1.015742986541   118.84664974   354.91421120
 H     22  21  20     1.101852207031   105.32663014    13.14054474
 H     24  23  22     1.017691235789   121.37984325   359.56370668
 H     25  24  23     1.099613909090   107.68341493    41.48690144
 H     26  25  24     1.096680453650   108.92711715    59.22913024
 H     26  25  24     1.098782354993   111.29086938   178.93995205
 H     26  25  24     1.098202220967   109.97682296   299.53538726
 H     28  22  21     1.099999711923   107.15314586   174.87191505
 H     28  22  21     1.105021797077   108.83079646    60.73043760
 H     29  28  22     1.105746430997   108.18787110    59.98816382
 H     30  29  28     1.100314974271   111.45475394   304.11822981
 H     30  29  28     1.101234515430   110.67158564    63.89930191
 H     30  29  28     1.098860245599   111.28624031   183.57128173
 H     31  29  28     1.098968146954   112.19071605    64.36521443
 H     31  29  28     1.099038636141   110.76452110   184.20763578
 H     31  29  28     1.101437247653   110.61905552   303.60528169
 H     34  33  19     1.104419987615   108.88214292   303.17236638
 H     34  33  19     1.098589357385   107.64675830   186.16511841
 H     35  34  33     1.101507655767   108.93875387    57.30940643
 H     35  34  33     1.103192237043   110.14291631   301.52182651
 H     36  35  34     1.104426123475   109.40899773    59.70304987
 H     36  35  34     1.103465216867   109.41717026   303.90241806
 H     37  36  35     1.104415365255   109.15082060    59.47968686
 H     37  36  35     1.102221103221   108.80799278   304.29420138
 H     38  37  36     1.104446712829   109.12898563    63.77267177
 H     38  37  36     1.103115664032   108.99096128   308.36228464
 H     39  38  37     1.103150378028   109.03571435   177.76900206
 H     39  38  37     1.104302436075   109.18763582    62.33938794
 H     40  39  38     1.102798640259   109.64748600    62.66330063
 H     40  39  38     1.105329331223   109.35734630   306.88882693
 H     41  40  39     1.103291437542   109.24700116    59.25704408
 H     41  40  39     1.103327378642   109.07139558   303.83744200
 H     42  41  40     1.099331049818   111.68841501   180.25923701
 H     42  41  40     1.100771982460   111.09620985   300.53561570
 H     42  41  40     1.100583663720   111.02878668    60.01765805
 H     44  18  17     0.971861840284   108.18062417   157.57835516
 H     46  14  13     1.100986033812   107.72008341   299.35856828
 H     46  14  13     1.097671538668   107.05751919   183.83244886
 H     47  46  14     1.098736743249   110.76878150   178.91850014
 H     47  46  14     1.101554773235   111.84124103   298.27362756
 H     47  46  14     1.099407668571   110.84745624    59.05023315
 H     49  11  10     1.100497813618   104.12867198   178.18962242
 H     50  49  11     1.100009002368   111.22719645   303.30937935
 H     50  49  11     1.100713462629   111.77992687    63.94802073
 H     50  49  11     1.098891915266   110.53930053   183.61760999
 H     51  49  11     1.098353014328   111.75786400    54.83511818
 H     51  49  11     1.098489584861   110.11326764   174.57867291
 H     51  49  11     1.102520409037   112.43369481   293.16250959

---------------------------
INTERNAL COORDINATES (A.U.)
---------------------------
 O      0   0   0     0.000000000000     0.00000000     0.00000000
 C      1   0   0     2.319018583141     0.00000000     0.00000000
 C      2   1   0     2.913095392639   122.42950190     0.00000000
 C      3   2   1     2.919681405448   111.23975550    89.96671672
 C      4   3   2     2.900847467457   103.12285301   272.30424332
 C      5   4   3     2.894699221039   103.46414406   322.01934913
 N      3   2   1     2.760868403554   110.46261727   336.11300546
 C      7   3   2     2.551902386697   119.53103947   293.45405153
 O      8   7   3     2.349541185956   121.89810767   359.77954923
 N      2   1   3     2.589409224525   122.29913853   178.27563748
 C     10   2   1     2.758158550346   127.02858347   190.35750818
 C     11  10   2     2.913137551311   115.12841685   268.11479764
 N     12  11  10     2.569009627882   116.57165591   349.94799790
 C     13  12  11     2.762926156625   120.75002070   194.25342002
 C     14  13  12     2.906842329062   114.24077965   207.75834348
 N     15  14  13     2.571809936146   117.22032671    11.74541835
 C     16  15  14     2.742496006670   120.90290485   189.43809556
 C     17  16  15     2.892722291057   110.18513945   107.91202638
 C     18  17  16     2.937028798079   114.91424098   174.30973459
 C     19  18  17     2.904456145538   111.33381837   297.89313122
 N     20  19  18     2.593956949977   113.47608664   273.54041864
 C     21  20  19     2.749687687180   123.07772865   179.85280360
 C     22  21  20     2.915987202067   113.28442410   258.76941310
 N     23  22  21     2.560635555738   115.20370631    16.52270138
 C     24  23  22     2.733272443036   122.25752278   176.68394118
 C     25  24  23     2.911544081876   111.93850640   281.82983351
 O     23  22  21     2.329272288999   121.43787027   194.80061357
 C     22  21  20     2.891723455065   111.50612453   132.77739448
 C     28  22  21     2.902334080437   114.74820803   297.58542517
 C     29  28  22     2.895953090178   109.73902150   177.34358023
 C     29  28  22     2.895789798550   112.06396290   301.30456013
 O     20  19  18     2.317684209644   123.80858173    91.23602043
 C     19  18  17     2.912267612912   114.14432477    62.86276840
 C     33  19  18     2.866756050780   115.39284439   140.73333999
 C     34  33  19     2.908517903993   112.22625207    64.38504996
 C     35  34  33     2.890718850494   112.79878103   179.64598102
 C     36  35  34     2.890133521091   112.64811036   181.80128670
 C     37  36  35     2.893351258416   113.52600476   181.76315257
 C     38  37  36     2.898761072070   114.00845833   186.33028933
 C     39  38  37     2.892695985644   114.21818685   299.97379818
 C     40  39  38     2.891696997012   113.65167952   184.41017442
 C     41  40  39     2.890958785458   112.88711185   181.71730018
 O     33  19  18     2.294290003149   122.18452806   318.39744167
 O     18  17  16     2.709757311886   107.76325815   296.94108058
 O     15  14  13     2.323950301719   118.89147507   192.58274833
 C     14  13  12     2.913616959150   111.20575614    83.35571739
 C     46  14  13     2.889535929242   113.19044992    62.66160644
 O     12  11  10     2.326277502423   119.08877131   170.96932756
 C     11  10   2     2.928171970669   111.06979141   143.36124623
 C     49  11  10     2.893162875239   111.01953000   295.18421330
 C     49  11  10     2.896172225196   112.54338604    61.50945268
 H      3   2   1     2.075345569329   109.70273542   215.48084326
 H      4   3   2     2.078011271913   109.42442818   154.02562897
 H      4   3   2     2.073069569789   112.46320146    33.92935788
 H      5   4   3     2.075526043875   109.90360756    78.93193349
 H      5   4   3     2.072845874481   112.97343844   200.30660771
 H      6   5   4     2.073264043699   112.38530669   149.76265591
 H      6   5   4     2.083340337110   111.52272439   271.68140653
 H     10   2   1     1.925270741606   113.63119614   355.50694072
 H     11  10   2     2.076758300853   109.23668719    26.17387844
[...]
freq.      76.29  E(vib)   ...       0.49 
freq.      77.32  E(vib)   ...       0.49 
freq.      80.96  E(vib)   ...       0.48 
freq.      86.59  E(vib)   ...       0.48 
freq.      91.53  E(vib)   ...       0.47 
freq.      98.23  E(vib)   ...       0.46 
freq.     105.07  E(vib)   ...       0.45 
freq.     110.91  E(vib)   ...       0.45 
freq.     114.87  E(vib)   ...       0.44 
freq.     119.45  E(vib)   ...       0.44 
freq.     120.80  E(vib)   ...       0.44 
freq.     125.07  E(vib)   ...       0.43 
freq.     129.69  E(vib)   ...       0.43 
freq.     134.52  E(vib)   ...       0.42 
freq.     141.18  E(vib)   ...       0.41 
freq.     141.30  E(vib)   ...       0.41 
freq.     148.51  E(vib)   ...       0.41 
freq.     153.18  E(vib)   ...       0.40 
freq.     169.20  E(vib)   ...       0.38 
freq.     174.26  E(vib)   ...       0.38 
freq.     184.90  E(vib)   ...       0.37 
freq.     196.85  E(vib)   ...       0.35 
freq.     198.58  E(vib)   ...       0.35 
freq.     206.93  E(vib)   ...       0.35 
freq.     207.92  E(vib)   ...       0.34 
freq.     210.97  E(vib)   ...       0.34 
freq.     218.33  E(vib)   ...       0.33 
freq.     222.34  E(vib)   ...       0.33 
freq.     227.03  E(vib)   ...       0.33 
freq.     230.01  E(vib)   ...       0.32 
freq.     233.16  E(vib)   ...       0.32 
freq.     237.37  E(vib)   ...       0.32 
freq.     241.38  E(vib)   ...       0.31 
freq.     241.61  E(vib)   ...       0.31 
freq.     243.67  E(vib)   ...       0.31 
freq.     244.67  E(vib)   ...       0.31 
freq.     253.44  E(vib)   ...       0.30 
freq.     262.27  E(vib)   ...       0.29 
freq.     267.45  E(vib)   ...       0.29 
freq.     279.83  E(vib)   ...       0.28 
freq.     290.64  E(vib)   ...       0.27 
freq.     303.87  E(vib)   ...       0.26 
freq.     304.96  E(vib)   ...       0.26 
freq.     306.35  E(vib)   ...       0.26 
freq.     328.23  E(vib)   ...       0.24 
freq.     336.29  E(vib)   ...       0.24 
freq.     337.81  E(vib)   ...       0.24 
freq.     347.50  E(vib)   ...       0.23 
freq.     354.84  E(vib)   ...       0.22 
freq.     361.87  E(vib)   ...       0.22 
freq.     368.15  E(vib)   ...       0.21 
freq.     372.30  E(vib)   ...       0.21 
freq.     384.37  E(vib)   ...       0.20 
freq.     391.54  E(vib)   ...       0.20 
freq.     400.34  E(vib)   ...       0.19 
freq.     401.80  E(vib)   ...       0.19 
freq.     414.32  E(vib)   ...       0.19 
freq.     436.78  E(vib)   ...       0.17 
freq.     438.39  E(vib)   ...       0.17 
freq.     451.56  E(vib)   ...       0.16 
freq.     458.81  E(vib)   ...       0.16 
freq.     472.71  E(vib)   ...       0.15 
freq.     478.16  E(vib)   ...       0.15 
freq.     498.79  E(vib)   ...       0.14 
freq.     505.75  E(vib)   ...       0.14 
freq.     512.12  E(vib)   ...       0.14 
freq.     518.50  E(vib)   ...       0.13 
freq.     528.42  E(vib)   ...       0.13 
freq.     537.50  E(vib)   ...       0.12 
freq.     544.61  E(vib)   ...       0.12 
freq.     573.18  E(vib)   ...       0.11 
freq.     584.69  E(vib)   ...       0.11 
freq.     588.99  E(vib)   ...       0.10 
freq.     605.48  E(vib)   ...       0.10 
freq.     610.23  E(vib)   ...       0.10 
freq.     633.48  E(vib)   ...       0.09 
freq.     642.37  E(vib)   ...       0.09 
freq.     647.05  E(vib)   ...       0.09 
freq.     680.29  E(vib)   ...       0.08 
freq.     685.97  E(vib)   ...       0.07 
freq.     692.14  E(vib)   ...       0.07 
freq.     711.93  E(vib)   ...       0.07 
freq.     712.21  E(vib)   ...       0.07 
freq.     718.26  E(vib)   ...       0.07 
freq.     722.31  E(vib)   ...       0.07 
freq.     729.50  E(vib)   ...       0.06 
freq.     731.94  E(vib)   ...       0.06 
freq.     739.44  E(vib)   ...       0.06 
freq.     748.13  E(vib)   ...       0.06 
freq.     756.07  E(vib)   ...       0.06 
freq.     764.11  E(vib)   ...       0.06 
freq.     773.63  E(vib)   ...       0.05 
freq.     780.68  E(vib)   ...       0.05 
freq.     782.87  E(vib)   ...       0.05 
freq.     790.83  E(vib)   ...       0.05 
freq.     812.97  E(vib)   ...       0.05 
freq.     821.53  E(vib)   ...       0.05 
freq.     832.66  E(vib)   ...       0.04 
freq.     839.00  E(vib)   ...       0.04 
freq.     840.87  E(vib)   ...       0.04 
freq.     845.72  E(vib)   ...       0.04 
freq.     864.16  E(vib)   ...       0.04 
freq.     865.27  E(vib)   ...       0.04 
freq.     873.87  E(vib)   ...       0.04 
freq.     878.87  E(vib)   ...       0.04 
freq.     885.31  E(vib)   ...       0.04 
freq.     893.74  E(vib)   ...       0.03 
freq.     897.86  E(vib)   ...       0.03 
freq.     903.15  E(vib)   ...       0.03 
freq.     905.97  E(vib)   ...       0.03 
freq.     908.87  E(vib)   ...       0.03 
freq.     913.82  E(vib)   ...       0.03 
freq.     926.75  E(vib)   ...       0.03 
freq.     929.57  E(vib)   ...       0.03 
freq.     938.77  E(vib)   ...       0.03 
freq.     944.53  E(vib)   ...       0.03 
freq.     946.69  E(vib)   ...       0.03 
freq.     951.01  E(vib)   ...       0.03 
freq.     951.86  E(vib)   ...       0.03 
freq.     960.31  E(vib)   ...       0.03 
freq.     966.83  E(vib)   ...       0.03 
freq.     977.62  E(vib)   ...       0.03 
freq.     980.92  E(vib)   ...       0.02 
freq.     987.90  E(vib)   ...       0.02 
freq.     994.12  E(vib)   ...       0.02 
freq.     998.60  E(vib)   ...       0.02 
freq.    1001.17  E(vib)   ...       0.02 
freq.    1010.21  E(vib)   ...       0.02 
freq.    1019.88  E(vib)   ...       0.02 
freq.    1021.48  E(vib)   ...       0.02 
freq.    1034.39  E(vib)   ...       0.02 
freq.    1037.24  E(vib)   ...       0.02 
freq.    1037.51  E(vib)   ...       0.02 
freq.    1040.91  E(vib)   ...       0.02 
freq.    1042.01  E(vib)   ...       0.02 
freq.    1050.79  E(vib)   ...       0.02 
freq.    1052.98  E(vib)   ...       0.02 
freq.    1053.91  E(vib)   ...       0.02 
freq.    1061.10  E(vib)   ...       0.02 
freq.    1063.38  E(vib)   ...       0.02 
freq.    1069.14  E(vib)   ...       0.02 
freq.    1077.30  E(vib)   ...       0.02 
freq.    1086.99  E(vib)   ...       0.02 
freq.    1093.72  E(vib)   ...       0.02 
freq.    1099.34  E(vib)   ...       0.02 
freq.    1107.36  E(vib)   ...       0.02 
freq.    1113.39  E(vib)   ...       0.01 
freq.    1122.76  E(vib)   ...       0.01 
freq.    1131.42  E(vib)   ...       0.01 
freq.    1139.36  E(vib)   ...       0.01 
freq.    1140.22  E(vib)   ...       0.01 
freq.    1144.33  E(vib)   ...       0.01 
freq.    1150.85  E(vib)   ...       0.01 
freq.    1157.86  E(vib)   ...       0.01 
freq.    1158.34  E(vib)   ...       0.01 
freq.    1161.39  E(vib)   ...       0.01 
freq.    1161.78  E(vib)   ...       0.01 
freq.    1167.55  E(vib)   ...       0.01 
freq.    1181.16  E(vib)   ...       0.01 
freq.    1181.94  E(vib)   ...       0.01 
freq.    1183.60  E(vib)   ...       0.01 
freq.    1190.06  E(vib)   ...       0.01 
freq.    1190.97  E(vib)   ...       0.01 
freq.    1198.34  E(vib)   ...       0.01 
freq.    1205.66  E(vib)   ...       0.01 
freq.    1214.44  E(vib)   ...       0.01 
freq.    1227.72  E(vib)   ...       0.01 
freq.    1228.07  E(vib)   ...       0.01 
freq.    1228.97  E(vib)   ...       0.01 
freq.    1233.79  E(vib)   ...       0.01 
freq.    1237.17  E(vib)   ...       0.01 
freq.    1243.16  E(vib)   ...       0.01 
freq.    1244.36  E(vib)   ...       0.01 
freq.    1246.10  E(vib)   ...       0.01 
freq.    1256.02  E(vib)   ...       0.01 
freq.    1259.55  E(vib)   ...       0.01 
freq.    1262.06  E(vib)   ...       0.01 
freq.    1269.20  E(vib)   ...       0.01 
freq.    1270.19  E(vib)   ...       0.01 
freq.    1275.60  E(vib)   ...       0.01 
freq.    1280.87  E(vib)   ...       0.01 
freq.    1283.80  E(vib)   ...       0.01 
freq.    1286.19  E(vib)   ...       0.01 
freq.    1288.11  E(vib)   ...       0.01 
freq.    1289.64  E(vib)   ...       0.01 
freq.    1290.95  E(vib)   ...       0.01 
freq.    1292.64  E(vib)   ...       0.01 
freq.    1296.09  E(vib)   ...       0.01 
freq.    1301.68  E(vib)   ...       0.01 
freq.    1309.20  E(vib)   ...       0.01 
freq.    1312.80  E(vib)   ...       0.01 
freq.    1314.33  E(vib)   ...       0.01 
freq.    1317.11  E(vib)   ...       0.01 
freq.    1320.52  E(vib)   ...       0.01 
freq.    1324.17  E(vib)   ...       0.01 
freq.    1325.21  E(vib)   ...       0.01 
freq.    1326.43  E(vib)   ...       0.01 
freq.    1327.71  E(vib)   ...       0.01 
freq.    1329.53  E(vib)   ...       0.01 
freq.    1332.16  E(vib)   ...       0.01 
freq.    1332.32  E(vib)   ...       0.01 
freq.    1341.57  E(vib)   ...       0.01 
freq.    1345.12  E(vib)   ...       0.01 
freq.    1347.82  E(vib)   ...       0.01 
freq.    1348.73  E(vib)   ...       0.01 
freq.    1352.77  E(vib)   ...       0.01 
freq.    1353.81  E(vib)   ...       0.01 
freq.    1356.72  E(vib)   ...       0.01 
freq.    1363.76  E(vib)   ...       0.01 
freq.    1364.22  E(vib)   ...       0.01 
freq.    1365.86  E(vib)   ...       0.01 
freq.    1373.79  E(vib)   ...       0.01 
freq.    1377.66  E(vib)   ...       0.01 
freq.    1386.96  E(vib)   ...       0.00 
freq.    1402.61  E(vib)   ...       0.00 
freq.    1421.74  E(vib)   ...       0.00 
freq.    1423.48  E(vib)   ...       0.00 
freq.    1426.77  E(vib)   ...       0.00 
freq.    1427.79  E(vib)   ...       0.00 
freq.    1428.19  E(vib)   ...       0.00 
freq.    1431.64  E(vib)   ...       0.00 
freq.    1433.83  E(vib)   ...       0.00 
freq.    1433.95  E(vib)   ...       0.00 
freq.    1435.84  E(vib)   ...       0.00 
freq.    1437.75  E(vib)   ...       0.00 
freq.    1439.12  E(vib)   ...       0.00 
freq.    1440.43  E(vib)   ...       0.00 
freq.    1441.38  E(vib)   ...       0.00 
freq.    1445.01  E(vib)   ...       0.00 
freq.    1446.94  E(vib)   ...       0.00 
freq.    1447.45  E(vib)   ...       0.00 
freq.    1448.18  E(vib)   ...       0.00 
freq.    1450.62  E(vib)   ...       0.00 
freq.    1450.99  E(vib)   ...       0.00 
freq.    1451.04  E(vib)   ...       0.00 
freq.    1452.81  E(vib)   ...       0.00 
freq.    1455.60  E(vib)   ...       0.00 
freq.    1457.27  E(vib)   ...       0.00 
freq.    1459.71  E(vib)   ...       0.00 
freq.    1460.36  E(vib)   ...       0.00 
freq.    1461.33  E(vib)   ...       0.00 
freq.    1462.55  E(vib)   ...       0.00 
freq.    1462.95  E(vib)   ...       0.00 
freq.    1464.82  E(vib)   ...       0.00 
freq.    1466.23  E(vib)   ...       0.00 
freq.    1468.97  E(vib)   ...       0.00 
freq.    1474.80  E(vib)   ...       0.00 
freq.    1496.40  E(vib)   ...       0.00 
freq.    1631.06  E(vib)   ...       0.00 
freq.    1674.24  E(vib)   ...       0.00 
freq.    1682.42  E(vib)   ...       0.00 
freq.    1682.70  E(vib)   ...       0.00 
freq.    1685.07  E(vib)   ...       0.00 
freq.    1697.71  E(vib)   ...       0.00 
freq.    1741.08  E(vib)   ...       0.00 
freq.    2890.71  E(vib)   ...       0.00 
freq.    2917.14  E(vib)   ...       0.00 
freq.    2924.35  E(vib)   ...       0.00 
freq.    2929.23  E(vib)   ...       0.00 
freq.    2931.11  E(vib)   ...       0.00 
freq.    2935.07  E(vib)   ...       0.00 
freq.    2935.25  E(vib)   ...       0.00 
freq.    2936.60  E(vib)   ...       0.00 
freq.    2941.84  E(vib)   ...       0.00 
freq.    2943.65  E(vib)   ...       0.00 
freq.    2944.47  E(vib)   ...       0.00 
freq.    2950.32  E(vib)   ...       0.00 
freq.    2950.67  E(vib)   ...       0.00 
freq.    2952.72  E(vib)   ...       0.00 
freq.    2954.50  E(vib)   ...       0.00 
freq.    2955.30  E(vib)   ...       0.00 
freq.    2956.68  E(vib)   ...       0.00 
freq.    2957.48  E(vib)   ...       0.00 
freq.    2958.77  E(vib)   ...       0.00 
freq.    2959.42  E(vib)   ...       0.00 
freq.    2959.75  E(vib)   ...       0.00 
freq.    2966.29  E(vib)   ...       0.00 
freq.    2970.14  E(vib)   ...       0.00 
freq.    2976.18  E(vib)   ...       0.00 
freq.    2976.49  E(vib)   ...       0.00 
freq.    2985.95  E(vib)   ...       0.00 
freq.    2986.69  E(vib)   ...       0.00 
freq.    2987.71  E(vib)   ...       0.00 
freq.    2988.58  E(vib)   ...       0.00 
freq.    2989.27  E(vib)   ...       0.00 
freq.    2996.64  E(vib)   ...       0.00 
freq.    2999.14  E(vib)   ...       0.00 
freq.    2999.57  E(vib)   ...       0.00 
freq.    3001.08  E(vib)   ...       0.00 
freq.    3001.27  E(vib)   ...       0.00 
freq.    3004.93  E(vib)   ...       0.00 
freq.    3012.67  E(vib)   ...       0.00 
freq.    3012.77  E(vib)   ...       0.00 
freq.    3014.15  E(vib)   ...       0.00 
freq.    3018.99  E(vib)   ...       0.00 
freq.    3019.93  E(vib)   ...       0.00 
freq.    3020.93  E(vib)   ...       0.00 
freq.    3025.48  E(vib)   ...       0.00 
freq.    3026.82  E(vib)   ...       0.00 
freq.    3027.77  E(vib)   ...       0.00 
freq.    3028.46  E(vib)   ...       0.00 
freq.    3028.69  E(vib)   ...       0.00 
freq.    3035.14  E(vib)   ...       0.00 
freq.    3035.44  E(vib)   ...       0.00 
freq.    3036.74  E(vib)   ...       0.00 
freq.    3038.31  E(vib)   ...       0.00 
freq.    3041.72  E(vib)   ...       0.00 
freq.    3043.47  E(vib)   ...       0.00 
freq.    3047.72  E(vib)   ...       0.00 
freq.    3050.44  E(vib)   ...       0.00 
freq.    3055.00  E(vib)   ...       0.00 
freq.    3067.88  E(vib)   ...       0.00 
freq.    3080.21  E(vib)   ...       0.00 
freq.    3447.28  E(vib)   ...       0.00 
freq.    3468.93  E(vib)   ...       0.00 
freq.    3484.06  E(vib)   ...       0.00 
freq.    3484.21  E(vib)   ...       0.00 
freq.    3507.07  E(vib)   ...       0.00 
freq.    3692.83  E(vib)   ...       0.00 

------------
INNER ENERGY
------------

The inner energy is: U= E(el) + E(ZPE) + E(vib) + E(rot) + E(trans)
    E(el)   - is the total energy from the electronic structure calculation
              = E(kin-el) + E(nuc-el) + E(el-el) + E(nuc-nuc)
    E(ZPE)  - the the zero temperature vibrational energy from the frequency calculation
    E(vib)  - the the finite temperature correction to E(ZPE) due to population
              of excited vibrational states
    E(rot)  - is the rotational thermal energy
    E(trans)- is the translational thermal energy

Summary of contributions to the inner energy U:
Electronic energy                ...  -2380.06306849 Eh
Zero point energy                ...      0.97582933 Eh     612.34 kcal/mol
Thermal vibrational correction   ...      0.05680634 Eh      35.65 kcal/mol
Thermal rotational correction    ...      0.00141627 Eh       0.89 kcal/mol
Thermal translational correction ...      0.00141627 Eh       0.89 kcal/mol
-----------------------------------------------------------------------
Total thermal energy                  -2379.02760028 Eh


Summary of corrections to the electronic energy:
(perhaps to be used in another calculation)
Total thermal correction                  0.05963888 Eh      37.42 kcal/mol
Non-thermal (ZPE) correction              0.97582933 Eh     612.34 kcal/mol
-----------------------------------------------------------------------
Total correction                          1.03546821 Eh     649.76 kcal/mol


--------
ENTHALPY
--------

The enthalpy is H = U + kB*T
                kB is Boltzmann's constant
Total free energy                 ...  -2379.02760028 Eh 
Thermal Enthalpy correction       ...      0.00094421 Eh       0.59 kcal/mol
-----------------------------------------------------------------------
Total Enthalpy                    ...  -2379.02665607 Eh


Note: Only C1 symmetry has been detected, increase convergence thresholds 
      if your molecule has a higher symmetry. Symmetry factor of 1.0 is   
      used for the rotational entropy correction. 
 

Note: Rotational entropy computed according to Herzberg 
Infrared and Raman Spectra, Chapter V,1, Van Nostrand Reinhold, 1945 
Point Group:  C1, Symmetry Number:   1  
Rotational constants in cm-1:     0.002998     0.000872     0.000739 

Vibrational entropy computed according to the QRRHO of S. Grimme
Chem.Eur.J. 2012 18 9955


-------
ENTROPY
-------

The entropy contributions are T*S = T*(S(el)+S(vib)+S(rot)+S(trans))
     S(el)   - electronic entropy
     S(vib)  - vibrational entropy
     S(rot)  - rotational entropy
     S(trans)- translational entropy
The entropies will be listed as mutliplied by the temperature to get
units of energy

Electronic entropy                ...      0.00000000 Eh      0.00 kcal/mol
Vibrational entropy               ...      0.10530509 Eh     66.08 kcal/mol
Rotational entropy                ...      0.01898306 Eh     11.91 kcal/mol
Translational entropy             ...      0.02166895 Eh     13.60 kcal/mol
-----------------------------------------------------------------------
Final entropy term                ...      0.14595710 Eh     91.59 kcal/mol

In case the symmetry of your molecule has not been determined correctly
or in case you have a reason to use a different symmetry number we print 
out the resulting rotational entropy values for sn=1,12 :
 --------------------------------------------------------
|  sn= 1 | S(rot)=       0.01898306 Eh     11.91 kcal/mol|
|  sn= 2 | S(rot)=       0.01832861 Eh     11.50 kcal/mol|
|  sn= 3 | S(rot)=       0.01794577 Eh     11.26 kcal/mol|
|  sn= 4 | S(rot)=       0.01767415 Eh     11.09 kcal/mol|
|  sn= 5 | S(rot)=       0.01746346 Eh     10.96 kcal/mol|
|  sn= 6 | S(rot)=       0.01729132 Eh     10.85 kcal/mol|
|  sn= 7 | S(rot)=       0.01714577 Eh     10.76 kcal/mol|
|  sn= 8 | S(rot)=       0.01701969 Eh     10.68 kcal/mol|
|  sn= 9 | S(rot)=       0.01690848 Eh     10.61 kcal/mol|
|  sn=10 | S(rot)=       0.01680900 Eh     10.55 kcal/mol|
|  sn=11 | S(rot)=       0.01671901 Eh     10.49 kcal/mol|
|  sn=12 | S(rot)=       0.01663686 Eh     10.44 kcal/mol|
 --------------------------------------------------------


-------------------
GIBBS FREE ENERGY
-------------------

The Gibbs free energy is G = H - T*S

Total enthalpy                    ...  -2379.02665607 Eh 
Total entropy correction          ...     -0.14595710 Eh    -91.59 kcal/mol
-----------------------------------------------------------------------
Final Gibbs free energy         ...  -2379.17261317 Eh

For completeness - the Gibbs free energy minus the electronic energy
G-E(el)                           ...      0.89045532 Eh    558.77 kcal/mol

--------------------------------------------------------------------------
WARNING: No preset parameters were found for the device that Open MPI
detected:

  Local host:            eu-g1-013-2
  Device name:           mlx5_0
  Device vendor ID:      0x02c9
  Device vendor part ID: 4123

Default device parameters will be used, which may result in lower
performance.  You can edit any of the files specified by the
btl_openib_device_param_files MCA parameter to set values for your
device.

NOTE: You can turn off this warning by setting the MCA parameter
      btl_openib_warn_no_device_params_found to 0.
--------------------------------------------------------------------------
--------------------------------------------------------------------------
WARNING: There was an error initializing an OpenFabrics device.

  Local host:   eu-g1-013-2
  Local device: mlx5_0
--------------------------------------------------------------------------

Timings for individual modules:

Sum of individual times         ...    26596.870 sec (= 443.281 min)
GTO integral calculation        ...       11.591 sec (=   0.193 min)   0.0 %
SCF iterations                  ...      314.922 sec (=   5.249 min)   1.2 %
SCF Gradient evaluation         ...       62.309 sec (=   1.038 min)   0.2 %
Geometry relaxation             ...        4.373 sec (=   0.073 min)   0.0 %
Analytical frequency calculation...    26203.675 sec (= 436.728 min)  98.5 %
                             ****ORCA TERMINATED NORMALLY****
TOTAL RUN TIME: 0 days 7 hours 23 minutes 37 seconds 709 msec
