
                                 *****************
                                 * O   R   C   A *
                                 *****************

           --- An Ab Initio, DFT and Semiempirical electronic structure package ---

                  #######################################################
                  #                        -***-                        #
                  #          Department of theory and spectroscopy      #
                  #               Directorship: Frank Neese             #
                  #        Max Planck Institute fuer Kohlenforschung    #
                  #                Kaiser Wilhelm Platz 1               #
                  #                 D-45470 Muelheim/Ruhr               #
                  #                      Germany                        #
                  #                                                     #
                  #                  All rights reserved                #
                  #                        -***-                        #
                  #######################################################


                         Program Version 4.2.0 -  RELEASE  -


 With contributions from (in alphabetic order):
   Daniel Aravena         : Magnetic Suceptibility
   Michael Atanasov       : Ab Initio Ligand Field Theory (pilot matlab implementation)
   Alexander A. Auer      : GIAO ZORA, VPT2
   Ute Becker             : Parallelization
   Giovanni Bistoni       : ED, misc. LED, open-shell LED, HFLED
   Martin Brehm           : Molecular dynamics
   Dmytro Bykov           : SCF Hessian
   Vijay G. Chilkuri      : MRCI spin determinant printing, contributions to CSF-ICE
   Dipayan Datta          : RHF DLPNO-CCSD density
   Achintya Kumar Dutta   : EOM-CC, STEOM-CC
   Dmitry Ganyushin       : Spin-Orbit,Spin-Spin,Magnetic field MRCI
   Miquel Garcia          : C-PCM Hessian, Gaussian charge scheme
   Yang Guo               : DLPNO-NEVPT2, CIM, IAO-localization
   Andreas Hansen         : Spin unrestricted coupled pair/coupled cluster methods
   Benjamin Helmich-Paris : CASSCF linear response (MC-RPA)
   Lee Huntington         : MR-EOM, pCC
   Robert Izsak           : Overlap fitted RIJCOSX, COSX-SCS-MP3, EOM
   Christian Kollmar      : KDIIS, OOCD, Brueckner-CCSD(T), CCSD density
   Simone Kossmann        : Meta GGA functionals, TD-DFT gradient, OOMP2, MP2 Hessian
   Martin Krupicka        : AUTO-CI
   Lucas Lang             : DCDCAS
   Dagmar Lenk            : GEPOL surface, SMD
   Dimitrios Liakos       : Extrapolation schemes; Compound Job, initial MDCI parallelization
   Dimitrios Manganas     : Further ROCIS development; embedding schemes
   Dimitrios Pantazis     : SARC Basis sets
   Taras Petrenko         : DFT Hessian,TD-DFT gradient, ASA, ECA, R-Raman, ABS, FL, XAS/XES, NRVS
   Peter Pinski           : DLPNO-MP2, DLPNO-MP2 Gradient
   Christoph Reimann      : Effective Core Potentials
   Marius Retegan         : Local ZFS, SOC
   Christoph Riplinger    : Optimizer, TS searches, QM/MM, DLPNO-CCSD(T), (RO)-DLPNO pert. Triples
   Tobias Risthaus        : Range-separated hybrids, TD-DFT gradient, RPA, STAB
   Michael Roemelt        : Original ROCIS implementation
   Masaaki Saitow         : Open-shell DLPNO-CCSD energy and density
   Barbara Sandhoefer     : DKH picture change effects
   Avijit Sen             : IP-ROCIS
   Kantharuban Sivalingam : CASSCF convergence, NEVPT2, FIC-MRCI
   Bernardo de Souza      : ESD, SOC TD-DFT
   Georgi Stoychev        : AutoAux, RI-MP2 NMR
   Willem Van den Heuvel  : Paramagnetic NMR
   Boris Wezisla          : Elementary symmetry handling
   Frank Wennmohs         : Technical directorship


 We gratefully acknowledge several colleagues who have allowed us to
 interface, adapt or use parts of their codes:
   Stefan Grimme, W. Hujo, H. Kruse,             : VdW corrections, initial TS optimization,
                  C. Bannwarth                     DFT functionals, gCP, sTDA/sTD-DF
   Ed Valeev, F. Pavosevic, A. Kumar             : LibInt (2-el integral package), F12 methods
   Garnet Chan, S. Sharma, J. Yang, R. Olivares  : DMRG
   Ulf Ekstrom                                   : XCFun DFT Library
   Mihaly Kallay                                 : mrcc  (arbitrary order and MRCC methods)
   Andreas Klamt, Michael Diedenhofen            : otool_cosmo (COSMO solvation model)
   Jiri Pittner, Ondrej Demel                    : Mk-CCSD
   Frank Weinhold                                : gennbo (NPA and NBO analysis)
   Christopher J. Cramer and Donald G. Truhlar   : smd solvation model
   Lars Goerigk                                  : TD-DFT with DH, B97 family of functionals
   V. Asgeirsson, H. Jonsson                     : NEB implementation
   FAccTs GmbH                                   : IRC, NEB, NEB-TS, Multilevel, MM, QM/MM, CI optimization
   S Lehtola, MJT Oliveira, MAL Marques          : LibXC Library


 Your calculation uses the libint2 library for the computation of 2-el integrals
 For citations please refer to: http://libint.valeyev.net

 Your ORCA version has been built with support for libXC version: 4.2.3
 For citations please refer to: https://tddft.org/programs/libxc/

 This ORCA versions uses:
   CBLAS   interface :  Fast vector & matrix operations
   LAPACKE interface :  Fast linear algebra routines
   SCALAPACK package :  Parallel linear algebra routines




***************************************
The coordinates will be read from file: 32.xyz
***************************************


Your calculation utilizes the atom-pairwise dispersion correction
with the Becke-Johnson damping scheme (D3BJ)
Cite in your paper:
S.Grimme, S.Ehrlich, L.Goerigk, J Comput Chem, (2011), 32, 1456–1465 
S.Grimme, J.Antony, S.Ehrlich and H.Krieg, J.Chem.Phys., 132, (2010), 154104 
   

----- Orbital basis set information -----
Your calculation utilizes the basis: def2-TZVP
   F. Weigend and R. Ahlrichs, Phys. Chem. Chem. Phys. 7, 3297 (2005).

----- AuxJ basis set information -----
Your calculation utilizes the auxiliary basis: def2/J
   F. Weigend, Phys. Chem. Chem. Phys. 8, 1057 (2006).

================================================================================
                                        WARNINGS
                       Please study these warnings very carefully!
================================================================================


WARNING: Geometry Optimization
  ===> : Switching off AutoStart
         For restart on a previous wavefunction, please use MOREAD

INFO   : the flag for use of LIBINT has been found!

================================================================================
                                       INPUT FILE
================================================================================
NAME = 32.inp
|  1> !RI BP86 def2-tzvp def2/J D3BJ TIGHTSCF TightOpt Grid5 FinalGrid6 freq
|  2> %maxcore 4000
|  3> %pal nprocs 24
|  4> end
|  5> * xyzfile 0 1 32.xyz 
|  6> 
|  7>                          ****END OF INPUT****
================================================================================

                       *****************************
                       * Geometry Optimization Run *
                       *****************************

Geometry optimization settings:
Update method            Update   .... BFGS
Choice of coordinates    CoordSys .... Z-matrix Internals
Initial Hessian          InHess   .... Almoef's Model

Convergence Tolerances:
Energy Change            TolE     ....  1.0000e-06 Eh
Max. Gradient            TolMAXG  ....  1.0000e-04 Eh/bohr
RMS Gradient             TolRMSG  ....  3.0000e-05 Eh/bohr
Max. Displacement        TolMAXD  ....  1.0000e-03 bohr
RMS Displacement         TolRMSD  ....  6.0000e-04 bohr
Strict Convergence                ....  False
------------------------------------------------------------------------------
                        ORCA OPTIMIZATION COORDINATE SETUP
------------------------------------------------------------------------------

The optimization will be done in new redundant internal coordinates
Making redundant internal coordinates   ...  (new redundants) done
Evaluating the initial hessian          ...  (Almloef) done
Evaluating the coordinates              ...  done
Calculating the B-matrix                .... done
Calculating the G-matrix                .... done
Diagonalizing the G-matrix              .... done
Small eigenvalue found = 6.549e-04
Small eigenvalue found = 1.505e-03
Small eigenvalue found = 3.886e-03
Small eigenvalue found = 4.849e-03
Small eigenvalue found = 5.635e-03
Small eigenvalue found = 6.395e-03
Small eigenvalue found = 8.463e-03
Small eigenvalue found = 9.641e-03
Small eigenvalue found = 1.181e-02
Small eigenvalue found = 1.225e-02
Small eigenvalue found = 1.390e-02
Small eigenvalue found = 1.709e-02
Small eigenvalue found = 1.904e-02
Small eigenvalue found = 1.987e-02
Small eigenvalue found = 2.204e-02
Small eigenvalue found = 2.242e-02
The first mode is                       ....  329
The number of degrees of freedom        ....  339

    -----------------------------------------------------------------
                    Redundant Internal Coordinates


    -----------------------------------------------------------------
         Definition                    Initial Value    Approx d2E/dq
    -----------------------------------------------------------------
      1. B(C   1,O   0)                  1.2526         0.927176   
      2. B(C   2,C   1)                  1.5360         0.365461   
      3. B(C   3,C   2)                  1.5315         0.371587   
      4. B(C   4,C   3)                  1.5367         0.364470   
      5. B(C   5,C   4)                  1.5338         0.368376   
      6. B(N   6,C   5)                  1.4732         0.412285   
      7. B(N   6,C   2)                  1.4763         0.407611   
      8. B(C   7,N   6)                  1.3679         0.606859   
      9. B(O   8,C   7)                  1.2324         0.998452   
     10. B(N   9,C   1)                  1.3406         0.670907   
     11. B(C  10,N   9)                  1.4730         0.412535   
     12. B(C  11,C  10)                  1.5422         0.357217   
     13. B(N  12,C  11)                  1.3608         0.623042   
     14. B(C  13,N  12)                  1.4640         0.426344   
     15. B(C  14,C  13)                  1.5454         0.353084   
     16. B(N  15,C  14)                  1.3599         0.624972   
     17. B(C  16,N  15)                  1.4547         0.441252   
     18. B(C  17,C  16)                  1.5295         0.374270   
     19. B(C  18,C  17)                  1.5414         0.358237   
     20. B(C  19,C  18)                  1.5309         0.372381   
     21. B(N  20,C  19)                  1.3630         0.617933   
     22. B(C  21,N  20)                  1.4590         0.434279   
     23. B(C  22,C  21)                  1.5372         0.363831   
     24. B(N  23,C  22)                  1.3617         0.620824   
     25. B(C  24,C   7)                  1.5502         0.346836   
     26. B(C  24,N  23)                  1.4686         0.419272   
     27. B(C  25,C  24)                  1.5250         0.380454   
     28. B(O  26,C  22)                  1.2314         1.002040   
     29. B(C  27,C  21)                  1.5456         0.352782   
     30. B(C  28,C  27)                  1.5389         0.361568   
     31. B(C  29,C  28)                  1.5320         0.370808   
     32. B(C  30,C  28)                  1.5324         0.370266   
     33. B(O  31,C  19)                  1.2359         0.985833   
     34. B(C  32,C  18)                  1.5477         0.350031   
     35. B(C  33,C  32)                  1.5068         0.406794   
     36. B(C  34,C  33)                  1.5233         0.382947   
     37. B(C  35,C  34)                  1.5300         0.373508   
     38. B(C  36,C  35)                  1.5296         0.374193   
     39. B(C  37,C  36)                  1.5302         0.373344   
     40. B(C  38,C  37)                  1.5302         0.373244   
     41. B(C  39,C  38)                  1.5302         0.373357   
     42. B(C  40,C  39)                  1.5310         0.372209   
     43. B(C  41,C  40)                  1.5298         0.373783   
     44. B(O  42,C  32)                  1.2198         1.045617   
     45. B(O  43,C  17)                  1.4294         0.484226   
     46. B(O  44,C  14)                  1.2349         0.989199   
     47. B(C  45,C  13)                  1.5257         0.379501   
     48. B(C  46,C  45)                  1.5285         0.375654   
     49. B(O  47,C  11)                  1.2359         0.985769   
     50. B(C  48,C  10)                  1.5428         0.356445   
     51. B(C  49,C  48)                  1.5338         0.368426   
     52. B(C  50,C  48)                  1.5321         0.370712   
     53. B(H  51,C   2)                  1.0983         0.349228   
     54. B(H  52,C   3)                  1.0995         0.347782   
     55. B(H  53,C   3)                  1.0961         0.352171   
     56. B(H  54,C   4)                  1.0970         0.350962   
     57. B(H  55,C   4)                  1.0972         0.350725   
     58. B(H  56,C   5)                  1.0960         0.352203   
     59. B(H  57,C   5)                  1.1036         0.342581   
     60. B(H  58,N   9)                  1.0219         0.414274   
     61. B(H  59,C  10)                  1.1037         0.342472   
     62. B(H  60,N  12)                  1.0254         0.408896   
     63. B(H  61,C  13)                  1.1008         0.346145   
     64. B(H  62,N  15)                  1.0235         0.411823   
     65. B(H  63,C  16)                  1.0973         0.350569   
     66. B(H  64,C  16)                  1.0994         0.347860   
     67. B(H  65,C  17)                  1.1030         0.343260   
     68. B(H  66,C  18)                  1.1003         0.346782   
     69. B(H  67,H  59)                  2.5171         0.000364   
     70. B(H  67,N  20)                  1.0254         0.408912   
     71. B(H  68,C  21)                  1.1050         0.340816   
     72. B(H  69,N  23)                  1.0133         0.427488   
     73. B(H  70,C  24)                  1.1027         0.343687   
     74. B(H  71,C  25)                  1.0981         0.349546   
     75. B(H  72,C  25)                  1.0970         0.351022   
     76. B(H  73,C  25)                  1.0955         0.352899   
     77. B(H  74,C  27)                  1.1062         0.339304   
     78. B(H  75,C  27)                  1.0991         0.348261   
     79. B(H  76,C  28)                  1.1042         0.341772   
     80. B(H  77,C  29)                  1.0993         0.348011   
     81. B(H  78,C  29)                  1.1022         0.344359   
     82. B(H  79,C  29)                  1.0994         0.347926   
     83. B(H  80,C  30)                  1.0990         0.348398   
     84. B(H  81,C  30)                  1.0992         0.348118   
     85. B(H  82,H  56)                  4.2154         0.000001   
     86. B(H  82,C  30)                  1.1043         0.341641   
     87. B(H  83,O   0)                  2.3874         0.002745   
     88. B(H  83,C  33)                  1.1021         0.344478   
     89. B(H  84,C  33)                  1.1082         0.336779   
     90. B(H  85,C  34)                  1.1006         0.346385   
     91. B(H  86,C  34)                  1.1029         0.343400   
     92. B(H  87,C  35)                  1.1055         0.340166   
     93. B(H  88,C  35)                  1.1039         0.342178   
     94. B(H  89,C  36)                  1.1039         0.342212   
     95. B(H  90,C  36)                  1.1045         0.341408   
     96. B(H  91,H  55)                  4.2610         0.000001   
     97. B(H  91,C  37)                  1.1049         0.340897   
     98. B(H  92,C  37)                  1.1043         0.341674   
     99. B(H  93,C  38)                  1.1042         0.341804   
    100. B(H  94,C  38)                  1.1045         0.341433   
    101. B(H  95,C  39)                  1.1048         0.341008   
    102. B(H  96,C  39)                  1.1045         0.341373   
    103. B(H  97,C  40)                  1.1033         0.342913   
    104. B(H  98,C  40)                  1.1035         0.342723   
    105. B(H  99,C  41)                  1.0994         0.347815   
    106. B(H 100,C  41)                  1.1007         0.346180   
    107. B(H 101,C  41)                  1.1008         0.346031   
    108. B(H 102,O  43)                  0.9792         0.484556   
    109. B(H 103,C  45)                  1.0995         0.347688   
    110. B(H 104,H  88)                  4.0756         0.000001   
    111. B(H 104,C  45)                  1.1012         0.345539   
    112. B(H 105,C  46)                  1.0988         0.348622   
    113. B(H 106,C  46)                  1.1003         0.346693   
    114. B(H 107,H  53)                  4.3728         0.000000   
    115. B(H 107,C  46)                  1.0994         0.347854   
    116. B(H 108,C  48)                  1.1025         0.343897   
    117. B(H 109,C  49)                  1.1015         0.345200   
    118. B(H 110,C  49)                  1.0975         0.350331   
    119. B(H 111,C  49)                  1.0990         0.348390   
    120. B(H 112,H  73)                  4.5712         0.000000   
    121. B(H 112,H 102)                  3.2929         0.000021   
    122. B(H 112,C  50)                  1.0993         0.348043   
    123. B(H 113,C  50)                  1.0997         0.347500   
    124. B(H 114,C  50)                  1.0960         0.352284   
    125. A(O   0,C   1,N   9)          123.1926         0.467477   
    126. A(C   2,C   1,N   9)          115.7527         0.398111   
    127. A(O   0,C   1,C   2)          121.0154         0.421594   
    128. A(C   1,C   2,H  51)          110.4778         0.321533   
    129. A(N   6,C   2,H  51)          109.7631         0.325388   
    130. A(C   1,C   2,N   6)          105.9643         0.365141   
    131. A(C   1,C   2,C   3)          113.0416         0.361662   
    132. A(C   3,C   2,H  51)          113.2191         0.322410   
    133. A(C   3,C   2,N   6)          103.8809         0.366182   
    134. A(C   4,C   3,H  53)          112.4476         0.321832   
    135. A(C   4,C   3,H  52)          110.9123         0.321172   
    136. A(C   2,C   3,C   4)          104.0714         0.361494   
    137. A(C   2,C   3,H  53)          111.8298         0.322853   
    138. A(C   2,C   3,H  52)          109.0575         0.322190   
    139. A(H  52,C   3,H  53)          108.4587         0.288249   
    140. A(H  54,C   4,H  55)          108.5439         0.288474   
    141. A(C   3,C   4,H  55)          112.9961         0.321615   
    142. A(C   3,C   4,C   5)          104.0443         0.360959   
    143. A(C   3,C   4,H  54)          109.3509         0.321651   
    144. A(C   5,C   4,H  55)          111.9374         0.322177   
    145. A(C   5,C   4,H  54)          109.8854         0.322213   
    146. A(H  56,C   5,H  57)          108.3740         0.287575   
    147. A(C   4,C   5,N   6)          104.0570         0.366353   
    148. A(C   4,C   5,H  56)          111.8034         0.322399   
    149. A(N   6,C   5,H  57)          109.6477         0.324970   
    150. A(N   6,C   5,H  56)          111.4404         0.326454   
    151. A(C   4,C   5,H  57)          111.4940         0.320940   
    152. A(C   5,N   6,C   7)          128.3528         0.396974   
    153. A(C   2,N   6,C   7)          119.3643         0.396180   
    154. A(C   2,N   6,C   5)          112.1862         0.370445   
    155. A(O   8,C   7,C  24)          122.1732         0.423236   
    156. A(N   6,C   7,O   8)          121.8818         0.465233   
    157. A(N   6,C   7,C  24)          115.9232         0.387614   
    158. A(C   1,N   9,C  10)          123.6618         0.404091   
    159. A(C  10,N   9,H  58)          115.8212         0.332503   
    160. A(C   1,N   9,H  58)          115.3561         0.360837   
    161. A(C  48,C  10,H  59)          107.3583         0.319202   
    162. A(C  11,C  10,H  59)          105.4512         0.319315   
    163. A(N   9,C  10,C  11)          113.7544         0.364467   
    164. A(N   9,C  10,C  48)          108.5685         0.364332   
    165. A(N   9,C  10,H  59)          106.2743         0.324986   
    166. A(C  11,C  10,C  48)          114.8512         0.357715   
    167. A(N  12,C  11,O  47)          122.5591         0.466387   
    168. A(C  10,C  11,O  47)          122.0815         0.424503   
    169. A(C  10,C  11,N  12)          115.2524         0.391410   
    170. A(C  13,N  12,H  60)          117.3612         0.333600   
    171. A(C  11,N  12,C  13)          121.5913         0.401174   
    172. A(C  11,N  12,H  60)          117.0938         0.355531   
    173. A(C  14,C  13,C  45)          112.1591         0.360837   
    174. A(N  12,C  13,H  61)          105.9611         0.327326   
    175. A(C  14,C  13,H  61)          108.9116         0.319264   
    176. A(N  12,C  13,C  14)          107.9832         0.365797   
    177. A(C  45,C  13,H  61)          110.7126         0.323055   
    178. A(N  12,C  13,C  45)          110.8788         0.370355   
    179. A(C  13,C  14,N  15)          113.7068         0.390826   
    180. A(N  15,C  14,O  44)          124.0166         0.466948   
    181. A(C  13,C  14,O  44)          122.1885         0.423883   
    182. A(C  14,N  15,H  62)          117.7061         0.356149   
    183. A(C  16,N  15,H  62)          118.2948         0.335909   
    184. A(C  14,N  15,C  16)          121.9775         0.403832   
    185. A(H  63,C  16,H  64)          108.7106         0.288054   
    186. A(C  17,C  16,H  64)          108.0428         0.322582   
    187. A(N  15,C  16,H  63)          107.3524         0.329878   
    188. A(C  17,C  16,H  63)          110.5218         0.322993   
    189. A(N  15,C  16,C  17)          112.4951         0.371662   
    190. A(N  15,C  16,H  64)          109.6625         0.329456   
    191. A(O  43,C  17,H  65)          110.8422         0.333828   
    192. A(C  18,C  17,H  65)          107.6184         0.319583   
    193. A(C  16,C  17,H  65)          108.2282         0.321880   
    194. A(C  16,C  17,C  18)          112.2862         0.360875   
    195. A(C  18,C  17,O  43)          111.0495         0.374825   
    196. A(C  16,C  17,O  43)          106.8124         0.377671   
    197. A(C  19,C  18,H  66)          108.3490         0.322151   
    198. A(C  17,C  18,H  66)          110.2290         0.320117   
    199. A(C  17,C  18,C  32)          111.8410         0.356786   
    200. A(C  17,C  18,C  19)          110.3658         0.360564   
    201. A(C  19,C  18,C  32)          107.1597         0.359143   
    202. A(C  32,C  18,H  66)          108.7809         0.318908   
    203. A(C  18,C  19,N  20)          114.5671         0.393701   
    204. A(N  20,C  19,O  31)          122.7372         0.465690   
    205. A(C  18,C  19,O  31)          122.6451         0.427679   
    206. A(C  19,N  20,H  67)          118.2340         0.355037   
    207. A(C  19,N  20,C  21)          120.3853         0.401896   
    208. A(C  21,N  20,H  67)          119.3872         0.334625   
    209. A(C  27,C  21,H  68)          107.8252         0.318413   
    210. A(C  22,C  21,H  68)          106.1110         0.320019   
    211. A(N  20,C  21,H  68)          104.5863         0.327484   
    212. A(N  20,C  21,C  22)          106.5796         0.368847   
    213. A(C  22,C  21,C  27)          118.9056         0.358203   
    214. A(N  20,C  21,C  27)          111.7945         0.366901   
    215. A(C  21,C  22,N  23)          118.4771         0.392423   
    216. A(C  21,C  22,O  26)          120.0875         0.427149   
    217. A(N  23,C  22,O  26)          121.3914         0.467483   
    218. A(C  22,N  23,C  24)          121.6165         0.399744   
    219. A(C  24,N  23,H  69)          119.0858         0.335141   
    220. A(C  22,N  23,H  69)          119.2620         0.358010   
    221. A(C  25,C  24,H  70)          109.7216         0.322811   
    222. A(N  23,C  24,H  70)          105.7537         0.326043   
    223. A(C   7,C  24,H  70)          107.8227         0.317966   
    224. A(N  23,C  24,C  25)          112.9574         0.369450   
    225. A(C   7,C  24,N  23)          109.1919         0.363639   
    226. A(C   7,C  24,C  25)          111.1365         0.359895   
    227. A(H  71,C  25,H  73)          109.5298         0.288571   
    228. A(C  24,C  25,H  73)          109.8566         0.324215   
    229. A(H  71,C  25,H  72)          109.1261         0.288330   
    230. A(C  24,C  25,H  72)          110.2644         0.323931   
    231. A(C  24,C  25,H  71)          109.8663         0.323707   
    232. A(H  72,C  25,H  73)          108.1684         0.288761   
    233. A(C  28,C  27,H  75)          107.8400         0.320824   
    234. A(C  21,C  27,C  28)          115.0610         0.357823   
    235. A(H  74,C  27,H  75)          105.0753         0.286639   
    236. A(C  21,C  27,H  75)          106.3178         0.319537   
    237. A(C  28,C  27,H  74)          110.3597         0.319461   
    238. A(C  21,C  27,H  74)          111.5443         0.318182   
    239. A(C  29,C  28,C  30)          110.6604         0.362339   
    240. A(C  27,C  28,C  30)          113.7673         0.360783   
    241. A(C  27,C  28,C  29)          110.0107         0.360873   
    242. A(C  30,C  28,H  76)          107.7109         0.321085   
    243. A(C  29,C  28,H  76)          108.1730         0.321162   
    244. A(C  27,C  28,H  76)          106.2544         0.319840   
    245. A(C  28,C  29,H  79)          111.1654         0.322102   
    246. A(H  78,C  29,H  79)          107.5854         0.287258   
    247. A(H  77,C  29,H  79)          107.9580         0.287732   
    248. A(H  77,C  29,H  78)          107.8097         0.287269   
    249. A(C  28,C  29,H  78)          110.8330         0.321559   
    250. A(C  28,C  29,H  77)          111.3284         0.322115   
    251. A(H  81,C  30,H  82)          106.7149         0.286928   
    252. A(H  80,C  30,H  82)          108.1865         0.286964   
    253. A(C  28,C  30,H  82)          111.0434         0.321065   
    254. A(H  80,C  30,H  81)          107.4345         0.287807   
    255. A(C  28,C  30,H  81)          110.6117         0.322054   
    256. A(C  28,C  30,H  80)          112.6000         0.322096   
    257. A(C  33,C  32,O  42)          123.6302         0.439158   
    258. A(C  18,C  32,O  42)          120.4115         0.427448   
    259. A(C  18,C  32,C  33)          115.9567         0.364602   
    260. A(C  32,C  33,C  34)          115.1359         0.370266   
    261. A(C  34,C  33,H  84)          111.0111         0.322083   
    262. A(H  83,C  33,H  84)          104.3291         0.285818   
    263. A(C  32,C  33,H  84)          105.0523         0.325292   
    264. A(C  34,C  33,H  83)          111.5301         0.323279   
    265. A(C  32,C  33,H  83)          109.0518         0.326504   
    266. A(C  33,C  34,C  35)          111.8539         0.364883   
    267. A(H  85,C  34,H  86)          105.7729         0.286934   
    268. A(C  35,C  34,H  86)          109.8702         0.321794   
    269. A(C  33,C  34,H  86)          109.5303         0.323112   
    270. A(C  35,C  34,H  85)          110.1588         0.322250   
    271. A(C  33,C  34,H  85)          109.4716         0.323572   
    272. A(C  34,C  35,C  36)          113.5579         0.363443   
    273. A(H  87,C  35,H  88)          105.8007         0.285965   
    274. A(C  36,C  35,H  88)          109.4112         0.321702   
    275. A(C  34,C  35,H  88)          109.2460         0.321606   
    276. A(C  36,C  35,H  87)          109.2244         0.321392   
    277. A(C  34,C  35,H  87)          109.3094         0.321296   
    278. A(C  35,C  36,C  37)          113.4400         0.363416   
    279. A(H  89,C  36,H  90)          105.8733         0.286132   
    280. A(C  37,C  36,H  90)          109.3384         0.321464   
    281. A(C  35,C  36,H  90)          109.3486         0.321584   
    282. A(C  37,C  36,H  89)          109.3481         0.321588   
    283. A(C  35,C  36,H  89)          109.2146         0.321708   
    284. A(C  36,C  37,C  38)          113.6071         0.363258   
    285. A(H  91,C  37,H  92)          105.8686         0.285995   
    286. A(C  38,C  37,H  92)          109.2791         0.321491   
    287. A(C  36,C  37,H  92)          109.2508         0.321505   
    288. A(C  38,C  37,H  91)          109.2610         0.321371   
    289. A(C  36,C  37,H  91)          109.2847         0.321385   
    290. A(C  37,C  38,C  39)          113.5766         0.363260   
    291. A(H  93,C  38,H  94)          105.8665         0.286083   
    292. A(C  39,C  38,H  94)          109.3031         0.321470   
    293. A(C  37,C  38,H  94)          109.3058         0.321454   
    294. A(C  39,C  38,H  93)          109.2857         0.321527   
    295. A(C  37,C  38,H  93)          109.2154         0.321511   
    296. A(C  38,C  39,C  40)          113.6143         0.363088   
    297. A(H  95,C  39,H  96)          105.8524         0.285971   
    298. A(C  40,C  39,H  96)          109.2281         0.321299   
    299. A(C  38,C  39,H  96)          109.2977         0.321461   
    300. A(C  40,C  39,H  95)          109.2253         0.321243   
    301. A(C  38,C  39,H  95)          109.3316         0.321405   
    302. A(C  39,C  40,C  41)          113.1509         0.363159   
    303. A(H  97,C  40,H  98)          105.9246         0.286395   
    304. A(C  41,C  40,H  98)          109.6440         0.321729   
    305. A(C  39,C  40,H  98)          109.1358         0.321506   
    306. A(C  41,C  40,H  97)          109.6303         0.321758   
    307. A(C  39,C  40,H  97)          109.0983         0.321536   
    308. A(H 100,C  41,H 101)          107.4383         0.287250   
    309. A(H  99,C  41,H 101)          107.6839         0.287462   
    310. A(C  40,C  41,H 101)          111.0989         0.322235   
    311. A(H  99,C  41,H 100)          107.6800         0.287481   
    312. A(C  40,C  41,H 100)          111.0819         0.322258   
    313. A(C  40,C  41,H  99)          111.6648         0.322507   
    314. A(C  17,O  43,H 102)          104.9490         0.350613   
    315. A(C  13,C  45,C  46)          112.6654         0.364677   
    316. A(C  46,C  45,H 104)          110.9558         0.322424   
    317. A(C  13,C  45,H 104)          108.7776         0.322963   
    318. A(C  46,C  45,H 103)          110.7749         0.322751   
    319. A(C  13,C  45,H 103)          107.8880         0.323291   
    320. A(H 103,C  45,H 104)          105.4752         0.287381   
    321. A(H 106,C  46,H 107)          107.4405         0.287552   
    322. A(H 105,C  46,H 107)          107.9728         0.287802   
    323. A(C  45,C  46,H 107)          111.2664         0.322777   
    324. A(H 105,C  46,H 106)          107.7841         0.287652   
    325. A(C  45,C  46,H 106)          111.2101         0.322600   
    326. A(C  45,C  46,H 105)          110.9992         0.322893   
    327. A(C  50,C  48,H 108)          106.9688         0.321474   
    328. A(C  49,C  48,H 108)          108.6839         0.321149   
    329. A(C  10,C  48,H 108)          103.9714         0.319418   
    330. A(C  49,C  48,C  50)          112.3655         0.362015   
    331. A(C  10,C  48,C  50)          111.4286         0.359980   
    332. A(C  10,C  48,C  49)          112.8651         0.359601   
    333. A(H 110,C  49,H 111)          108.4048         0.288092   
    334. A(H 109,C  49,H 111)          107.1611         0.287428   
    335. A(C  48,C  49,H 111)          110.0272         0.321832   
    336. A(H 109,C  49,H 110)          108.1039         0.287677   
    337. A(C  48,C  49,H 110)          110.7652         0.322125   
    338. A(C  48,C  49,H 109)          112.2328         0.321348   
    339. A(H 113,C  50,H 114)          108.7347         0.288227   
    340. A(H 112,C  50,H 114)          108.6020         0.288297   
    341. A(C  48,C  50,H 114)          111.2332         0.322746   
    342. A(H 112,C  50,H 113)          107.9398         0.287681   
    343. A(C  48,C  50,H 113)          109.7941         0.322023   
    344. A(C  48,C  50,H 112)          110.4552         0.322106   
    345. D(H  51,C   2,C   1,N   9)    -25.2909         0.010020   
    346. D(C   3,C   2,C   1,N   9)   -153.3275         0.010020   
    347. D(N   6,C   2,C   1,N   9)     93.5415         0.010020   
    348. D(N   6,C   2,C   1,O   0)    -84.2493         0.010020   
    349. D(C   3,C   2,C   1,O   0)     28.8817         0.010020   
    350. D(H  51,C   2,C   1,O   0)    156.9183         0.010020   
    351. D(C   4,C   3,C   2,N   6)     28.3651         0.011032   
    352. D(H  53,C   3,C   2,H  51)    -90.9893         0.011032   
    353. D(H  53,C   3,C   2,C   1)     35.6050         0.011032   
    354. D(C   4,C   3,C   2,H  51)    147.3785         0.011032   
    355. D(H  53,C   3,C   2,N   6)    149.9973         0.011032   
    356. D(H  52,C   3,C   2,H  51)     28.9601         0.011032   
    357. D(C   4,C   3,C   2,C   1)    -86.0271         0.011032   
    358. D(H  52,C   3,C   2,C   1)    155.5545         0.011032   
    359. D(H  52,C   3,C   2,N   6)    -90.0532         0.011032   
    360. D(H  55,C   4,C   3,H  53)     82.4085         0.010639   
    361. D(H  55,C   4,C   3,H  52)    -39.2329         0.010639   
    362. D(H  54,C   4,C   3,H  52)   -160.2449         0.010639   
    363. D(H  55,C   4,C   3,C   2)   -156.3707         0.010639   
    364. D(H  54,C   4,C   3,H  53)    -38.6035         0.010639   
    365. D(C   5,C   4,C   3,C   2)    -34.7353         0.010639   
    366. D(H  54,C   4,C   3,C   2)     82.6173         0.010639   
    367. D(C   5,C   4,C   3,H  53)   -155.9561         0.010639   
    368. D(C   5,C   4,C   3,H  52)     82.4025         0.010639   
    369. D(N   6,C   5,C   4,C   3)     27.3853         0.010854   
    370. D(H  57,C   5,C   4,C   3)    -90.7218         0.010854   
    371. D(H  56,C   5,C   4,H  55)    -89.8796         0.010854   
    372. D(H  56,C   5,C   4,C   3)    147.7840         0.010854   
    373. D(H  57,C   5,C   4,H  54)    152.2968         0.010854   
    374. D(H  56,C   5,C   4,H  54)     30.8026         0.010854   
    375. D(H  57,C   5,C   4,H  55)     31.6146         0.010854   
    376. D(N   6,C   5,C   4,H  54)    -89.5961         0.010854   
    377. D(N   6,C   5,C   4,H  55)    149.7217         0.010854   
    378. D(C   5,N   6,C   2,C   3)    -11.6267         0.014176   
    379. D(C   7,N   6,C   5,H  57)    -66.9496         0.014499   
    380. D(C   7,N   6,C   5,H  56)     53.0369         0.014499   
    381. D(C   7,N   6,C   5,C   4)    173.6796         0.014499   
    382. D(C   2,N   6,C   5,H  57)    109.4049         0.014499   
    383. D(C   2,N   6,C   5,H  56)   -130.6086         0.014499   
    384. D(C   7,N   6,C   2,H  51)     43.7401         0.014176   
    385. D(C   2,N   6,C   5,C   4)     -9.9659         0.014499   
    386. D(C   7,N   6,C   2,C   3)    165.0934         0.014176   
    387. D(C   5,N   6,C   2,C   1)    107.7165         0.014176   
    388. D(C   7,N   6,C   2,C   1)    -75.5634         0.014176   
    389. D(C   5,N   6,C   2,H  51)   -132.9800         0.014176   
    390. D(C  24,C   7,N   6,C   5)    -18.6477         0.029724   
    391. D(C  24,C   7,N   6,C   2)    165.2259         0.029724   
    392. D(O   8,C   7,N   6,C   5)    163.0176         0.029724   
    393. D(O   8,C   7,N   6,C   2)    -13.1088         0.029724   
    394. D(H  58,N   9,C   1,O   0)    168.2295         0.036944   
    395. D(C  10,N   9,C   1,C   2)   -162.9769         0.036944   
    396. D(H  58,N   9,C   1,C   2)     -9.5079         0.036944   
    397. D(C  10,N   9,C   1,O   0)     14.7606         0.036944   
    398. D(H  59,C  10,N   9,C   1)     33.3094         0.014516   
    399. D(C  48,C  10,N   9,H  58)     -4.8382         0.014516   
    400. D(C  48,C  10,N   9,C   1)    148.5193         0.014516   
    401. D(C  11,C  10,N   9,C   1)    -82.2666         0.014516   
    402. D(H  59,C  10,N   9,H  58)   -120.0481         0.014516   
    403. D(C  11,C  10,N   9,H  58)    124.3759         0.014516   
    404. D(O  47,C  11,C  10,N   9)   -149.0311         0.009608   
    405. D(N  12,C  11,C  10,H  59)    -81.4188         0.009608   
    406. D(N  12,C  11,C  10,C  48)    160.6027         0.009608   
    407. D(N  12,C  11,C  10,N   9)     34.6405         0.009608   
    408. D(O  47,C  11,C  10,H  59)     94.9095         0.009608   
    409. D(O  47,C  11,C  10,C  48)    -23.0689         0.009608   
    410. D(H  60,N  12,C  11,O  47)   -161.8035         0.031457   
    411. D(H  60,N  12,C  11,C  10)     14.5054         0.031457   
    412. D(C  13,N  12,C  11,O  47)     -4.7762         0.031457   
    413. D(C  13,N  12,C  11,C  10)    171.5327         0.031457   
    414. D(H  61,C  13,N  12,C  11)     27.8378         0.015497   
    415. D(H  61,C  13,N  12,H  60)   -175.1933         0.015497   
    416. D(C  45,C  13,N  12,H  60)    -55.0071         0.015497   
    417. D(C  45,C  13,N  12,C  11)    148.0240         0.015497   
    418. D(C  14,C  13,N  12,C  11)    -88.7300         0.015497   
    419. D(C  14,C  13,N  12,H  60)     68.2389         0.015497   
    420. D(O  44,C  14,C  13,C  45)     13.6663         0.009405   
    421. D(O  44,C  14,C  13,N  12)   -108.7981         0.009405   
    422. D(N  15,C  14,C  13,H  61)    -46.7170         0.009405   
    423. D(N  15,C  14,C  13,C  45)   -169.6191         0.009405   
    424. D(O  44,C  14,C  13,H  61)    136.5684         0.009405   
    425. D(N  15,C  14,C  13,N  12)     67.9165         0.009405   
    426. D(H  62,N  15,C  14,O  44)    175.0340         0.031668   
    427. D(H  62,N  15,C  14,C  13)     -1.6115         0.031668   
    428. D(C  16,N  15,C  14,O  44)     11.4909         0.031668   
    429. D(C  16,N  15,C  14,C  13)   -165.1546         0.031668   
    430. D(H  64,C  16,N  15,H  62)     63.0528         0.016603   
    431. D(H  64,C  16,N  15,C  14)   -133.4969         0.016603   
    432. D(H  63,C  16,N  15,H  62)   -179.0075         0.016603   
    433. D(H  63,C  16,N  15,C  14)    -15.5571         0.016603   
    434. D(C  17,C  16,N  15,C  14)    106.2407         0.016603   
    435. D(C  17,C  16,N  15,H  62)    -57.2096         0.016603   
    436. D(H  65,C  17,C  16,H  64)     62.3684         0.011183   
    437. D(H  65,C  17,C  16,H  63)    -56.4590         0.011183   
    438. D(H  65,C  17,C  16,N  15)   -176.4388         0.011183   
    439. D(O  43,C  17,C  16,H  64)    -57.0266         0.011183   
    440. D(O  43,C  17,C  16,H  63)   -175.8540         0.011183   
    441. D(O  43,C  17,C  16,N  15)     64.1662         0.011183   
    442. D(C  18,C  17,C  16,H  64)   -178.9874         0.011183   
    443. D(C  18,C  17,C  16,H  63)     62.1851         0.011183   
    444. D(C  18,C  17,C  16,N  15)    -57.7946         0.011183   
    445. D(H  66,C  18,C  17,H  65)    169.4813         0.010303   
    446. D(H  66,C  18,C  17,O  43)    -69.0376         0.010303   
    447. D(H  66,C  18,C  17,C  16)     50.4787         0.010303   
    448. D(C  32,C  18,C  17,O  43)    169.8081         0.010303   
    449. D(C  32,C  18,C  17,C  16)    -70.6756         0.010303   
    450. D(C  32,C  18,C  17,H  65)     48.3270         0.010303   
    451. D(C  19,C  18,C  17,H  65)    -70.8710         0.010303   
    452. D(C  19,C  18,C  17,O  43)     50.6100         0.010303   
    453. D(C  19,C  18,C  17,C  16)    170.1264         0.010303   
    454. D(O  31,C  19,C  18,H  66)    139.9717         0.010375   
    455. D(O  31,C  19,C  18,C  32)   -102.8081         0.010375   
    456. D(O  31,C  19,C  18,C  17)     19.1941         0.010375   
    457. D(N  20,C  19,C  18,H  66)    -42.5527         0.010375   
    458. D(N  20,C  19,C  18,C  17)   -163.3303         0.010375   
    459. D(N  20,C  19,C  18,C  32)     74.6676         0.010375   
    460. D(H  67,N  20,C  19,O  31)   -165.9004         0.030904   
    461. D(H  67,N  20,C  19,C  18)     16.6266         0.030904   
    462. D(C  21,N  20,C  19,O  31)     -2.0562         0.030904   
    463. D(C  21,N  20,C  19,C  18)   -179.5292         0.030904   
    464. D(H  68,C  21,N  20,H  67)    148.4101         0.016080   
    465. D(H  68,C  21,N  20,C  19)    -15.2493         0.016080   
    466. D(C  27,C  21,N  20,H  67)    -95.1850         0.016080   
    467. D(C  27,C  21,N  20,C  19)    101.1556         0.016080   
    468. D(C  22,C  21,N  20,H  67)     36.2835         0.016080   
    469. D(C  22,C  21,N  20,C  19)   -127.3759         0.016080   
    470. D(N  23,C  22,C  21,C  27)     -6.5172         0.009937   
    471. D(N  23,C  22,C  21,N  20)   -133.8833         0.009937   
    472. D(O  26,C  22,C  21,H  68)    -67.3305         0.009937   
    473. D(O  26,C  22,C  21,C  27)    171.1050         0.009937   
    474. D(O  26,C  22,C  21,N  20)     43.7389         0.009937   
    475. D(N  23,C  22,C  21,H  68)    115.0473         0.009937   
    476. D(H  69,N  23,C  22,O  26)    175.6819         0.031216   
    477. D(H  69,N  23,C  22,C  21)     -6.7283         0.031216   
    478. D(C  24,N  23,C  22,O  26)     -6.5101         0.031216   
    479. D(C  24,N  23,C  22,C  21)    171.0797         0.031216   
    480. D(H  70,C  24,N  23,H  69)     16.4129         0.014990   
    481. D(H  70,C  24,N  23,C  22)   -161.3988         0.014990   
    482. D(C  25,C  24,N  23,H  69)   -103.6054         0.014990   
    483. D(C  25,C  24,N  23,C  22)     78.5828         0.014990   
    484. D(C   7,C  24,N  23,H  69)    132.1934         0.014990   
    485. D(C   7,C  24,N  23,C  22)    -45.6183         0.014990   
    486. D(H  70,C  24,C   7,O   8)   -120.9885         0.009105   
    487. D(H  70,C  24,C   7,N   6)     60.6822         0.009105   
    488. D(C  25,C  24,C   7,O   8)     -0.7021         0.009105   
    489. D(C  25,C  24,C   7,N   6)   -179.0314         0.009105   
    490. D(N  23,C  24,C   7,O   8)    124.5627         0.009105   
    491. D(N  23,C  24,C   7,N   6)    -53.7666         0.009105   
    492. D(H  73,C  25,C  24,H  70)   -179.6394         0.011535   
    493. D(H  73,C  25,C  24,N  23)    -61.9240         0.011535   
    494. D(H  73,C  25,C  24,C   7)     61.2049         0.011535   
    495. D(H  72,C  25,C  24,H  70)     61.2347         0.011535   
    496. D(H  72,C  25,C  24,N  23)    178.9502         0.011535   
    497. D(H  72,C  25,C  24,C   7)    -57.9210         0.011535   
    498. D(H  71,C  25,C  24,H  70)    -59.0815         0.011535   
    499. D(H  71,C  25,C  24,N  23)     58.6340         0.011535   
    500. D(H  71,C  25,C  24,C   7)   -178.2372         0.011535   
    501. D(H  75,C  27,C  21,H  68)     95.0480         0.010015   
    502. D(H  75,C  27,C  21,C  22)   -144.2536         0.010015   
    503. D(H  75,C  27,C  21,N  20)    -19.3754         0.010015   
    504. D(H  74,C  27,C  21,H  68)   -150.9391         0.010015   
    505. D(H  74,C  27,C  21,C  22)    -30.2406         0.010015   
    506. D(H  74,C  27,C  21,N  20)     94.6375         0.010015   
    507. D(C  28,C  27,C  21,H  68)    -24.2459         0.010015   
    508. D(C  28,C  27,C  21,C  22)     96.4526         0.010015   
    509. D(C  28,C  27,C  21,N  20)   -138.6693         0.010015   
    510. D(H  76,C  28,C  27,H  75)    -63.7149         0.010482   
    511. D(H  76,C  28,C  27,H  74)   -177.9741         0.010482   
    512. D(H  76,C  28,C  27,C  21)     54.7307         0.010482   
    513. D(C  30,C  28,C  27,H  75)    177.9493         0.010482   
    514. D(C  30,C  28,C  27,H  74)     63.6901         0.010482   
    515. D(C  30,C  28,C  27,C  21)    -63.6052         0.010482   
    516. D(C  29,C  28,C  27,H  75)     53.1523         0.010482   
    517. D(C  29,C  28,C  27,H  74)    -61.1068         0.010482   
    518. D(C  29,C  28,C  27,C  21)    171.5979         0.010482   
    519. D(H  79,C  29,C  28,C  30)     56.5048         0.010989   
    520. D(H  79,C  29,C  28,C  27)   -176.9311         0.010989   
    521. D(H  78,C  29,C  28,H  76)    179.1293         0.010989   
    522. D(H  78,C  29,C  28,C  30)    -63.0975         0.010989   
    523. D(H  78,C  29,C  28,C  27)     63.4666         0.010989   
    524. D(H  77,C  29,C  28,H  76)     59.1365         0.010989   
    525. D(H  77,C  29,C  28,C  30)    176.9097         0.010989   
    526. D(H  79,C  29,C  28,H  76)    -61.2684         0.010989   
    527. D(H  77,C  29,C  28,C  27)    -56.5261         0.010989   
    528. D(H  82,C  30,C  28,H  76)    177.8694         0.010959   
    529. D(H  82,C  30,C  28,C  29)     59.8139         0.010959   
    530. D(H  82,C  30,C  28,C  27)    -64.6343         0.010959   
    531. D(H  81,C  30,C  28,H  76)     59.5792         0.010959   
    532. D(H  81,C  30,C  28,C  29)    -58.4764         0.010959   
    533. D(H  81,C  30,C  28,C  27)    177.0755         0.010959   
    534. D(H  80,C  30,C  28,H  76)    -60.6387         0.010959   
    535. D(H  80,C  30,C  28,C  29)   -178.6943         0.010959   
    536. D(H  80,C  30,C  28,C  27)     56.8576         0.010959   
    537. D(O  42,C  32,C  18,H  66)   -166.5180         0.009258   
    538. D(O  42,C  32,C  18,C  19)     76.5455         0.009258   
    539. D(O  42,C  32,C  18,C  17)    -44.5289         0.009258   
    540. D(C  33,C  32,C  18,H  66)     13.0353         0.009258   
    541. D(C  33,C  32,C  18,C  19)   -103.9012         0.009258   
    542. D(C  33,C  32,C  18,C  17)    135.0243         0.009258   
    543. D(H  84,C  33,C  32,O  42)    109.2196         0.012264   
    544. D(H  84,C  33,C  32,C  18)    -70.3177         0.012264   
    545. D(H  83,C  33,C  32,O  42)   -139.4340         0.012264   
    546. D(H  83,C  33,C  32,C  18)     41.0287         0.012264   
    547. D(C  34,C  33,C  32,O  42)    -13.2129         0.012264   
    548. D(C  34,C  33,C  32,C  18)    167.2498         0.012264   
    549. D(H  86,C  34,C  33,H  84)   -176.1004         0.011679   
    550. D(H  86,C  34,C  33,H  83)     68.0168         0.011679   
    551. D(H  86,C  34,C  33,C  32)    -56.9234         0.011679   
    552. D(H  85,C  34,C  33,H  84)    -60.5484         0.011679   
    553. D(H  85,C  34,C  33,H  83)   -176.4313         0.011679   
    554. D(H  85,C  34,C  33,C  32)     58.6285         0.011679   
    555. D(C  35,C  34,C  33,H  84)     61.8383         0.011679   
    556. D(C  35,C  34,C  33,H  83)    -54.0445         0.011679   
    557. D(C  35,C  34,C  33,C  32)   -178.9847         0.011679   
    558. D(H  88,C  35,C  34,H  86)    179.9939         0.011140   
    559. D(H  88,C  35,C  34,H  85)     63.8535         0.011140   
    560. D(H  88,C  35,C  34,C  33)    -58.1399         0.011140   
    561. D(H  87,C  35,C  34,H  86)    -64.6697         0.011140   
    562. D(H  87,C  35,C  34,H  85)    179.1899         0.011140   
    563. D(H  87,C  35,C  34,C  33)     57.1965         0.011140   
    564. D(C  36,C  35,C  34,H  86)     57.5649         0.011140   
    565. D(C  36,C  35,C  34,H  85)    -58.5754         0.011140   
    566. D(C  36,C  35,C  34,C  33)    179.4311         0.011140   
    567. D(H  90,C  36,C  35,H  87)     65.3039         0.011178   
    568. D(H  90,C  36,C  35,C  34)    -56.9778         0.011178   
    569. D(H  89,C  36,C  35,H  88)    -63.8880         0.011178   
    570. D(H  89,C  36,C  35,H  87)   -179.2686         0.011178   
    571. D(H  89,C  36,C  35,C  34)     58.4497         0.011178   
    572. D(C  37,C  36,C  35,H  88)     58.3553         0.011178   
    573. D(C  37,C  36,C  35,H  87)    -57.0253         0.011178   
    574. D(H  90,C  36,C  35,H  88)   -179.3154         0.011178   
    575. D(C  37,C  36,C  35,C  34)   -179.3070         0.011178   
    576. D(H  92,C  37,C  36,H  90)   -179.6807         0.011131   
    577. D(H  92,C  37,C  36,H  89)     64.8234         0.011131   
    578. D(H  92,C  37,C  36,C  35)    -57.3457         0.011131   
    579. D(H  91,C  37,C  36,H  90)    -64.2741         0.011131   
    580. D(H  91,C  37,C  36,H  89)   -179.7700         0.011131   
    581. D(H  91,C  37,C  36,C  35)     58.0608         0.011131   
    582. D(C  38,C  37,C  36,H  90)     58.0234         0.011131   
    583. D(C  38,C  37,C  36,H  89)    -57.4725         0.011131   
    584. D(C  38,C  37,C  36,C  35)   -179.6416         0.011131   
    585. D(H  94,C  38,C  37,H  92)   -179.7871         0.011125   
    586. D(H  94,C  38,C  37,H  91)     64.8039         0.011125   
    587. D(H  94,C  38,C  37,C  36)    -57.5068         0.011125   
    588. D(H  93,C  38,C  37,H  92)    -64.3910         0.011125   
    589. D(H  93,C  38,C  37,H  91)   -179.8000         0.011125   
    590. D(H  93,C  38,C  37,C  36)     57.8893         0.011125   
    591. D(C  39,C  38,C  37,H  92)     57.8664         0.011125   
    592. D(C  39,C  38,C  37,H  91)    -57.5426         0.011125   
    593. D(C  39,C  38,C  37,C  36)   -179.8533         0.011125   
    594. D(H  95,C  39,C  38,H  94)    -64.4359         0.011131   
    595. D(H  95,C  39,C  38,H  93)   -179.8695         0.011131   
    596. D(H  95,C  39,C  38,C  37)     57.9121         0.011131   
    597. D(C  40,C  39,C  38,H  94)     57.8552         0.011131   
    598. D(C  40,C  39,C  38,H  93)    -57.5784         0.011131   
    599. D(C  40,C  39,C  38,C  37)   -179.7968         0.011131   
    600. D(H  96,C  39,C  38,H  94)   -179.8751         0.011131   
    601. D(H  96,C  39,C  38,H  93)     64.6913         0.011131   
    602. D(H  96,C  39,C  38,C  37)    -57.5271         0.011131   
    603. D(H  98,C  40,C  39,H  95)     64.7493         0.011067   
    604. D(H  98,C  40,C  39,C  38)    -57.6007         0.011067   
    605. D(H  97,C  40,C  39,H  96)    -64.6013         0.011067   
    606. D(H  97,C  40,C  39,H  95)   -179.9432         0.011067   
    607. D(H  97,C  40,C  39,C  38)     57.7069         0.011067   
    608. D(C  41,C  40,C  39,H  96)     57.7226         0.011067   
    609. D(C  41,C  40,C  39,H  95)    -57.6193         0.011067   
    610. D(H  98,C  40,C  39,H  96)   -179.9088         0.011067   
    611. D(C  41,C  40,C  39,C  38)   -179.9692         0.011067   
    612. D(H 101,C  41,C  40,H  98)    -62.2915         0.011155   
    613. D(H 101,C  41,C  40,H  97)   -178.1800         0.011155   
    614. D(H 101,C  41,C  40,C  39)     59.7934         0.011155   
    615. D(H 100,C  41,C  40,H  98)    178.1706         0.011155   
    616. D(H 100,C  41,C  40,H  97)     62.2821         0.011155   
    617. D(H 100,C  41,C  40,C  39)    -59.7446         0.011155   
    618. D(H  99,C  41,C  40,H  98)     57.9479         0.011155   
    619. D(H  99,C  41,C  40,H  97)    -57.9406         0.011155   
    620. D(H  99,C  41,C  40,C  39)   -179.9673         0.011155   
    621. D(H 102,O  43,C  17,H  65)     55.5703         0.018504   
    622. D(H 102,O  43,C  17,C  18)    -64.0035         0.018504   
    623. D(H 102,O  43,C  17,C  16)    173.2599         0.018504   
    624. D(H 104,C  45,C  13,H  61)    177.8407         0.011480   
    625. D(H 104,C  45,C  13,C  14)    -60.2800         0.011480   
    626. D(H 104,C  45,C  13,N  12)     60.5261         0.011480   
    627. D(H 103,C  45,C  13,H  61)    -68.2135         0.011480   
    628. D(H 103,C  45,C  13,C  14)     53.6658         0.011480   
    629. D(H 103,C  45,C  13,N  12)    174.4718         0.011480   
    630. D(C  46,C  45,C  13,H  61)     54.3812         0.011480   
    631. D(C  46,C  45,C  13,C  14)    176.2605         0.011480   
    632. D(C  46,C  45,C  13,N  12)    -62.9335         0.011480   
    633. D(H 107,C  46,C  45,H 104)    -63.4331         0.011261   
    634. D(H 107,C  46,C  45,H 103)    179.7670         0.011261   
    635. D(H 107,C  46,C  45,C  13)     58.8074         0.011261   
    636. D(H 106,C  46,C  45,H 104)    176.8293         0.011261   
    637. D(H 106,C  46,C  45,H 103)     60.0294         0.011261   
    638. D(H 106,C  46,C  45,C  13)    -60.9302         0.011261   
    639. D(H 105,C  46,C  45,H 104)     56.8363         0.011261   
    640. D(H 105,C  46,C  45,H 103)    -59.9636         0.011261   
    641. D(H 105,C  46,C  45,C  13)    179.0768         0.011261   
    642. D(H 108,C  48,C  10,H  59)     70.6352         0.010208   
    643. D(H 108,C  48,C  10,C  11)   -172.4679         0.010208   
    644. D(H 108,C  48,C  10,N   9)    -43.8674         0.010208   
    645. D(C  50,C  48,C  10,H  59)    -44.2453         0.010208   
    646. D(C  50,C  48,C  10,C  11)     72.6516         0.010208   
    647. D(C  50,C  48,C  10,N   9)   -158.7479         0.010208   
    648. D(C  49,C  48,C  10,H  59)   -171.7722         0.010208   
    649. D(C  49,C  48,C  10,C  11)    -54.8753         0.010208   
    650. D(C  49,C  48,C  10,N   9)     73.7252         0.010208   
    651. D(H 111,C  49,C  48,C  50)     60.9842         0.010857   
    652. D(H 111,C  49,C  48,C  10)   -171.9836         0.010857   
    653. D(H 110,C  49,C  48,H 108)   -177.0407         0.010857   
    654. D(H 110,C  49,C  48,C  50)    -58.8575         0.010857   
    655. D(H 110,C  49,C  48,C  10)     68.1747         0.010857   
    656. D(H 109,C  49,C  48,H 108)     62.0280         0.010857   
    657. D(H 109,C  49,C  48,C  50)   -179.7888         0.010857   
    658. D(H 111,C  49,C  48,H 108)    -57.1990         0.010857   
    659. D(H 109,C  49,C  48,C  10)    -52.7566         0.010857   
    660. D(H 114,C  50,C  48,H 108)   -178.6727         0.010983   
    661. D(H 114,C  50,C  48,C  49)     62.1361         0.010983   
    662. D(H 114,C  50,C  48,C  10)    -65.6604         0.010983   
    663. D(H 113,C  50,C  48,H 108)     60.9259         0.010983   
    664. D(H 113,C  50,C  48,C  49)    -58.2653         0.010983   
    665. D(H 113,C  50,C  48,C  10)    173.9382         0.010983   
    666. D(H 112,C  50,C  48,H 108)    -57.9969         0.010983   
    667. D(H 112,C  50,C  48,C  49)   -177.1881         0.010983   
    668. D(H 112,C  50,C  48,C  10)     55.0153         0.010983   
    -----------------------------------------------------------------

Number of atoms                         .... 115
Number of degrees of freedom            .... 668

         *************************************************************
         *                GEOMETRY OPTIMIZATION CYCLE   1            *
         *************************************************************
---------------------------------
CARTESIAN COORDINATES (ANGSTROEM)
---------------------------------
  O      1.369084   -0.632940    0.474188
  C      2.010114   -0.937660    1.506233
  C      1.324038   -0.982257    2.879746
  C     -0.165751   -1.326706    2.794714
  C     -0.849426    0.028421    2.554472
  C      0.001423    1.021804    3.355618
  N      1.338605    0.404375    3.386101
  C      2.504737    0.928694    3.872369
  O      3.481820    0.220860    4.123513
  N      3.325338   -1.197341    1.503382
  C      4.221959   -0.858936    0.384780
  C      4.205195   -1.892763   -0.759450
  N      3.001249   -2.483305   -0.990660
  C      2.780378   -3.344997   -2.153457
  C      2.317106   -2.452942   -3.327230
  N      3.280369   -1.610097   -3.786720
  C      2.969342   -0.484535   -4.654163
  C      3.054023    0.857219   -3.924864
  C      2.114502    0.919526   -2.704467
  C      2.407189    2.169179   -1.870042
  N      1.895953    2.139684   -0.606889
  C      2.090788    3.270135    0.294689
  C      2.683142    2.698722    1.592984
  N      2.157943    3.107143    2.781127
  C      2.533676    2.468531    4.049096
  C      3.887373    2.936622    4.572662
  O      3.581613    1.858047    1.543980
  C      0.831147    4.161940    0.377353
  C      1.103998    5.676436    0.383991
  C     -0.213996    6.447136    0.257462
  C      1.895664    6.156006    1.605299
  O      3.015544    3.145294   -2.322195
  C      0.626957    0.989998   -3.125989
  C     -0.315613    0.087984   -2.372059
  C     -1.796003    0.381164   -2.578937
  C     -2.682745   -0.560440   -1.761550
  C     -4.178922   -0.290912   -1.929866
  C     -5.062656   -1.223100   -1.098327
  C     -6.560672   -0.962457   -1.270521
  C     -7.443639   -1.892664   -0.435974
  C     -8.942725   -1.635891   -0.611363
  C     -9.815365   -2.570938    0.228054
  O      0.274449    1.735873   -4.024539
  O      4.417651    1.029057   -3.532290
  O      1.157329   -2.473170   -3.750968
  C      1.771373   -4.443467   -1.832396
  C      2.258748   -5.388244   -0.734151
  O      5.199531   -2.113263   -1.459492
  C      5.620930   -0.544724    0.954263
  C      6.370380   -1.799297    1.419931
  C      6.446530    0.298541   -0.022774
  H      1.880718   -1.634220    3.566342
  H     -0.488005   -1.764926    3.750204
  H     -0.372467   -2.047346    1.995155
  H     -0.803571    0.274404    1.486393
  H     -1.900029    0.040485    2.870531
  H      0.027144    2.010046    2.882319
  H     -0.376653    1.139191    4.385744
  H      3.763352   -1.248154    2.425195
  H      3.828689    0.073505   -0.055633
  H      2.177241   -2.046347   -0.564584
  H      3.761890   -3.777938   -2.400169
  H      4.188025   -1.621923   -3.313959
  H      1.957953   -0.644903   -5.048428
  H      3.676179   -0.459804   -5.495875
  H      2.744331    1.650891   -4.625484
  H      2.260379    0.035059   -2.066497
  H      1.601975    1.235211   -0.223556
  H      2.895803    3.864421   -0.174098
  H      1.466439    3.847786    2.788539
  H      1.742534    2.740742    4.767386
  H      3.874611    4.024745    4.719771
  H      4.115148    2.447465    5.527724
  H      4.674314    2.672946    3.857599
  H      0.191125    3.882428    1.235203
  H      0.230836    3.931855   -0.514112
  H      1.712346    5.884824   -0.513666
  H     -0.765636    6.150254   -0.645868
  H     -0.864069    6.257383    1.127043
  H     -0.036694    7.530862    0.205504
  H      2.859407    5.639020    1.713518
  H      2.105786    7.232451    1.531940
  H      1.318642    6.007676    2.535125
  H     -0.046584    0.099142   -1.303385
  H     -0.062920   -0.937481   -2.707813
  H     -2.040294    0.298735   -3.648881
  H     -2.006604    1.428073   -2.303121
  H     -2.415950   -0.477205   -0.691958
  H     -2.463808   -1.604459   -2.045589
  H     -4.447669   -0.387014   -2.996199
  H     -4.394853    0.757404   -1.657194
  H     -4.795626   -1.123020   -0.030843
  H     -4.841523   -2.270897   -1.367948
  H     -6.827364   -1.066197   -2.336991
  H     -6.781734    0.086510   -1.004632
  H     -7.179018   -1.787730    0.631551
  H     -7.220898   -2.941714   -0.700330
  H     -9.204841   -1.742201   -1.677802
  H     -9.163269   -0.587138   -0.348476
  H    -10.885798   -2.365990    0.083294
  H     -9.637578   -3.623993   -0.038550
  H     -9.595924   -2.460736    1.301166
  H      4.463441    1.937291   -3.169199
  H      1.567523   -4.996599   -2.760564
  H      0.814523   -3.975291   -1.553164
  H      1.505684   -6.157447   -0.513647
  H      3.185491   -5.900966   -1.032453
  H      2.469054   -4.842633    0.196871
  H      5.414661    0.089677    1.832082
  H      5.773466   -2.405813    2.119316
  H      6.639756   -2.431652    0.564336
  H      7.292970   -1.513639    1.944360
  H      5.901271    1.212874   -0.296785
  H      7.392813    0.597594    0.450982
  H      6.672337   -0.261261   -0.937536

----------------------------
CARTESIAN COORDINATES (A.U.)
----------------------------
  NO LB      ZA    FRAG     MASS         X           Y           Z
   0 O     8.0000    0    15.999    2.587194   -1.196084    0.896086
   1 C     6.0000    0    12.011    3.798566   -1.771921    2.846369
   2 C     6.0000    0    12.011    2.502069   -1.856197    5.441932
   3 C     6.0000    0    12.011   -0.313224   -2.507111    5.281245
   4 C     6.0000    0    12.011   -1.605182    0.053709    4.827252
   5 C     6.0000    0    12.011    0.002689    1.930930    6.341199
   6 N     7.0000    0    14.007    2.529596    0.764158    6.398804
   7 C     6.0000    0    12.011    4.733267    1.754977    7.317717
   8 O     8.0000    0    15.999    6.579685    0.417364    7.792310
   9 N     7.0000    0    14.007    6.283977   -2.262647    2.840980
  10 C     6.0000    0    12.011    7.978345   -1.623154    0.727129
  11 C     6.0000    0    12.011    7.946666   -3.576805   -1.435153
  12 N     7.0000    0    14.007    5.671538   -4.692766   -1.872075
  13 C     6.0000    0    12.011    5.254153   -6.321128   -4.069444
  14 C     6.0000    0    12.011    4.378697   -4.635388   -6.287553
  15 N     7.0000    0    14.007    6.198999   -3.042643   -7.155863
  16 C     6.0000    0    12.011    5.611242   -0.915638   -8.795093
  17 C     6.0000    0    12.011    5.771267    1.619910   -7.416919
  18 C     6.0000    0    12.011    3.995830    1.737652   -5.110702
  19 C     6.0000    0    12.011    4.548928    4.099155   -3.533866
  20 N     7.0000    0    14.007    3.582831    4.043418   -1.146854
  21 C     6.0000    0    12.011    3.951016    6.179660    0.556881
  22 C     6.0000    0    12.011    5.070403    5.099846    3.010303
  23 N     7.0000    0    14.007    4.077921    5.871649    5.255568
  24 C     6.0000    0    12.011    4.787953    4.664848    7.651682
  25 C     6.0000    0    12.011    7.346070    5.549411    8.641079
  26 O     8.0000    0    15.999    6.768268    3.511201    2.917699
  27 C     6.0000    0    12.011    1.570640    7.864926    0.713094
  28 C     6.0000    0    12.011    2.086253   10.726910    0.725638
  29 C     6.0000    0    12.011   -0.404394   12.183322    0.486533
  30 C     6.0000    0    12.011    3.582286   11.633166    3.033575
  31 O     8.0000    0    15.999    5.698553    5.943744   -4.388313
  32 C     6.0000    0    12.011    1.184778    1.870826   -5.907264
  33 C     6.0000    0    12.011   -0.596422    0.166266   -4.482542
  34 C     6.0000    0    12.011   -3.393953    0.720295   -4.873484
  35 C     6.0000    0    12.011   -5.069653   -1.059078   -3.328847
  36 C     6.0000    0    12.011   -7.897019   -0.549744   -3.646918
  37 C     6.0000    0    12.011   -9.567033   -2.311324   -2.075537
  38 C     6.0000    0    12.011  -12.397873   -1.818780   -2.400936
  39 C     6.0000    0    12.011  -14.066440   -3.576617   -0.823872
  40 C     6.0000    0    12.011  -16.899302   -3.091386   -1.155309
  41 C     6.0000    0    12.011  -18.548351   -4.858370    0.430961
  42 O     8.0000    0    15.999    0.518634    3.280324   -7.605277
  43 O     8.0000    0    15.999    8.348151    1.944637   -6.675060
  44 O     8.0000    0    15.999    2.187035   -4.673614   -7.088302
  45 C     6.0000    0    12.011    3.347410   -8.396935   -3.462727
  46 C     6.0000    0    12.011    4.268414  -10.182305   -1.387344
  47 O     8.0000    0    15.999    9.825689   -3.993488   -2.758039
  48 C     6.0000    0    12.011   10.622018   -1.029379    1.803296
  49 C     6.0000    0    12.011   12.038273   -3.400178    2.683280
  50 C     6.0000    0    12.011   12.182175    0.564161   -0.043036
  51 H     1.0000    0     1.008    3.554042   -3.088228    6.739409
  52 H     1.0000    0     1.008   -0.922195   -3.335226    7.086859
  53 H     1.0000    0     1.008   -0.703860   -3.868923    3.770296
  54 H     1.0000    0     1.008   -1.518529    0.518549    2.808875
  55 H     1.0000    0     1.008   -3.590534    0.076506    5.424517
  56 H     1.0000    0     1.008    0.051294    3.798436    5.446793
  57 H     1.0000    0     1.008   -0.711772    2.152759    8.287854
  58 H     1.0000    0     1.008    7.111705   -2.358669    4.582955
  59 H     1.0000    0     1.008    7.235173    0.138905   -0.105132
  60 H     1.0000    0     1.008    4.114390   -3.867035   -1.066910
  61 H     1.0000    0     1.008    7.108942   -7.139268   -4.535663
  62 H     1.0000    0     1.008    7.914220   -3.064990   -6.262474
  63 H     1.0000    0     1.008    3.699994   -1.218690   -9.540146
  64 H     1.0000    0     1.008    6.946971   -0.868904  -10.385698
  65 H     1.0000    0     1.008    5.186033    3.119731   -8.740898
  66 H     1.0000    0     1.008    4.271497    0.066251   -3.905113
  67 H     1.0000    0     1.008    3.027294    2.334211   -0.422459
  68 H     1.0000    0     1.008    5.472274    7.302697   -0.328997
  69 H     1.0000    0     1.008    2.771169    7.271262    5.269575
  70 H     1.0000    0     1.008    3.292911    5.179251    9.009053
  71 H     1.0000    0     1.008    7.321953    7.605666    8.919074
  72 H     1.0000    0     1.008    7.776504    4.625039   10.445885
  73 H     1.0000    0     1.008    8.833173    5.051137    7.289805
  74 H     1.0000    0     1.008    0.361173    7.336726    2.334196
  75 H     1.0000    0     1.008    0.436217    7.430128   -0.971530
  76 H     1.0000    0     1.008    3.235865   11.120705   -0.970688
  77 H     1.0000    0     1.008   -1.446841   11.622295   -1.220513
  78 H     1.0000    0     1.008   -1.632855   11.824740    2.129803
  79 H     1.0000    0     1.008   -0.069342   14.231267    0.388347
  80 H     1.0000    0     1.008    5.403495   10.656203    3.238080
  81 H     1.0000    0     1.008    3.979359   13.667351    2.894947
  82 H     1.0000    0     1.008    2.491872   11.352862    4.790691
  83 H     1.0000    0     1.008   -0.088032    0.187351   -2.463041
  84 H     1.0000    0     1.008   -0.118902   -1.771583   -5.117025
  85 H     1.0000    0     1.008   -3.855597    0.564527   -6.895387
  86 H     1.0000    0     1.008   -3.791933    2.698667   -4.352268
  87 H     1.0000    0     1.008   -4.565484   -0.901786   -1.307612
  88 H     1.0000    0     1.008   -4.655922   -3.031988   -3.865603
  89 H     1.0000    0     1.008   -8.404877   -0.731351   -5.661996
  90 H     1.0000    0     1.008   -8.305068    1.431287   -3.131643
  91 H     1.0000    0     1.008   -9.062419   -2.122201   -0.058285
  92 H     1.0000    0     1.008   -9.149152   -4.291374   -2.585047
  93 H     1.0000    0     1.008  -12.901848   -2.014821   -4.416272
  94 H     1.0000    0     1.008  -12.815620    0.163480   -1.898480
  95 H     1.0000    0     1.008  -13.566377   -3.378321    1.193459
  96 H     1.0000    0     1.008  -13.645520   -5.559034   -1.323431
  97 H     1.0000    0     1.008  -17.394628   -3.292283   -3.170587
  98 H     1.0000    0     1.008  -17.316069   -1.109530   -0.658524
  99 H     1.0000    0     1.008  -20.571178   -4.471073    0.157402
 100 H     1.0000    0     1.008  -18.212383   -6.848354   -0.072848
 101 H     1.0000    0     1.008  -18.133669   -4.650117    2.458848
 102 H     1.0000    0     1.008    8.434681    3.660950   -5.988917
 103 H     1.0000    0     1.008    2.962190   -9.442204   -5.216709
 104 H     1.0000    0     1.008    1.539226   -7.512211   -2.935055
 105 H     1.0000    0     1.008    2.845331  -11.635889   -0.970652
 106 H     1.0000    0     1.008    6.019706  -11.151210   -1.951053
 107 H     1.0000    0     1.008    4.665836   -9.151251    0.372032
 108 H     1.0000    0     1.008   10.232226    0.169466    3.462134
 109 H     1.0000    0     1.008   10.910269   -4.546328    4.004927
 110 H     1.0000    0     1.008   12.547320   -4.595155    1.066441
 111 H     1.0000    0     1.008   13.781716   -2.860363    3.674308
 112 H     1.0000    0     1.008   11.151786    2.292000   -0.560843
 113 H     1.0000    0     1.008   13.970392    1.129288    0.852233
 114 H     1.0000    0     1.008   12.608889   -0.493712   -1.771687

--------------------------------
INTERNAL COORDINATES (ANGSTROEM)
--------------------------------
 O      0   0   0     0.000000000000     0.00000000     0.00000000
 C      1   0   0     1.252553854906     0.00000000     0.00000000
 C      2   1   0     1.535977498082   121.01535618     0.00000000
 C      3   2   1     1.531452351381   113.04157059    28.88169247
 C      4   3   2     1.536716696002   104.07143751   273.97289103
 C      5   4   3     1.533815052126   104.04427867   325.26467701
 N      6   5   4     1.473160812574   104.05700687    27.38529334
 C      7   6   5     1.367929458406   128.35283472   173.67962724
 O      8   7   6     1.232393237119   121.88177977   163.01764866
 N      2   1   3     1.340617228286   123.19263637   182.37782323
 C     10   2   1     1.472995959455   123.66181061    14.76055843
 C     11  10   2     1.542187738481   113.75442183   277.73341560
 N     12  11  10     1.360765487055   115.25240227    34.64054918
 C     13  12  11     1.464033445020   121.59132736   171.53272409
 C     14  13  12     1.545356175567   107.98321441   271.26999363
 N     15  14  13     1.359923579094   113.70681236    67.91651058
 C     16  15  14     1.454677214929   121.97753095   194.84542048
 C     17  16  15     1.529493669888   112.49512778   106.24072560
 C     18  17  16     1.541411773125   112.28621699   302.20540641
 C     19  18  17     1.530871027269   110.36581306   170.12637719
 N     20  19  18     1.363006709693   114.56708220   196.66971291
 C     21  20  19     1.459013753312   120.38526723   180.47078709
 C     22  21  20     1.537194285598   106.57955061   232.62409840
 N     23  22  21     1.361736061724   118.47714073   226.11672947
 C     24  23  22     1.468586192584   121.61650172   171.07967215
 C     25  24  23     1.525033229034   112.95742269    78.58282680
 O     23  22  21     1.231416628470   120.08745440    43.73892674
 C     22  21  20     1.545588679556   111.79453414   101.15558023
 C     28  22  21     1.538892691671   115.06098839   221.33073347
 C     29  28  22     1.532023599081   110.01068564   171.59789025
 C     29  28  22     1.532421510376   113.76727984   296.39482824
 O     20  19  18     1.235855471402   122.64511790    19.19405618
 C     19  18  17     1.547719904183   111.84095223   289.32442494
 C     33  19  18     1.506810823875   115.95668269   135.02433562
 C     34  33  19     1.523255348444   115.13587111   167.24983563
 C     35  34  33     1.530048886897   111.85391841   181.01531051
 C     36  35  34     1.529550008692   113.55793022   179.43113705
 C     37  36  35     1.530168426473   113.43995404   180.69299468
 C     38  37  36     1.530241077429   113.60706526   180.35835250
 C     39  38  37     1.530158623452   113.57656903   180.14670736
 C     40  39  38     1.530997192016   113.61431854   180.20317483
 C     41  40  39     1.529848355253   113.15085097   180.03075722
 O     33  19  18     1.219828892780   120.41147031   315.47105923
 O     18  17  16     1.429379482223   106.81240959    64.16624740
 O     15  14  13     1.234927624829   122.18852716   251.20189224
 C     14  13  12     1.525715356540   110.87881780   148.02395487
 C     46  14  13     1.528489235622   112.66540729   297.06650049
 O     12  11  10     1.235873069029   122.08154037   210.96887469
 C     11  10   2     1.542777041335   108.56852891   148.51925798
 C     49  11  10     1.533777906048   112.86508700    73.72518762
 C     49  11  10     1.532093777914   111.42855254   201.25210550
 H      3   2   1     1.098344792898   110.47778937   156.91825634
 H      4   3   2     1.099474719061   109.05751471   155.55449605
 H      4   3   2     1.096060593386   111.82975275    35.60503269
 H      5   4   3     1.096997111545   109.35093389    82.61728590
 H      5   4   3     1.097180541496   112.99605200   203.62927719
 H      6   5   4     1.096036348057   111.80337163   147.78397825
 H      6   5   4     1.103576149286   111.49403943   269.27820212
 H     10   2   1     1.021850646539   115.35605678   168.22953436
 H     11  10   2     1.103662866801   106.27426079    33.30936876
 H     13  12  11     1.025407761689   117.09380891    14.50540311
 H     14  13  12     1.100759167747   105.96110616    27.83780234
 H     16  15  14     1.023465815287   117.70608986   358.38851489
 H     17  16  15     1.097301482149   107.35235306   344.44288306
 H     17  16  15     1.099413285554   109.66247258   226.50312420
 H     18  17  16     1.103037366474   108.22821526   183.56122451
 H     19  18  17     1.100258335199   110.22903089    50.47873335
 H     21  20  19     1.025397108795   118.23396090    16.62655388
 H     22  21  20     1.104982298856   104.58629033   344.75068209
 H     24  23  22     1.013303577152   119.26201110   353.27170532
 H     25  24  23     1.102698875419   105.75373021   198.60117719
 H     26  25  24     1.098096960899   109.86633722    58.63396379
 H     26  25  24     1.096950220131   110.26439510   178.95019339
 H     26  25  24     1.095498293227   109.85661344   298.07603681
 H     28  22  21     1.106192481284   111.54425210    94.63753021
 H     28  22  21     1.099100189905   106.31782789   340.62457557
 H     29  28  22     1.104219911949   106.25440817    54.73065039
 H     30  29  28     1.099295243435   111.32843958   303.47388228
 H     30  29  28     1.102166834519   110.83296906    63.46663849
 H     30  29  28     1.099362241630   111.16543859   183.06894351
 H     31  29  28     1.098993088714   112.60001853    56.85757090
 H     31  29  28     1.099211511396   110.61170692   177.07545282
 H     31  29  28     1.104324406581   111.04341092   295.36570732
 H     34  33  19     1.102073003494   109.05182194    41.02874202
 H     34  33  19     1.108225589762   105.05225335   289.68227268
 H     35  34  33     1.100569945809   109.47161956    58.62854056
 H     35  34  33     1.102926398549   109.53026987   303.07660915
 H     36  35  34     1.105501826166   109.30940052    57.19651064
 H     36  35  34     1.103896735084   109.24601728   301.86012159
 H     37  36  35     1.103869438937   109.21455285    58.44966606
 H     37  36  35     1.104509961059   109.34863706   303.02222279
 H     38  37  36     1.104917762466   109.28471333    58.06079487
 H     38  37  36     1.104298115730   109.25081653   302.65426153
 H     39  38  37     1.104194306550   109.21539171    57.88930085
 H     39  38  37     1.104489453687   109.30582820   302.49316981
 H     40  39  38     1.104828802240   109.33164908    57.91207957
 H     40  39  38     1.104537392108   109.29769654   302.47287346
 H     41  40  39     1.103312453503   109.09826440    57.70689333
 H     41  40  39     1.103463562954   109.13576874   302.39934177
 H     42  41  40     1.099448845404   111.66483186   180.03273627
 H     42  41  40     1.100731118960   111.08186916   300.25543871
 H     42  41  40     1.100848357800   111.09892214    59.79335644
 H     44  18  17     0.979193786821   104.94899649   173.25989372
 H     46  14  13     1.099547880885   107.88800770   174.47184563
 H     46  14  13     1.101236053171   108.77757145    60.52606178
 H     47  46  14     1.098817807839   110.99924367   179.07677852
 H     47  46  14     1.100328498500   111.21010400   299.06983067
 H     47  46  14     1.099418465338   111.26642506    58.80744175
 H     49  11  10     1.102532617177   103.97135995   316.13259296
 H     50  49  11     1.101502831803   112.23280953   307.24337356
 H     50  49  11     1.097486958572   110.76520996    68.17470847
 H     50  49  11     1.098998988298   110.02715252   188.01642216
 H     51  49  11     1.099270177975   110.45516225    55.01534097
 H     51  49  11     1.099695343884   109.79409799   173.93817306
 H     51  49  11     1.095973321912   111.23316796   294.33958836

---------------------------
INTERNAL COORDINATES (A.U.)
---------------------------
 O      0   0   0     0.000000000000     0.00000000     0.00000000
 C      1   0   0     2.366983753760     0.00000000     0.00000000
 C      2   1   0     2.902576819240   121.01535618     0.00000000
 C      3   2   1     2.894025531259   113.04157059    28.88169247
 C      4   3   2     2.903973700868   104.07143751   273.97289103
 C      5   4   3     2.898490388605   104.04427867   325.26467701
 N      6   5   4     2.783870486989   104.05700687    27.38529334
 C      7   6   5     2.585012046910   128.35283472   173.67962724
 O      8   7   6     2.328885707451   121.88177977   163.01764866
 N      2   1   3     2.533399411878   123.19263637   182.37782323
 C     10   2   1     2.783558959742   123.66181061    14.76055843
 C     11  10   2     2.914312472820   113.75442183   277.73341560
 N     12  11  10     2.571474103026   115.25240227    34.64054918
 C     13  12  11     2.766622261988   121.59132736   171.53272409
 C     14  13  12     2.920299951186   107.98321441   271.26999363
 N     15  14  13     2.569883127550   113.70681236    67.91651058
 C     16  15  14     2.748941549472   121.97753095   194.84542048
 C     17  16  15     2.890324159655   112.49512778   106.24072560
 C     18  17  16     2.912846110808   112.28621699   302.20540641
 C     19  18  17     2.892926987893   110.36581306   170.12637719
 N     20  19  18     2.575709400017   114.56708220   196.66971291
 C     21  20  19     2.757136419383   120.38526723   180.47078709
 C     22  21  20     2.904876214408   106.57955061   232.62409840
 N     23  22  21     2.573308223343   118.47714073   226.11672947
 C     24  23  22     2.775225708042   121.61650172   171.07967215
 C     25  24  23     2.881895148005   112.95742269    78.58282680
 O     23  22  21     2.327040184565   120.08745440    43.73892674
 C     22  21  20     2.920739320051   111.79453414   101.15558023
 C     28  22  21     2.908085736750   115.06098839   221.33073347
 C     29  28  22     2.895105032968   110.01068564   171.59789025
 C     29  28  22     2.895856976341   113.76727984   296.39482824
 O     20  19  18     2.335428382058   122.64511790    19.19405618
 C     19  18  17     2.924766750925   111.84095223   289.32442494
 C     33  19  18     2.847459792751   115.95668269   135.02433562
 C     34  33  19     2.878535440589   115.13587111   167.24983563
 C     35  34  33     2.891373367747   111.85391841   181.01531051
 C     36  35  34     2.890430624565   113.55793022   179.43113705
 C     37  36  35     2.891599264807   113.43995404   180.69299468
 C     38  37  36     2.891736555217   113.60706526   180.35835250
 C     39  38  37     2.891580739782   113.57656903   180.14670736
 C     40  39  38     2.893165404713   113.61431854   180.20317483
 C     41  40  39     2.890994417859   113.15085097   180.03075722
 O     33  19  18     2.305142537598   120.41147031   315.47105923
 O     18  17  16     2.701135762847   106.81240959    64.16624740
 O     15  14  13     2.333675006141   122.18852716   251.20189224
 C     14  13  12     2.883184182178   110.87881780   148.02395487
 C     46  14  13     2.888426053973   112.66540729   297.06650049
 O     12  11  10     2.335461636753   122.08154037   210.96887469
 C     11  10   2     2.915426093825   108.56852891   148.51925798
 C     49  11  10     2.898420192690   112.86508700    73.72518762
 C     49  11  10     2.895237651742   111.42855254   201.25210550
 H      3   2   1     2.075570859196   110.47778937   156.91825634
 H      4   3   2     2.077706110195   109.05751471   155.55449605
 H      4   3   2     2.071254347683   111.82975275    35.60503269
 H      5   4   3     2.073024110522   109.35093389    82.61728590
 H      5   4   3     2.073370742895   112.99605200   203.62927719
 H      6   5   4     2.071208530651   111.80337163   147.78397825
[...]
freq.      87.28  E(vib)   ...       0.48 
freq.      90.82  E(vib)   ...       0.47 
freq.      94.92  E(vib)   ...       0.47 
freq.      95.63  E(vib)   ...       0.47 
freq.     100.08  E(vib)   ...       0.46 
freq.     112.34  E(vib)   ...       0.45 
freq.     117.98  E(vib)   ...       0.44 
freq.     119.23  E(vib)   ...       0.44 
freq.     119.90  E(vib)   ...       0.44 
freq.     130.93  E(vib)   ...       0.42 
freq.     133.69  E(vib)   ...       0.42 
freq.     135.11  E(vib)   ...       0.42 
freq.     141.07  E(vib)   ...       0.41 
freq.     151.33  E(vib)   ...       0.40 
freq.     155.17  E(vib)   ...       0.40 
freq.     156.56  E(vib)   ...       0.40 
freq.     160.64  E(vib)   ...       0.39 
freq.     167.01  E(vib)   ...       0.39 
freq.     171.96  E(vib)   ...       0.38 
freq.     177.52  E(vib)   ...       0.37 
freq.     183.12  E(vib)   ...       0.37 
freq.     193.62  E(vib)   ...       0.36 
freq.     199.00  E(vib)   ...       0.35 
freq.     206.54  E(vib)   ...       0.35 
freq.     211.50  E(vib)   ...       0.34 
freq.     216.49  E(vib)   ...       0.34 
freq.     219.90  E(vib)   ...       0.33 
freq.     221.84  E(vib)   ...       0.33 
freq.     230.02  E(vib)   ...       0.32 
freq.     231.11  E(vib)   ...       0.32 
freq.     235.44  E(vib)   ...       0.32 
freq.     237.22  E(vib)   ...       0.32 
freq.     249.54  E(vib)   ...       0.31 
freq.     251.53  E(vib)   ...       0.30 
freq.     254.72  E(vib)   ...       0.30 
freq.     269.94  E(vib)   ...       0.29 
freq.     278.26  E(vib)   ...       0.28 
freq.     286.35  E(vib)   ...       0.27 
freq.     292.00  E(vib)   ...       0.27 
freq.     299.25  E(vib)   ...       0.26 
freq.     300.39  E(vib)   ...       0.26 
freq.     311.32  E(vib)   ...       0.25 
freq.     318.26  E(vib)   ...       0.25 
freq.     318.84  E(vib)   ...       0.25 
freq.     327.66  E(vib)   ...       0.24 
freq.     332.44  E(vib)   ...       0.24 
freq.     334.85  E(vib)   ...       0.24 
freq.     347.05  E(vib)   ...       0.23 
freq.     355.34  E(vib)   ...       0.22 
freq.     357.13  E(vib)   ...       0.22 
freq.     368.49  E(vib)   ...       0.21 
freq.     386.12  E(vib)   ...       0.20 
freq.     389.35  E(vib)   ...       0.20 
freq.     399.83  E(vib)   ...       0.19 
freq.     404.39  E(vib)   ...       0.19 
freq.     422.44  E(vib)   ...       0.18 
freq.     426.96  E(vib)   ...       0.18 
freq.     435.62  E(vib)   ...       0.17 
freq.     458.28  E(vib)   ...       0.16 
freq.     465.67  E(vib)   ...       0.16 
freq.     471.05  E(vib)   ...       0.15 
freq.     482.37  E(vib)   ...       0.15 
freq.     484.35  E(vib)   ...       0.15 
freq.     494.97  E(vib)   ...       0.14 
freq.     507.78  E(vib)   ...       0.14 
freq.     522.12  E(vib)   ...       0.13 
freq.     528.18  E(vib)   ...       0.13 
freq.     549.58  E(vib)   ...       0.12 
freq.     560.34  E(vib)   ...       0.11 
freq.     570.40  E(vib)   ...       0.11 
freq.     579.93  E(vib)   ...       0.11 
freq.     596.88  E(vib)   ...       0.10 
freq.     605.55  E(vib)   ...       0.10 
freq.     615.33  E(vib)   ...       0.10 
freq.     624.68  E(vib)   ...       0.09 
freq.     641.10  E(vib)   ...       0.09 
freq.     650.93  E(vib)   ...       0.08 
freq.     666.85  E(vib)   ...       0.08 
freq.     676.79  E(vib)   ...       0.08 
freq.     694.33  E(vib)   ...       0.07 
freq.     708.04  E(vib)   ...       0.07 
freq.     711.18  E(vib)   ...       0.07 
freq.     712.24  E(vib)   ...       0.07 
freq.     716.41  E(vib)   ...       0.07 
freq.     720.38  E(vib)   ...       0.07 
freq.     724.93  E(vib)   ...       0.06 
freq.     731.16  E(vib)   ...       0.06 
freq.     739.84  E(vib)   ...       0.06 
freq.     752.26  E(vib)   ...       0.06 
freq.     756.52  E(vib)   ...       0.06 
freq.     766.18  E(vib)   ...       0.06 
freq.     779.55  E(vib)   ...       0.05 
freq.     796.98  E(vib)   ...       0.05 
freq.     800.46  E(vib)   ...       0.05 
freq.     811.65  E(vib)   ...       0.05 
freq.     812.76  E(vib)   ...       0.05 
freq.     826.02  E(vib)   ...       0.04 
freq.     847.77  E(vib)   ...       0.04 
freq.     851.52  E(vib)   ...       0.04 
freq.     853.91  E(vib)   ...       0.04 
freq.     865.21  E(vib)   ...       0.04 
freq.     868.14  E(vib)   ...       0.04 
freq.     870.56  E(vib)   ...       0.04 
freq.     877.46  E(vib)   ...       0.04 
freq.     886.74  E(vib)   ...       0.04 
freq.     895.96  E(vib)   ...       0.03 
freq.     898.11  E(vib)   ...       0.03 
freq.     901.22  E(vib)   ...       0.03 
freq.     904.69  E(vib)   ...       0.03 
freq.     908.17  E(vib)   ...       0.03 
freq.     912.42  E(vib)   ...       0.03 
freq.     920.48  E(vib)   ...       0.03 
freq.     930.10  E(vib)   ...       0.03 
freq.     934.93  E(vib)   ...       0.03 
freq.     940.82  E(vib)   ...       0.03 
freq.     945.42  E(vib)   ...       0.03 
freq.     947.49  E(vib)   ...       0.03 
freq.     952.36  E(vib)   ...       0.03 
freq.     957.32  E(vib)   ...       0.03 
freq.     963.98  E(vib)   ...       0.03 
freq.     968.54  E(vib)   ...       0.03 
freq.     977.78  E(vib)   ...       0.03 
freq.     979.18  E(vib)   ...       0.03 
freq.     979.71  E(vib)   ...       0.03 
freq.    1000.81  E(vib)   ...       0.02 
freq.    1003.51  E(vib)   ...       0.02 
freq.    1006.17  E(vib)   ...       0.02 
freq.    1011.04  E(vib)   ...       0.02 
freq.    1023.90  E(vib)   ...       0.02 
freq.    1026.32  E(vib)   ...       0.02 
freq.    1027.50  E(vib)   ...       0.02 
freq.    1043.13  E(vib)   ...       0.02 
freq.    1044.04  E(vib)   ...       0.02 
freq.    1048.55  E(vib)   ...       0.02 
freq.    1050.32  E(vib)   ...       0.02 
freq.    1051.59  E(vib)   ...       0.02 
freq.    1055.41  E(vib)   ...       0.02 
freq.    1066.13  E(vib)   ...       0.02 
freq.    1069.99  E(vib)   ...       0.02 
freq.    1073.88  E(vib)   ...       0.02 
freq.    1077.61  E(vib)   ...       0.02 
freq.    1082.63  E(vib)   ...       0.02 
freq.    1087.98  E(vib)   ...       0.02 
freq.    1092.15  E(vib)   ...       0.02 
freq.    1103.22  E(vib)   ...       0.02 
freq.    1110.67  E(vib)   ...       0.02 
freq.    1114.83  E(vib)   ...       0.01 
freq.    1115.93  E(vib)   ...       0.01 
freq.    1116.78  E(vib)   ...       0.01 
freq.    1125.14  E(vib)   ...       0.01 
freq.    1136.08  E(vib)   ...       0.01 
freq.    1138.47  E(vib)   ...       0.01 
freq.    1148.64  E(vib)   ...       0.01 
freq.    1156.98  E(vib)   ...       0.01 
freq.    1162.13  E(vib)   ...       0.01 
freq.    1170.75  E(vib)   ...       0.01 
freq.    1171.65  E(vib)   ...       0.01 
freq.    1176.47  E(vib)   ...       0.01 
freq.    1182.28  E(vib)   ...       0.01 
freq.    1190.97  E(vib)   ...       0.01 
freq.    1192.10  E(vib)   ...       0.01 
freq.    1194.54  E(vib)   ...       0.01 
freq.    1203.60  E(vib)   ...       0.01 
freq.    1208.60  E(vib)   ...       0.01 
freq.    1214.15  E(vib)   ...       0.01 
freq.    1215.92  E(vib)   ...       0.01 
freq.    1216.72  E(vib)   ...       0.01 
freq.    1225.18  E(vib)   ...       0.01 
freq.    1233.11  E(vib)   ...       0.01 
freq.    1235.56  E(vib)   ...       0.01 
freq.    1241.87  E(vib)   ...       0.01 
freq.    1243.99  E(vib)   ...       0.01 
freq.    1248.09  E(vib)   ...       0.01 
freq.    1249.25  E(vib)   ...       0.01 
freq.    1252.64  E(vib)   ...       0.01 
freq.    1263.53  E(vib)   ...       0.01 
freq.    1265.76  E(vib)   ...       0.01 
freq.    1268.40  E(vib)   ...       0.01 
freq.    1274.56  E(vib)   ...       0.01 
freq.    1277.15  E(vib)   ...       0.01 
freq.    1281.35  E(vib)   ...       0.01 
freq.    1281.69  E(vib)   ...       0.01 
freq.    1285.89  E(vib)   ...       0.01 
freq.    1290.89  E(vib)   ...       0.01 
freq.    1292.23  E(vib)   ...       0.01 
freq.    1293.80  E(vib)   ...       0.01 
freq.    1293.98  E(vib)   ...       0.01 
freq.    1295.58  E(vib)   ...       0.01 
freq.    1299.16  E(vib)   ...       0.01 
freq.    1304.54  E(vib)   ...       0.01 
freq.    1307.88  E(vib)   ...       0.01 
freq.    1311.13  E(vib)   ...       0.01 
freq.    1316.32  E(vib)   ...       0.01 
freq.    1318.01  E(vib)   ...       0.01 
freq.    1326.90  E(vib)   ...       0.01 
freq.    1329.02  E(vib)   ...       0.01 
freq.    1330.45  E(vib)   ...       0.01 
freq.    1332.50  E(vib)   ...       0.01 
freq.    1338.26  E(vib)   ...       0.01 
freq.    1339.17  E(vib)   ...       0.01 
freq.    1341.64  E(vib)   ...       0.01 
freq.    1343.21  E(vib)   ...       0.01 
freq.    1347.66  E(vib)   ...       0.01 
freq.    1348.52  E(vib)   ...       0.01 
freq.    1351.41  E(vib)   ...       0.01 
freq.    1352.17  E(vib)   ...       0.01 
freq.    1352.85  E(vib)   ...       0.01 
freq.    1354.22  E(vib)   ...       0.01 
freq.    1356.17  E(vib)   ...       0.01 
freq.    1360.04  E(vib)   ...       0.01 
freq.    1363.57  E(vib)   ...       0.01 
freq.    1363.87  E(vib)   ...       0.01 
freq.    1369.30  E(vib)   ...       0.01 
freq.    1372.92  E(vib)   ...       0.01 
freq.    1377.69  E(vib)   ...       0.01 
freq.    1401.69  E(vib)   ...       0.00 
freq.    1425.41  E(vib)   ...       0.00 
freq.    1431.76  E(vib)   ...       0.00 
freq.    1432.86  E(vib)   ...       0.00 
freq.    1433.36  E(vib)   ...       0.00 
freq.    1433.59  E(vib)   ...       0.00 
freq.    1435.11  E(vib)   ...       0.00 
freq.    1435.31  E(vib)   ...       0.00 
freq.    1436.53  E(vib)   ...       0.00 
freq.    1436.60  E(vib)   ...       0.00 
freq.    1439.12  E(vib)   ...       0.00 
freq.    1442.92  E(vib)   ...       0.00 
freq.    1444.40  E(vib)   ...       0.00 
freq.    1445.64  E(vib)   ...       0.00 
freq.    1446.68  E(vib)   ...       0.00 
freq.    1449.26  E(vib)   ...       0.00 
freq.    1449.76  E(vib)   ...       0.00 
freq.    1450.63  E(vib)   ...       0.00 
freq.    1450.97  E(vib)   ...       0.00 
freq.    1453.16  E(vib)   ...       0.00 
freq.    1454.14  E(vib)   ...       0.00 
freq.    1458.95  E(vib)   ...       0.00 
freq.    1460.03  E(vib)   ...       0.00 
freq.    1460.15  E(vib)   ...       0.00 
freq.    1462.44  E(vib)   ...       0.00 
freq.    1464.70  E(vib)   ...       0.00 
freq.    1469.31  E(vib)   ...       0.00 
freq.    1470.29  E(vib)   ...       0.00 
freq.    1486.87  E(vib)   ...       0.00 
freq.    1503.53  E(vib)   ...       0.00 
freq.    1508.73  E(vib)   ...       0.00 
freq.    1510.65  E(vib)   ...       0.00 
freq.    1512.16  E(vib)   ...       0.00 
freq.    1618.25  E(vib)   ...       0.00 
freq.    1647.77  E(vib)   ...       0.00 
freq.    1654.39  E(vib)   ...       0.00 
freq.    1658.20  E(vib)   ...       0.00 
freq.    1671.20  E(vib)   ...       0.00 
freq.    1674.50  E(vib)   ...       0.00 
freq.    1713.78  E(vib)   ...       0.00 
freq.    2916.20  E(vib)   ...       0.00 
freq.    2918.41  E(vib)   ...       0.00 
freq.    2921.08  E(vib)   ...       0.00 
freq.    2923.54  E(vib)   ...       0.00 
freq.    2924.49  E(vib)   ...       0.00 
freq.    2930.77  E(vib)   ...       0.00 
freq.    2932.79  E(vib)   ...       0.00 
freq.    2936.21  E(vib)   ...       0.00 
freq.    2936.68  E(vib)   ...       0.00 
freq.    2941.50  E(vib)   ...       0.00 
freq.    2944.60  E(vib)   ...       0.00 
freq.    2945.13  E(vib)   ...       0.00 
freq.    2946.65  E(vib)   ...       0.00 
freq.    2947.70  E(vib)   ...       0.00 
freq.    2951.40  E(vib)   ...       0.00 
freq.    2956.31  E(vib)   ...       0.00 
freq.    2956.37  E(vib)   ...       0.00 
freq.    2958.42  E(vib)   ...       0.00 
freq.    2959.49  E(vib)   ...       0.00 
freq.    2960.04  E(vib)   ...       0.00 
freq.    2960.50  E(vib)   ...       0.00 
freq.    2963.11  E(vib)   ...       0.00 
freq.    2963.24  E(vib)   ...       0.00 
freq.    2964.14  E(vib)   ...       0.00 
freq.    2967.16  E(vib)   ...       0.00 
freq.    2970.58  E(vib)   ...       0.00 
freq.    2973.28  E(vib)   ...       0.00 
freq.    2977.92  E(vib)   ...       0.00 
freq.    2985.27  E(vib)   ...       0.00 
freq.    2988.13  E(vib)   ...       0.00 
freq.    2988.46  E(vib)   ...       0.00 
freq.    2989.61  E(vib)   ...       0.00 
freq.    2990.87  E(vib)   ...       0.00 
freq.    2991.56  E(vib)   ...       0.00 
freq.    2998.66  E(vib)   ...       0.00 
freq.    3006.57  E(vib)   ...       0.00 
freq.    3007.36  E(vib)   ...       0.00 
freq.    3007.83  E(vib)   ...       0.00 
freq.    3009.66  E(vib)   ...       0.00 
freq.    3010.02  E(vib)   ...       0.00 
freq.    3010.57  E(vib)   ...       0.00 
freq.    3019.39  E(vib)   ...       0.00 
freq.    3019.57  E(vib)   ...       0.00 
freq.    3021.37  E(vib)   ...       0.00 
freq.    3027.35  E(vib)   ...       0.00 
freq.    3032.09  E(vib)   ...       0.00 
freq.    3032.26  E(vib)   ...       0.00 
freq.    3032.62  E(vib)   ...       0.00 
freq.    3035.34  E(vib)   ...       0.00 
freq.    3036.93  E(vib)   ...       0.00 
freq.    3037.54  E(vib)   ...       0.00 
freq.    3051.07  E(vib)   ...       0.00 
freq.    3052.77  E(vib)   ...       0.00 
freq.    3053.59  E(vib)   ...       0.00 
freq.    3060.69  E(vib)   ...       0.00 
freq.    3061.34  E(vib)   ...       0.00 
freq.    3069.61  E(vib)   ...       0.00 
freq.    3082.06  E(vib)   ...       0.00 
freq.    3339.90  E(vib)   ...       0.00 
freq.    3352.34  E(vib)   ...       0.00 
freq.    3398.09  E(vib)   ...       0.00 
freq.    3429.55  E(vib)   ...       0.00 
freq.    3531.79  E(vib)   ...       0.00 
freq.    3578.17  E(vib)   ...       0.00 

------------
INNER ENERGY
------------

The inner energy is: U= E(el) + E(ZPE) + E(vib) + E(rot) + E(trans)
    E(el)   - is the total energy from the electronic structure calculation
              = E(kin-el) + E(nuc-el) + E(el-el) + E(nuc-nuc)
    E(ZPE)  - the the zero temperature vibrational energy from the frequency calculation
    E(vib)  - the the finite temperature correction to E(ZPE) due to population
              of excited vibrational states
    E(rot)  - is the rotational thermal energy
    E(trans)- is the translational thermal energy

Summary of contributions to the inner energy U:
Electronic energy                ...  -2380.08095988 Eh
Zero point energy                ...      0.97711212 Eh     613.15 kcal/mol
Thermal vibrational correction   ...      0.05479005 Eh      34.38 kcal/mol
Thermal rotational correction    ...      0.00141627 Eh       0.89 kcal/mol
Thermal translational correction ...      0.00141627 Eh       0.89 kcal/mol
-----------------------------------------------------------------------
Total thermal energy                  -2379.04622517 Eh


Summary of corrections to the electronic energy:
(perhaps to be used in another calculation)
Total thermal correction                  0.05762259 Eh      36.16 kcal/mol
Non-thermal (ZPE) correction              0.97711212 Eh     613.15 kcal/mol
-----------------------------------------------------------------------
Total correction                          1.03473471 Eh     649.30 kcal/mol


--------
ENTHALPY
--------

The enthalpy is H = U + kB*T
                kB is Boltzmann's constant
Total free energy                 ...  -2379.04622517 Eh 
Thermal Enthalpy correction       ...      0.00094421 Eh       0.59 kcal/mol
-----------------------------------------------------------------------
Total Enthalpy                    ...  -2379.04528096 Eh


Note: Only C1 symmetry has been detected, increase convergence thresholds 
      if your molecule has a higher symmetry. Symmetry factor of 1.0 is   
      used for the rotational entropy correction. 
 

Note: Rotational entropy computed according to Herzberg 
Infrared and Raman Spectra, Chapter V,1, Van Nostrand Reinhold, 1945 
Point Group:  C1, Symmetry Number:   1  
Rotational constants in cm-1:     0.001943     0.001308     0.001137 

Vibrational entropy computed according to the QRRHO of S. Grimme
Chem.Eur.J. 2012 18 9955


-------
ENTROPY
-------

The entropy contributions are T*S = T*(S(el)+S(vib)+S(rot)+S(trans))
     S(el)   - electronic entropy
     S(vib)  - vibrational entropy
     S(rot)  - rotational entropy
     S(trans)- translational entropy
The entropies will be listed as mutliplied by the temperature to get
units of energy

Electronic entropy                ...      0.00000000 Eh      0.00 kcal/mol
Vibrational entropy               ...      0.10031539 Eh     62.95 kcal/mol
Rotational entropy                ...      0.01879325 Eh     11.79 kcal/mol
Translational entropy             ...      0.02166895 Eh     13.60 kcal/mol
-----------------------------------------------------------------------
Final entropy term                ...      0.14077759 Eh     88.34 kcal/mol

In case the symmetry of your molecule has not been determined correctly
or in case you have a reason to use a different symmetry number we print 
out the resulting rotational entropy values for sn=1,12 :
 --------------------------------------------------------
|  sn= 1 | S(rot)=       0.01879325 Eh     11.79 kcal/mol|
|  sn= 2 | S(rot)=       0.01813880 Eh     11.38 kcal/mol|
|  sn= 3 | S(rot)=       0.01775597 Eh     11.14 kcal/mol|
|  sn= 4 | S(rot)=       0.01748434 Eh     10.97 kcal/mol|
|  sn= 5 | S(rot)=       0.01727365 Eh     10.84 kcal/mol|
|  sn= 6 | S(rot)=       0.01710151 Eh     10.73 kcal/mol|
|  sn= 7 | S(rot)=       0.01695596 Eh     10.64 kcal/mol|
|  sn= 8 | S(rot)=       0.01682989 Eh     10.56 kcal/mol|
|  sn= 9 | S(rot)=       0.01671868 Eh     10.49 kcal/mol|
|  sn=10 | S(rot)=       0.01661920 Eh     10.43 kcal/mol|
|  sn=11 | S(rot)=       0.01652921 Eh     10.37 kcal/mol|
|  sn=12 | S(rot)=       0.01644705 Eh     10.32 kcal/mol|
 --------------------------------------------------------


-------------------
GIBBS FREE ENERGY
-------------------

The Gibbs free energy is G = H - T*S

Total enthalpy                    ...  -2379.04528096 Eh 
Total entropy correction          ...     -0.14077759 Eh    -88.34 kcal/mol
-----------------------------------------------------------------------
Final Gibbs free energy         ...  -2379.18605855 Eh

For completeness - the Gibbs free energy minus the electronic energy
G-E(el)                           ...      0.89490133 Eh    561.56 kcal/mol

--------------------------------------------------------------------------
WARNING: No preset parameters were found for the device that Open MPI
detected:

  Local host:            eu-g1-020-2
  Device name:           mlx5_0
  Device vendor ID:      0x02c9
  Device vendor part ID: 4123

Default device parameters will be used, which may result in lower
performance.  You can edit any of the files specified by the
btl_openib_device_param_files MCA parameter to set values for your
device.

NOTE: You can turn off this warning by setting the MCA parameter
      btl_openib_warn_no_device_params_found to 0.
--------------------------------------------------------------------------
--------------------------------------------------------------------------
WARNING: There was an error initializing an OpenFabrics device.

  Local host:   eu-g1-020-2
  Local device: mlx5_0
--------------------------------------------------------------------------

Timings for individual modules:

Sum of individual times         ...    27231.404 sec (= 453.857 min)
GTO integral calculation        ...       13.181 sec (=   0.220 min)   0.0 %
SCF iterations                  ...      361.031 sec (=   6.017 min)   1.3 %
SCF Gradient evaluation         ...       71.401 sec (=   1.190 min)   0.3 %
Geometry relaxation             ...        4.243 sec (=   0.071 min)   0.0 %
Analytical frequency calculation...    26781.548 sec (= 446.359 min)  98.3 %
                             ****ORCA TERMINATED NORMALLY****
TOTAL RUN TIME: 0 days 7 hours 39 minutes 15 seconds 358 msec
