
                                 *****************
                                 * O   R   C   A *
                                 *****************

           --- An Ab Initio, DFT and Semiempirical electronic structure package ---

                  #######################################################
                  #                        -***-                        #
                  #          Department of theory and spectroscopy      #
                  #               Directorship: Frank Neese             #
                  #        Max Planck Institute fuer Kohlenforschung    #
                  #                Kaiser Wilhelm Platz 1               #
                  #                 D-45470 Muelheim/Ruhr               #
                  #                      Germany                        #
                  #                                                     #
                  #                  All rights reserved                #
                  #                        -***-                        #
                  #######################################################


                         Program Version 4.2.0 -  RELEASE  -


 With contributions from (in alphabetic order):
   Daniel Aravena         : Magnetic Suceptibility
   Michael Atanasov       : Ab Initio Ligand Field Theory (pilot matlab implementation)
   Alexander A. Auer      : GIAO ZORA, VPT2
   Ute Becker             : Parallelization
   Giovanni Bistoni       : ED, misc. LED, open-shell LED, HFLED
   Martin Brehm           : Molecular dynamics
   Dmytro Bykov           : SCF Hessian
   Vijay G. Chilkuri      : MRCI spin determinant printing, contributions to CSF-ICE
   Dipayan Datta          : RHF DLPNO-CCSD density
   Achintya Kumar Dutta   : EOM-CC, STEOM-CC
   Dmitry Ganyushin       : Spin-Orbit,Spin-Spin,Magnetic field MRCI
   Miquel Garcia          : C-PCM Hessian, Gaussian charge scheme
   Yang Guo               : DLPNO-NEVPT2, CIM, IAO-localization
   Andreas Hansen         : Spin unrestricted coupled pair/coupled cluster methods
   Benjamin Helmich-Paris : CASSCF linear response (MC-RPA)
   Lee Huntington         : MR-EOM, pCC
   Robert Izsak           : Overlap fitted RIJCOSX, COSX-SCS-MP3, EOM
   Christian Kollmar      : KDIIS, OOCD, Brueckner-CCSD(T), CCSD density
   Simone Kossmann        : Meta GGA functionals, TD-DFT gradient, OOMP2, MP2 Hessian
   Martin Krupicka        : AUTO-CI
   Lucas Lang             : DCDCAS
   Dagmar Lenk            : GEPOL surface, SMD
   Dimitrios Liakos       : Extrapolation schemes; Compound Job, initial MDCI parallelization
   Dimitrios Manganas     : Further ROCIS development; embedding schemes
   Dimitrios Pantazis     : SARC Basis sets
   Taras Petrenko         : DFT Hessian,TD-DFT gradient, ASA, ECA, R-Raman, ABS, FL, XAS/XES, NRVS
   Peter Pinski           : DLPNO-MP2, DLPNO-MP2 Gradient
   Christoph Reimann      : Effective Core Potentials
   Marius Retegan         : Local ZFS, SOC
   Christoph Riplinger    : Optimizer, TS searches, QM/MM, DLPNO-CCSD(T), (RO)-DLPNO pert. Triples
   Tobias Risthaus        : Range-separated hybrids, TD-DFT gradient, RPA, STAB
   Michael Roemelt        : Original ROCIS implementation
   Masaaki Saitow         : Open-shell DLPNO-CCSD energy and density
   Barbara Sandhoefer     : DKH picture change effects
   Avijit Sen             : IP-ROCIS
   Kantharuban Sivalingam : CASSCF convergence, NEVPT2, FIC-MRCI
   Bernardo de Souza      : ESD, SOC TD-DFT
   Georgi Stoychev        : AutoAux, RI-MP2 NMR
   Willem Van den Heuvel  : Paramagnetic NMR
   Boris Wezisla          : Elementary symmetry handling
   Frank Wennmohs         : Technical directorship


 We gratefully acknowledge several colleagues who have allowed us to
 interface, adapt or use parts of their codes:
   Stefan Grimme, W. Hujo, H. Kruse,             : VdW corrections, initial TS optimization,
                  C. Bannwarth                     DFT functionals, gCP, sTDA/sTD-DF
   Ed Valeev, F. Pavosevic, A. Kumar             : LibInt (2-el integral package), F12 methods
   Garnet Chan, S. Sharma, J. Yang, R. Olivares  : DMRG
   Ulf Ekstrom                                   : XCFun DFT Library
   Mihaly Kallay                                 : mrcc  (arbitrary order and MRCC methods)
   Andreas Klamt, Michael Diedenhofen            : otool_cosmo (COSMO solvation model)
   Jiri Pittner, Ondrej Demel                    : Mk-CCSD
   Frank Weinhold                                : gennbo (NPA and NBO analysis)
   Christopher J. Cramer and Donald G. Truhlar   : smd solvation model
   Lars Goerigk                                  : TD-DFT with DH, B97 family of functionals
   V. Asgeirsson, H. Jonsson                     : NEB implementation
   FAccTs GmbH                                   : IRC, NEB, NEB-TS, Multilevel, MM, QM/MM, CI optimization
   S Lehtola, MJT Oliveira, MAL Marques          : LibXC Library


 Your calculation uses the libint2 library for the computation of 2-el integrals
 For citations please refer to: http://libint.valeyev.net

 Your ORCA version has been built with support for libXC version: 4.2.3
 For citations please refer to: https://tddft.org/programs/libxc/

 This ORCA versions uses:
   CBLAS   interface :  Fast vector & matrix operations
   LAPACKE interface :  Fast linear algebra routines
   SCALAPACK package :  Parallel linear algebra routines




***************************************
The coordinates will be read from file: 33.xyz
***************************************


Your calculation utilizes the atom-pairwise dispersion correction
with the Becke-Johnson damping scheme (D3BJ)
Cite in your paper:
S.Grimme, S.Ehrlich, L.Goerigk, J Comput Chem, (2011), 32, 1456–1465 
S.Grimme, J.Antony, S.Ehrlich and H.Krieg, J.Chem.Phys., 132, (2010), 154104 
   

----- Orbital basis set information -----
Your calculation utilizes the basis: def2-TZVP
   F. Weigend and R. Ahlrichs, Phys. Chem. Chem. Phys. 7, 3297 (2005).

----- AuxJ basis set information -----
Your calculation utilizes the auxiliary basis: def2/J
   F. Weigend, Phys. Chem. Chem. Phys. 8, 1057 (2006).

================================================================================
                                        WARNINGS
                       Please study these warnings very carefully!
================================================================================


WARNING: Geometry Optimization
  ===> : Switching off AutoStart
         For restart on a previous wavefunction, please use MOREAD

INFO   : the flag for use of LIBINT has been found!

================================================================================
                                       INPUT FILE
================================================================================
NAME = 33.inp
|  1> !RI BP86 def2-tzvp def2/J D3BJ TIGHTSCF TightOpt Grid5 FinalGrid6 freq
|  2> %maxcore 4000
|  3> %pal nprocs 24
|  4> end
|  5> * xyzfile 0 1 33.xyz 
|  6> 
|  7>                          ****END OF INPUT****
================================================================================

                       *****************************
                       * Geometry Optimization Run *
                       *****************************

Geometry optimization settings:
Update method            Update   .... BFGS
Choice of coordinates    CoordSys .... Z-matrix Internals
Initial Hessian          InHess   .... Almoef's Model

Convergence Tolerances:
Energy Change            TolE     ....  1.0000e-06 Eh
Max. Gradient            TolMAXG  ....  1.0000e-04 Eh/bohr
RMS Gradient             TolRMSG  ....  3.0000e-05 Eh/bohr
Max. Displacement        TolMAXD  ....  1.0000e-03 bohr
RMS Displacement         TolRMSD  ....  6.0000e-04 bohr
Strict Convergence                ....  False
------------------------------------------------------------------------------
                        ORCA OPTIMIZATION COORDINATE SETUP
------------------------------------------------------------------------------

The optimization will be done in new redundant internal coordinates
Making redundant internal coordinates   ...  (new redundants) done
Evaluating the initial hessian          ...  (Almloef) done
Evaluating the coordinates              ...  done
Calculating the B-matrix                .... done
Calculating the G-matrix                .... done
Diagonalizing the G-matrix              .... done
Small eigenvalue found = 1.899e-04
Small eigenvalue found = 5.996e-04
Small eigenvalue found = 2.008e-03
Small eigenvalue found = 2.512e-03
Small eigenvalue found = 2.874e-03
Small eigenvalue found = 3.590e-03
Small eigenvalue found = 4.708e-03
Small eigenvalue found = 6.269e-03
Small eigenvalue found = 8.162e-03
Small eigenvalue found = 8.344e-03
Small eigenvalue found = 1.089e-02
Small eigenvalue found = 1.198e-02
Small eigenvalue found = 1.216e-02
Small eigenvalue found = 1.375e-02
Small eigenvalue found = 1.544e-02
Small eigenvalue found = 1.678e-02
Small eigenvalue found = 2.136e-02
Small eigenvalue found = 2.264e-02
Small eigenvalue found = 2.714e-02
Small eigenvalue found = 2.992e-02
The first mode is                       ....  324
The number of degrees of freedom        ....  339

    -----------------------------------------------------------------
                    Redundant Internal Coordinates


    -----------------------------------------------------------------
         Definition                    Initial Value    Approx d2E/dq
    -----------------------------------------------------------------
      1. B(C   1,O   0)                  1.2339         0.992878   
      2. B(C   2,C   1)                  1.5542         0.341849   
      3. B(C   3,C   2)                  1.5266         0.378223   
      4. B(C   4,C   3)                  1.5372         0.363870   
      5. B(C   5,C   4)                  1.5366         0.364666   
      6. B(N   6,C   2)                  1.4804         0.401407   
      7. B(N   6,C   5)                  1.4769         0.406667   
      8. B(C   7,N   6)                  1.3514         0.644891   
      9. B(O   8,C   7)                  1.2432         0.959609   
     10. B(N   9,C   1)                  1.3535         0.639909   
     11. B(C  10,N   9)                  1.4540         0.442431   
     12. B(C  11,C  10)                  1.5327         0.369887   
     13. B(N  12,C  11)                  1.3658         0.611672   
     14. B(C  13,N  12)                  1.4634         0.427325   
     15. B(C  14,C  13)                  1.5424         0.356900   
     16. B(N  15,C  14)                  1.3596         0.625727   
     17. B(C  16,N  15)                  1.4542         0.441999   
     18. B(C  17,C  16)                  1.5325         0.370205   
     19. B(C  18,C  17)                  1.5540         0.342019   
     20. B(C  19,C  18)                  1.5282         0.376060   
     21. B(N  20,C  19)                  1.3593         0.626476   
     22. B(C  21,N  20)                  1.4560         0.439186   
     23. B(C  22,C  21)                  1.5311         0.372087   
     24. B(N  23,C  22)                  1.3579         0.629576   
     25. B(C  24,C   7)                  1.5328         0.369811   
     26. B(C  24,N  23)                  1.4556         0.439806   
     27. B(C  25,C  24)                  1.5356         0.366015   
     28. B(O  26,C  22)                  1.2360         0.985392   
     29. B(C  27,C  21)                  1.5445         0.354248   
     30. B(C  28,C  27)                  1.5419         0.357660   
     31. B(C  29,C  28)                  1.5335         0.368790   
     32. B(C  30,C  28)                  1.5342         0.367860   
     33. B(O  31,C  19)                  1.2341         0.992367   
     34. B(C  32,C  18)                  1.5333         0.369104   
     35. B(C  33,C  32)                  1.5037         0.411495   
     36. B(C  34,C  33)                  1.5239         0.382081   
     37. B(C  35,C  34)                  1.5302         0.373330   
     38. B(C  36,C  35)                  1.5301         0.373485   
     39. B(C  37,C  36)                  1.5302         0.373355   
     40. B(C  38,C  37)                  1.5303         0.373152   
     41. B(C  39,C  38)                  1.5302         0.373364   
     42. B(C  40,C  39)                  1.5310         0.372220   
     43. B(C  41,C  40)                  1.5299         0.373778   
     44. B(O  42,C  32)                  1.2282         1.013848   
     45. B(O  43,C  17)                  1.4272         0.488101   
     46. B(O  44,C  14)                  1.2274         1.017024   
     47. B(C  45,C  13)                  1.5335         0.368845   
     48. B(C  46,C  45)                  1.5304         0.373011   
     49. B(O  47,C  11)                  1.2310         1.003707   
     50. B(C  48,C  10)                  1.5602         0.334379   
     51. B(C  49,C  48)                  1.5294         0.374401   
     52. B(C  50,C  48)                  1.5317         0.371257   
     53. B(H  51,C   2)                  1.0991         0.348212   
     54. B(H  52,C   3)                  1.0997         0.347432   
     55. B(H  53,C   3)                  1.0954         0.353070   
     56. B(H  54,C   4)                  1.0979         0.349812   
     57. B(H  55,C   4)                  1.0969         0.351049   
     58. B(H  56,C   5)                  1.0991         0.348273   
     59. B(H  57,C   5)                  1.1014         0.345299   
     60. B(H  58,N   9)                  1.0292         0.403262   
     61. B(H  59,C  10)                  1.1020         0.344590   
     62. B(H  60,N  12)                  1.0155         0.424019   
     63. B(H  61,C  13)                  1.1017         0.344992   
     64. B(H  62,N  15)                  1.0169         0.421824   
     65. B(H  63,C  16)                  1.1015         0.345236   
     66. B(H  64,C  16)                  1.0989         0.348483   
     67. B(H  65,C  17)                  1.1006         0.346304   
     68. B(H  66,C  18)                  1.1052         0.340482   
     69. B(H  67,O  47)                  4.9872         0.000000   
     70. B(H  67,N  20)                  1.0184         0.419560   
     71. B(H  68,C  21)                  1.1014         0.345303   
     72. B(H  69,N  23)                  1.0198         0.417430   
     73. B(H  70,C  24)                  1.0980         0.349648   
     74. B(H  71,C  25)                  1.0971         0.350826   
     75. B(H  72,C  25)                  1.0992         0.348178   
     76. B(H  73,C  25)                  1.0985         0.348976   
     77. B(H  74,C  27)                  1.1020         0.344623   
     78. B(H  75,C  27)                  1.0995         0.347733   
     79. B(H  76,C  28)                  1.1053         0.340466   
     80. B(H  77,C  29)                  1.0994         0.347923   
     81. B(H  78,C  29)                  1.1016         0.345131   
     82. B(H  79,C  29)                  1.1000         0.347116   
     83. B(H  80,C  30)                  1.0975         0.350275   
     84. B(H  81,C  30)                  1.0999         0.347256   
     85. B(H  82,C  30)                  1.1013         0.345428   
     86. B(H  83,C  33)                  1.1049         0.340872   
     87. B(H  84,C  33)                  1.1066         0.338763   
     88. B(H  85,C  34)                  1.1020         0.344585   
     89. B(H  86,C  34)                  1.1011         0.345726   
     90. B(H  87,C  35)                  1.1041         0.341896   
     91. B(H  88,C  35)                  1.1047         0.341196   
     92. B(H  89,C  36)                  1.1043         0.341695   
     93. B(H  90,C  36)                  1.1041         0.341937   
     94. B(H  91,C  37)                  1.1043         0.341676   
     95. B(H  92,C  37)                  1.1045         0.341470   
     96. B(H  93,C  38)                  1.1044         0.341522   
     97. B(H  94,C  38)                  1.1043         0.341630   
     98. B(H  95,C  39)                  1.1045         0.341364   
     99. B(H  96,C  39)                  1.1046         0.341275   
    100. B(H  97,C  40)                  1.1034         0.342755   
    101. B(H  98,C  40)                  1.1034         0.342809   
    102. B(H  99,C  41)                  1.0995         0.347794   
    103. B(H 100,C  41)                  1.1008         0.346124   
    104. B(H 101,C  41)                  1.1007         0.346165   
    105. B(H 102,O  43)                  0.9835         0.476915   
    106. B(H 103,C  45)                  1.0994         0.347893   
    107. B(H 104,C  45)                  1.1032         0.343015   
    108. B(H 105,C  46)                  1.0986         0.348907   
    109. B(H 106,C  46)                  1.0996         0.347608   
    110. B(H 107,C  46)                  1.1008         0.346099   
    111. B(H 108,C  48)                  1.1017         0.344919   
    112. B(H 109,C  49)                  1.1009         0.345976   
    113. B(H 110,C  49)                  1.0983         0.349309   
    114. B(H 111,C  49)                  1.0985         0.349058   
    115. B(H 112,H  69)                  3.6848         0.000005   
    116. B(H 112,C  50)                  1.0977         0.350060   
    117. B(H 113,H  65)                  2.0180         0.002280   
    118. B(H 113,C  50)                  1.0987         0.348737   
    119. B(H 114,C  50)                  1.0986         0.348899   
    120. A(O   0,C   1,N   9)          124.0710         0.469294   
    121. A(C   2,C   1,N   9)          113.7712         0.390231   
    122. A(O   0,C   1,C   2)          122.1318         0.421720   
    123. A(C   1,C   2,H  51)          109.2855         0.317893   
    124. A(N   6,C   2,H  51)          108.5408         0.324414   
    125. A(C   1,C   2,N   6)          109.8469         0.360056   
    126. A(C   1,C   2,C   3)          111.7180         0.358649   
    127. A(C   3,C   2,H  51)          114.2897         0.323192   
    128. A(C   3,C   2,N   6)          102.9100         0.366331   
    129. A(C   4,C   3,H  53)          112.3485         0.321880   
    130. A(C   4,C   3,H  52)          111.1633         0.321033   
    131. A(C   2,C   3,C   4)          102.9955         0.362486   
    132. A(C   2,C   3,H  53)          111.1786         0.323928   
    133. A(C   2,C   3,H  52)          109.6804         0.323073   
    134. A(H  52,C   3,H  53)          109.3386         0.288319   
    135. A(H  54,C   4,H  55)          108.2848         0.288368   
    136. A(C   3,C   4,H  55)          113.2948         0.321577   
    137. A(C   3,C   4,C   5)          104.1727         0.360236   
    138. A(C   3,C   4,H  54)          109.0527         0.321391   
    139. A(C   5,C   4,H  55)          111.7772         0.321692   
    140. A(C   5,C   4,H  54)          110.1957         0.321506   
    141. A(H  56,C   5,H  57)          108.1689         0.287426   
    142. A(C   4,C   5,N   6)          103.7335         0.364861   
    143. A(C   4,C   5,H  56)          112.5047         0.321275   
    144. A(N   6,C   5,H  57)          109.9094         0.324660   
    145. A(N   6,C   5,H  56)          111.0048         0.325118   
    146. A(C   4,C   5,H  57)          111.4923         0.320824   
    147. A(C   5,N   6,C   7)          126.6295         0.400272   
    148. A(C   2,N   6,C   7)          121.3693         0.399356   
    149. A(C   2,N   6,C   5)          111.8746         0.368600   
    150. A(O   8,C   7,C  24)          119.6133         0.425092   
    151. A(N   6,C   7,O   8)          122.6263         0.467034   
    152. A(N   6,C   7,C  24)          117.7598         0.396178   
    153. A(C   1,N   9,C  10)          121.8908         0.405711   
    154. A(C  10,N   9,H  58)          117.1805         0.334886   
    155. A(C   1,N   9,H  58)          119.4114         0.356306   
    156. A(C  48,C  10,H  59)          107.4393         0.316213   
    157. A(C  11,C  10,H  59)          110.5461         0.321463   
    158. A(N   9,C  10,C  11)          106.2219         0.371080   
    159. A(N   9,C  10,C  48)          111.1550         0.364710   
    160. A(N   9,C  10,H  59)          108.5670         0.329087   
    161. A(C  11,C  10,C  48)          112.8674         0.355954   
    162. A(N  12,C  11,O  47)          122.1309         0.466354   
    163. A(C  10,C  11,O  47)          121.4880         0.428543   
    164. A(C  10,C  11,N  12)          116.3751         0.392537   
    165. A(C  13,N  12,H  60)          118.7618         0.335748   
    166. A(C  11,N  12,C  13)          120.7740         0.400037   
    167. A(C  11,N  12,H  60)          118.4934         0.356613   
    168. A(C  14,C  13,C  45)          110.7047         0.359749   
    169. A(N  12,C  13,H  61)          108.6673         0.327270   
    170. A(C  14,C  13,H  61)          103.8099         0.319651   
    171. A(N  12,C  13,C  14)          113.1512         0.366616   
    172. A(C  45,C  13,H  61)          109.6547         0.321376   
    173. A(N  12,C  13,C  45)          110.5933         0.368692   
    174. A(C  13,C  14,N  15)          115.3420         0.391644   
    175. A(N  15,C  14,O  44)          124.2843         0.469433   
    176. A(C  13,C  14,O  44)          120.3348         0.426813   
    177. A(C  14,N  15,H  62)          117.8624         0.357677   
    178. A(C  16,N  15,H  62)          117.1003         0.337349   
    179. A(C  14,N  15,C  16)          122.2624         0.404039   
    180. A(H  63,C  16,H  64)          107.9950         0.287444   
    181. A(C  17,C  16,H  64)          111.4840         0.322100   
    182. A(N  15,C  16,H  63)          111.5368         0.329136   
    183. A(C  17,C  16,H  63)          109.7527         0.321607   
    184. A(N  15,C  16,C  17)          108.2960         0.371073   
    185. A(N  15,C  16,H  64)          107.7845         0.329645   
    186. A(O  43,C  17,H  65)          105.5060         0.334761   
    187. A(C  18,C  17,H  65)          106.6413         0.317635   
    188. A(C  16,C  17,H  65)          107.5175         0.321770   
    189. A(C  16,C  17,C  18)          113.8251         0.357375   
    190. A(C  18,C  17,O  43)          111.2830         0.372354   
    191. A(C  16,C  17,O  43)          111.5202         0.377478   
    192. A(C  19,C  18,H  66)          109.4479         0.321703   
    193. A(C  17,C  18,H  66)          105.2720         0.316759   
    194. A(C  17,C  18,C  32)          112.0781         0.357194   
    195. A(C  17,C  18,C  19)          108.2667         0.358330   
    196. A(C  19,C  18,C  32)          116.3267         0.363016   
    197. A(C  32,C  18,H  66)          104.8293         0.320722   
    198. A(C  18,C  19,N  20)          114.1575         0.395330   
    199. A(N  20,C  19,O  31)          122.7603         0.467428   
    200. A(C  18,C  19,O  31)          122.8278         0.428942   
    201. A(C  19,N  20,H  67)          121.9814         0.357422   
    202. A(C  19,N  20,C  21)          122.4357         0.403669   
    203. A(C  21,N  20,H  67)          115.5679         0.336688   
    204. A(C  27,C  21,H  68)          108.5749         0.319309   
    205. A(C  22,C  21,H  68)          111.0022         0.321884   
    206. A(N  20,C  21,H  68)          107.6984         0.328800   
    207. A(N  20,C  21,C  22)          106.0357         0.370989   
    208. A(C  22,C  21,C  27)          112.2973         0.359828   
    209. A(N  20,C  21,C  27)          111.1370         0.367870   
    210. A(C  21,C  22,N  23)          115.3464         0.394936   
    211. A(C  21,C  22,O  26)          120.6796         0.427585   
    212. A(N  23,C  22,O  26)          123.9358         0.467247   
    213. A(C  22,N  23,C  24)          121.9972         0.404122   
    214. A(C  24,N  23,H  69)          115.1446         0.336482   
    215. A(C  22,N  23,H  69)          119.3266         0.357413   
    216. A(C  25,C  24,H  70)          110.3706         0.321676   
    217. A(N  23,C  24,H  70)          106.0812         0.329556   
    218. A(C   7,C  24,H  70)          111.3274         0.322220   
    219. A(N  23,C  24,C  25)          111.6121         0.370030   
    220. A(C   7,C  24,N  23)          107.2294         0.370687   
    221. A(C   7,C  24,C  25)          110.1250         0.361460   
    222. A(H  71,C  25,H  73)          108.8027         0.288231   
    223. A(C  24,C  25,H  73)          110.1382         0.321575   
    224. A(H  71,C  25,H  72)          108.5047         0.288128   
    225. A(C  24,C  25,H  72)          110.9901         0.321454   
    226. A(C  24,C  25,H  71)          110.0409         0.321853   
    227. A(H  72,C  25,H  73)          108.3056         0.287890   
    228. A(C  28,C  27,H  75)          110.1248         0.320176   
    229. A(C  21,C  27,C  28)          115.1407         0.357415   
    230. A(H  74,C  27,H  75)          107.4237         0.287268   
    231. A(C  21,C  27,H  75)          105.3435         0.319675   
    232. A(C  28,C  27,H  74)          110.2350         0.319706   
    233. A(C  21,C  27,H  74)          108.2092         0.319206   
    234. A(C  29,C  28,C  30)          110.4086         0.361599   
    235. A(C  27,C  28,C  30)          111.8547         0.359715   
    236. A(C  27,C  28,C  29)          110.5565         0.359870   
    237. A(C  30,C  28,H  76)          108.2075         0.320542   
    238. A(C  29,C  28,H  76)          107.6048         0.320675   
    239. A(C  27,C  28,H  76)          108.0557         0.319073   
    240. A(C  28,C  29,H  79)          111.2333         0.321691   
    241. A(H  78,C  29,H  79)          107.6404         0.287254   
    242. A(H  77,C  29,H  79)          108.1263         0.287616   
    243. A(H  77,C  29,H  78)          107.8468         0.287359   
    244. A(C  28,C  29,H  78)          110.5831         0.321389   
    245. A(C  28,C  29,H  77)          111.2623         0.321813   
    246. A(H  81,C  30,H  82)          107.7884         0.287311   
    247. A(H  80,C  30,H  82)          107.3548         0.287700   
    248. A(C  28,C  30,H  82)          110.1003         0.321302   
    249. A(H  80,C  30,H  81)          108.0695         0.287938   
    250. A(C  28,C  30,H  81)          111.1172         0.321580   
    251. A(C  28,C  30,H  80)          112.2314         0.322036   
    252. A(C  33,C  32,O  42)          122.3989         0.437627   
    253. A(C  18,C  32,O  42)          119.1320         0.429153   
    254. A(C  18,C  32,C  33)          118.4271         0.368658   
    255. A(C  32,C  33,C  34)          114.8966         0.370854   
    256. A(C  34,C  33,H  84)          111.7044         0.322274   
    257. A(H  83,C  33,H  84)          103.7440         0.285611   
    258. A(C  32,C  33,H  84)          107.6361         0.326222   
    259. A(C  34,C  33,H  83)          112.0401         0.322602   
    260. A(C  32,C  33,H  83)          106.0512         0.326556   
    261. A(C  33,C  34,C  35)          112.3684         0.364712   
    262. A(H  85,C  34,H  86)          105.6661         0.287003   
    263. A(C  35,C  34,H  86)          109.9453         0.322125   
    264. A(C  33,C  34,H  86)          109.0853         0.323350   
    265. A(C  35,C  34,H  85)          109.9547         0.321950   
    266. A(C  33,C  34,H  85)          109.5977         0.323175   
    267. A(C  34,C  35,C  36)          113.2163         0.363296   
    268. A(H  87,C  35,H  88)          105.8746         0.286063   
    269. A(C  36,C  35,H  88)          109.2378         0.321451   
    270. A(C  34,C  35,H  88)          109.5208         0.321430   
    271. A(C  36,C  35,H  87)          109.3392         0.321559   
    272. A(C  34,C  35,H  87)          109.3892         0.321538   
    273. A(C  35,C  36,C  37)          113.4464         0.363300   
    274. A(H  89,C  36,H  90)          105.9048         0.286134   
    275. A(C  37,C  36,H  90)          109.3458         0.321547   
    276. A(C  35,C  36,H  90)          109.2368         0.321566   
    277. A(C  37,C  36,H  89)          109.3415         0.321510   
    278. A(C  35,C  36,H  89)          109.2894         0.321528   
    279. A(C  36,C  37,C  38)          113.5180         0.363245   
    280. A(H  91,C  37,H  92)          105.8962         0.286071   
    281. A(C  38,C  37,H  92)          109.2749         0.321447   
    282. A(C  36,C  37,H  92)          109.2993         0.321475   
    283. A(C  38,C  37,H  91)          109.2892         0.321478   
    284. A(C  36,C  37,H  91)          109.2816         0.321507   
    285. A(C  37,C  38,C  39)          113.5319         0.363246   
    286. A(H  93,C  38,H  94)          105.8908         0.286071   
    287. A(C  39,C  38,H  94)          109.2946         0.321501   
    288. A(C  37,C  38,H  94)          109.2694         0.321471   
    289. A(C  39,C  38,H  93)          109.2937         0.321485   
    290. A(C  37,C  38,H  93)          109.2776         0.321455   
    291. A(C  38,C  39,C  40)          113.5953         0.363091   
    292. A(H  95,C  39,H  96)          105.8593         0.286004   
    293. A(C  40,C  39,H  96)          109.2341         0.321285   
    294. A(C  38,C  39,H  96)          109.3160         0.321447   
    295. A(C  40,C  39,H  95)          109.2353         0.321299   
    296. A(C  38,C  39,H  95)          109.3113         0.321460   
    297. A(C  39,C  40,C  41)          113.1310         0.363160   
    298. A(H  97,C  40,H  98)          105.9360         0.286386   
    299. A(C  41,C  40,H  98)          109.6349         0.321741   
    300. A(C  39,C  40,H  98)          109.1203         0.321521   
    301. A(C  41,C  40,H  97)          109.6379         0.321733   
    302. A(C  39,C  40,H  97)          109.1257         0.321513   
    303. A(H 100,C  41,H 101)          107.4382         0.287260   
    304. A(H  99,C  41,H 101)          107.6872         0.287476   
    305. A(C  40,C  41,H 101)          111.0839         0.322255   
    306. A(H  99,C  41,H 100)          107.6906         0.287471   
    307. A(C  40,C  41,H 100)          111.0870         0.322248   
    308. A(C  40,C  41,H  99)          111.6616         0.322503   
    309. A(C  17,O  43,H 102)          104.3078         0.350144   
    310. A(C  13,C  45,C  46)          113.7582         0.362468   
    311. A(C  46,C  45,H 104)          110.6453         0.321665   
    312. A(C  13,C  45,H 104)          109.1385         0.321074   
    313. A(C  46,C  45,H 103)          109.8264         0.322409   
    314. A(C  13,C  45,H 103)          106.6945         0.321817   
    315. A(H 103,C  45,H 104)          106.4528         0.287079   
    316. A(H 106,C  46,H 107)          107.4159         0.287444   
    317. A(H 105,C  46,H 107)          107.0521         0.287611   
    318. A(C  45,C  46,H 107)          112.5863         0.322136   
    319. A(H 105,C  46,H 106)          107.9698         0.287807   
    320. A(C  45,C  46,H 106)          110.8118         0.322366   
    321. A(C  45,C  46,H 105)          110.7937         0.322563   
    322. A(C  50,C  48,H 108)          108.2068         0.321708   
    323. A(C  49,C  48,H 108)          107.7514         0.322152   
    324. A(C  10,C  48,H 108)          103.8609         0.316262   
    325. A(C  49,C  48,C  50)          112.2805         0.363102   
    326. A(C  10,C  48,C  50)          112.3138         0.356178   
    327. A(C  10,C  48,C  49)          111.9056         0.356688   
    328. A(H 110,C  49,H 111)          106.3465         0.288046   
    329. A(H 109,C  49,H 111)          108.3747         0.287615   
    330. A(C  48,C  49,H 111)          112.3204         0.322783   
    331. A(H 109,C  49,H 110)          107.5579         0.287647   
    332. A(C  48,C  49,H 110)          110.4016         0.322821   
    333. A(C  48,C  49,H 109)          111.5885         0.322314   
    334. A(H 113,C  50,H 114)          108.4391         0.287952   
    335. A(H 112,C  50,H 114)          107.6297         0.288122   
    336. A(C  48,C  50,H 114)          110.3564         0.322313   
    337. A(H 112,C  50,H 113)          107.1118         0.288102   
    338. A(C  48,C  50,H 113)          111.7046         0.322288   
    339. A(C  48,C  50,H 112)          111.4320         0.322488   
    340. D(H  51,C   2,C   1,N   9)    -57.4090         0.008870   
    341. D(C   3,C   2,C   1,N   9)    175.1115         0.008870   
    342. D(N   6,C   2,C   1,N   9)     61.5678         0.008870   
    343. D(N   6,C   2,C   1,O   0)   -116.6480         0.008870   
    344. D(C   3,C   2,C   1,O   0)     -3.1044         0.008870   
    345. D(H  51,C   2,C   1,O   0)    124.3752         0.008870   
    346. D(C   4,C   3,C   2,N   6)     34.5714         0.011407   
    347. D(H  53,C   3,C   2,H  51)    -87.4290         0.011407   
    348. D(H  53,C   3,C   2,C   1)     37.3070         0.011407   
    349. D(C   4,C   3,C   2,H  51)    152.0459         0.011407   
    350. D(H  53,C   3,C   2,N   6)    155.0965         0.011407   
    351. D(H  52,C   3,C   2,H  51)     33.6183         0.011407   
    352. D(C   4,C   3,C   2,C   1)    -83.2181         0.011407   
    353. D(H  52,C   3,C   2,C   1)    158.3543         0.011407   
    354. D(H  52,C   3,C   2,N   6)    -83.8562         0.011407   
    355. D(H  55,C   4,C   3,H  53)     81.2248         0.010607   
    356. D(H  55,C   4,C   3,H  52)    -41.6701         0.010607   
    357. D(H  54,C   4,C   3,H  52)   -162.3391         0.010607   
    358. D(H  55,C   4,C   3,C   2)   -159.0551         0.010607   
    359. D(H  54,C   4,C   3,H  53)    -39.4443         0.010607   
    360. D(C   5,C   4,C   3,C   2)    -37.3642         0.010607   
    361. D(H  54,C   4,C   3,C   2)     80.2759         0.010607   
    362. D(C   5,C   4,C   3,H  53)   -157.0844         0.010607   
    363. D(C   5,C   4,C   3,H  52)     80.0208         0.010607   
    364. D(N   6,C   5,C   4,C   3)     25.1496         0.010650   
    365. D(H  57,C   5,C   4,C   3)    -93.0786         0.010650   
    366. D(H  56,C   5,C   4,H  55)    -92.1150         0.010650   
    367. D(H  56,C   5,C   4,C   3)    145.1938         0.010650   
    368. D(H  57,C   5,C   4,H  54)    150.0729         0.010650   
    369. D(H  56,C   5,C   4,H  54)     28.3453         0.010650   
    370. D(H  57,C   5,C   4,H  55)     29.6126         0.010650   
    371. D(N   6,C   5,C   4,H  54)    -91.6989         0.010650   
    372. D(N   6,C   5,C   4,H  55)    147.8408         0.010650   
    373. D(C   5,N   6,C   2,C   3)    -19.8116         0.013755   
    374. D(C   7,N   6,C   5,H  57)    -59.9709         0.014111   
    375. D(C   7,N   6,C   5,H  56)     59.6533         0.014111   
    376. D(C   7,N   6,C   5,C   4)   -179.2885         0.014111   
    377. D(C   2,N   6,C   5,H  57)    115.9504         0.014111   
    378. D(C   2,N   6,C   5,H  56)   -124.4254         0.014111   
    379. D(C   7,N   6,C   2,H  51)     34.8890         0.013755   
    380. D(C   2,N   6,C   5,C   4)     -3.3671         0.014111   
    381. D(C   7,N   6,C   2,C   3)    156.3553         0.013755   
    382. D(C   5,N   6,C   2,C   1)     99.2889         0.013755   
    383. D(C   7,N   6,C   2,C   1)    -84.5443         0.013755   
    384. D(C   5,N   6,C   2,H  51)   -141.2779         0.013755   
    385. D(C  24,C   7,N   6,C   5)     -2.0241         0.033894   
    386. D(C  24,C   7,N   6,C   2)   -177.5905         0.033894   
    387. D(O   8,C   7,N   6,C   5)    177.6933         0.033894   
    388. D(O   8,C   7,N   6,C   2)      2.1269         0.033894   
    389. D(H  58,N   9,C   1,O   0)    177.7715         0.033328   
    390. D(C  10,N   9,C   1,C   2)   -165.9552         0.033328   
    391. D(H  58,N   9,C   1,C   2)     -0.4045         0.033328   
    392. D(C  10,N   9,C   1,O   0)     12.2208         0.033328   
    393. D(H  59,C  10,N   9,C   1)    -50.4023         0.016693   
    394. D(C  48,C  10,N   9,H  58)    -98.2910         0.016693   
    395. D(C  48,C  10,N   9,C   1)     67.5658         0.016693   
    396. D(C  11,C  10,N   9,C   1)   -169.3040         0.016693   
    397. D(H  59,C  10,N   9,H  58)    143.7409         0.016693   
    398. D(C  11,C  10,N   9,H  58)     24.8392         0.016693   
    399. D(O  47,C  11,C  10,N   9)    -37.7029         0.010246   
    400. D(N  12,C  11,C  10,H  59)     25.5816         0.010246   
    401. D(N  12,C  11,C  10,C  48)    -94.7781         0.010246   
    402. D(N  12,C  11,C  10,N   9)    143.1747         0.010246   
    403. D(O  47,C  11,C  10,H  59)   -155.2959         0.010246   
    404. D(O  47,C  11,C  10,C  48)     84.3444         0.010246   
    405. D(H  60,N  12,C  11,O  47)    172.1770         0.030233   
    406. D(H  60,N  12,C  11,C  10)     -8.7067         0.030233   
    407. D(C  13,N  12,C  11,O  47)      8.3445         0.030233   
    408. D(C  13,N  12,C  11,C  10)   -172.5392         0.030233   
    409. D(H  61,C  13,N  12,C  11)     49.6195         0.015569   
    410. D(H  61,C  13,N  12,H  60)   -114.1705         0.015569   
    411. D(C  45,C  13,N  12,H  60)      6.2409         0.015569   
    412. D(C  45,C  13,N  12,C  11)    170.0308         0.015569   
    413. D(C  14,C  13,N  12,C  11)    -65.1193         0.015569   
    414. D(C  14,C  13,N  12,H  60)    131.0907         0.015569   
    415. D(O  44,C  14,C  13,C  45)    -87.2539         0.009592   
    416. D(O  44,C  14,C  13,N  12)    147.9566         0.009592   
    417. D(N  15,C  14,C  13,H  61)   -151.8307         0.009592   
    418. D(N  15,C  14,C  13,C  45)     90.5766         0.009592   
    419. D(O  44,C  14,C  13,H  61)     30.3388         0.009592   
    420. D(N  15,C  14,C  13,N  12)    -34.2128         0.009592   
    421. D(H  62,N  15,C  14,O  44)   -178.4220         0.031751   
    422. D(H  62,N  15,C  14,C  13)      3.8442         0.031751   
    423. D(C  16,N  15,C  14,O  44)    -17.8488         0.031751   
    424. D(C  16,N  15,C  14,C  13)    164.4175         0.031751   
    425. D(H  64,C  16,N  15,H  62)    145.3803         0.016660   
    426. D(H  64,C  16,N  15,C  14)    -15.3323         0.016660   
    427. D(H  63,C  16,N  15,H  62)    -96.2355         0.016660   
    428. D(H  63,C  16,N  15,C  14)    103.0519         0.016660   
    429. D(C  17,C  16,N  15,C  14)   -136.0734         0.016660   
    430. D(C  17,C  16,N  15,H  62)     24.6391         0.016660   
    431. D(H  65,C  17,C  16,H  64)    -74.2993         0.010955   
    432. D(H  65,C  17,C  16,H  63)    166.0908         0.010955   
    433. D(H  65,C  17,C  16,N  15)     44.1160         0.010955   
    434. D(O  43,C  17,C  16,H  64)    170.4989         0.010955   
    435. D(O  43,C  17,C  16,H  63)     50.8891         0.010955   
    436. D(O  43,C  17,C  16,N  15)    -71.0858         0.010955   
    437. D(C  18,C  17,C  16,H  64)     43.5830         0.010955   
    438. D(C  18,C  17,C  16,H  63)    -76.0268         0.010955   
    439. D(C  18,C  17,C  16,N  15)    161.9983         0.010955   
    440. D(H  66,C  18,C  17,H  65)    -68.8807         0.009461   
    441. D(H  66,C  18,C  17,O  43)     45.6942         0.009461   
    442. D(H  66,C  18,C  17,C  16)    172.7335         0.009461   
    443. D(C  32,C  18,C  17,O  43)    -67.6999         0.009461   
    444. D(C  32,C  18,C  17,C  16)     59.3394         0.009461   
    445. D(C  32,C  18,C  17,H  65)    177.7252         0.009461   
    446. D(C  19,C  18,C  17,H  65)     48.0927         0.009461   
    447. D(C  19,C  18,C  17,O  43)    162.6676         0.009461   
    448. D(C  19,C  18,C  17,C  16)    -70.2931         0.009461   
    449. D(O  31,C  19,C  18,H  66)   -163.5768         0.010567   
    450. D(O  31,C  19,C  18,C  32)    -45.0511         0.010567   
    451. D(O  31,C  19,C  18,C  17)     82.1737         0.010567   
    452. D(N  20,C  19,C  18,H  66)     22.0747         0.010567   
    453. D(N  20,C  19,C  18,C  17)    -92.1748         0.010567   
    454. D(N  20,C  19,C  18,C  32)    140.6004         0.010567   
    455. D(H  67,N  20,C  19,O  31)    176.6739         0.031833   
    456. D(H  67,N  20,C  19,C  18)     -8.9733         0.031833   
    457. D(C  21,N  20,C  19,O  31)     -4.8025         0.031833   
    458. D(C  21,N  20,C  19,C  18)    169.5503         0.031833   
    459. D(H  68,C  21,N  20,H  67)    140.2986         0.016447   
    460. D(H  68,C  21,N  20,C  19)    -38.3131         0.016447   
    461. D(C  27,C  21,N  20,H  67)   -100.8945         0.016447   
    462. D(C  27,C  21,N  20,C  19)     80.4938         0.016447   
    463. D(C  22,C  21,N  20,H  67)     21.4066         0.016447   
    464. D(C  22,C  21,N  20,C  19)   -157.2051         0.016447   
    465. D(N  23,C  22,C  21,C  27)    -99.8588         0.010360   
    466. D(N  23,C  22,C  21,N  20)    138.5817         0.010360   
    467. D(O  26,C  22,C  21,H  68)   -160.2703         0.010360   
    468. D(O  26,C  22,C  21,C  27)     77.9793         0.010360   
    469. D(O  26,C  22,C  21,N  20)    -43.5802         0.010360   
    470. D(N  23,C  22,C  21,H  68)     21.8915         0.010360   
    471. D(H  69,N  23,C  22,O  26)    162.7953         0.032174   
    472. D(H  69,N  23,C  22,C  21)    -19.4457         0.032174   
    473. D(C  24,N  23,C  22,O  26)      5.0247         0.032174   
    474. D(C  24,N  23,C  22,C  21)   -177.2164         0.032174   
    475. D(H  70,C  24,N  23,H  69)   -156.8179         0.016494   
    476. D(H  70,C  24,N  23,C  22)      1.8140         0.016494   
    477. D(C  25,C  24,N  23,H  69)     82.9258         0.016494   
    478. D(C  25,C  24,N  23,C  22)   -118.4423         0.016494   
    479. D(C   7,C  24,N  23,H  69)    -37.7602         0.016494   
    480. D(C   7,C  24,N  23,C  22)    120.8717         0.016494   
    481. D(H  70,C  24,C   7,O   8)    148.5085         0.010242   
    482. D(H  70,C  24,C   7,N   6)    -31.7652         0.010242   
    483. D(C  25,C  24,C   7,O   8)    -88.7361         0.010242   
    484. D(C  25,C  24,C   7,N   6)     90.9901         0.010242   
    485. D(N  23,C  24,C   7,O   8)     32.8877         0.010242   
    486. D(N  23,C  24,C   7,N   6)   -147.3860         0.010242   
    487. D(H  73,C  25,C  24,H  70)   -177.8453         0.010724   
    488. D(H  73,C  25,C  24,N  23)    -60.1400         0.010724   
    489. D(H  73,C  25,C  24,C   7)     58.8389         0.010724   
    490. D(H  72,C  25,C  24,H  70)     62.2204         0.010724   
    491. D(H  72,C  25,C  24,N  23)    179.9258         0.010724   
    492. D(H  72,C  25,C  24,C   7)    -61.0953         0.010724   
    493. D(H  71,C  25,C  24,H  70)    -57.8989         0.010724   
    494. D(H  71,C  25,C  24,N  23)     59.8064         0.010724   
    495. D(H  71,C  25,C  24,C   7)    178.7853         0.010724   
    496. D(H  75,C  27,C  21,H  68)     60.2958         0.010092   
    497. D(H  75,C  27,C  21,C  22)   -176.5796         0.010092   
    498. D(H  75,C  27,C  21,N  20)    -57.9833         0.010092   
    499. D(H  74,C  27,C  21,H  68)    174.9496         0.010092   
    500. D(H  74,C  27,C  21,C  22)    -61.9258         0.010092   
    501. D(H  74,C  27,C  21,N  20)     56.6705         0.010092   
    502. D(C  28,C  27,C  21,H  68)    -61.2303         0.010092   
    503. D(C  28,C  27,C  21,C  22)     61.8943         0.010092   
    504. D(C  28,C  27,C  21,N  20)   -179.5094         0.010092   
    505. D(H  76,C  28,C  27,H  75)    -91.5995         0.010272   
    506. D(H  76,C  28,C  27,H  74)    150.0438         0.010272   
    507. D(H  76,C  28,C  27,C  21)     27.2997         0.010272   
    508. D(C  30,C  28,C  27,H  75)    149.3985         0.010272   
    509. D(C  30,C  28,C  27,H  74)     31.0417         0.010272   
    510. D(C  30,C  28,C  27,C  21)    -91.7023         0.010272   
    511. D(C  29,C  28,C  27,H  75)     25.9167         0.010272   
    512. D(C  29,C  28,C  27,H  74)    -92.4401         0.010272   
    513. D(C  29,C  28,C  27,C  21)    144.8159         0.010272   
    514. D(H  79,C  29,C  28,C  30)     55.2396         0.010877   
    515. D(H  79,C  29,C  28,C  27)    179.5533         0.010877   
    516. D(H  78,C  29,C  28,H  76)    177.7954         0.010877   
    517. D(H  78,C  29,C  28,C  30)    -64.3112         0.010877   
    518. D(H  78,C  29,C  28,C  27)     60.0025         0.010877   
    519. D(H  77,C  29,C  28,H  76)     57.9662         0.010877   
    520. D(H  77,C  29,C  28,C  30)    175.8596         0.010877   
    521. D(H  79,C  29,C  28,H  76)    -62.6538         0.010877   
    522. D(H  77,C  29,C  28,C  27)    -59.8267         0.010877   
    523. D(H  82,C  30,C  28,H  76)    174.5950         0.010825   
    524. D(H  82,C  30,C  28,C  29)     57.0724         0.010825   
    525. D(H  82,C  30,C  28,C  27)    -66.4928         0.010825   
    526. D(H  81,C  30,C  28,H  76)     55.2496         0.010825   
    527. D(H  81,C  30,C  28,C  29)    -62.2730         0.010825   
    528. D(H  81,C  30,C  28,C  27)    174.1618         0.010825   
    529. D(H  80,C  30,C  28,H  76)    -65.8856         0.010825   
    530. D(H  80,C  30,C  28,C  29)    176.5918         0.010825   
    531. D(H  80,C  30,C  28,C  27)     53.0266         0.010825   
    532. D(O  42,C  32,C  18,H  66)    -80.5099         0.010206   
    533. D(O  42,C  32,C  18,C  19)    158.4736         0.010206   
    534. D(O  42,C  32,C  18,C  17)     33.1575         0.010206   
    535. D(C  33,C  32,C  18,H  66)     97.1901         0.010206   
    536. D(C  33,C  32,C  18,C  19)    -23.8264         0.010206   
    537. D(C  33,C  32,C  18,C  17)   -149.1424         0.010206   
    538. D(H  84,C  33,C  32,O  42)    130.6209         0.012538   
    539. D(H  84,C  33,C  32,C  18)    -46.9996         0.012538   
    540. D(H  83,C  33,C  32,O  42)   -118.8378         0.012538   
    541. D(H  83,C  33,C  32,C  18)     63.5416         0.012538   
    542. D(C  34,C  33,C  32,O  42)      5.4960         0.012538   
    543. D(C  34,C  33,C  32,C  18)   -172.1245         0.012538   
    544. D(H  86,C  34,C  33,H  84)   -179.9625         0.011629   
    545. D(H  86,C  34,C  33,H  83)     64.1240         0.011629   
    546. D(H  86,C  34,C  33,C  32)    -56.9904         0.011629   
    547. D(H  85,C  34,C  33,H  84)    -64.7171         0.011629   
    548. D(H  85,C  34,C  33,H  83)    179.3694         0.011629   
    549. D(H  85,C  34,C  33,C  32)     58.2550         0.011629   
    550. D(C  35,C  34,C  33,H  84)     57.8481         0.011629   
    551. D(C  35,C  34,C  33,H  83)    -58.0655         0.011629   
    552. D(C  35,C  34,C  33,C  32)   -179.1798         0.011629   
    553. D(H  88,C  35,C  34,H  86)   -179.6740         0.011130   
    554. D(H  88,C  35,C  34,H  85)     64.3900         0.011130   
    555. D(H  88,C  35,C  34,C  33)    -57.9734         0.011130   
    556. D(H  87,C  35,C  34,H  86)    -64.0517         0.011130   
    557. D(H  87,C  35,C  34,H  85)   -179.9877         0.011130   
    558. D(H  87,C  35,C  34,C  33)     57.6489         0.011130   
    559. D(C  36,C  35,C  34,H  86)     58.1544         0.011130   
    560. D(C  36,C  35,C  34,H  85)    -57.7816         0.011130   
    561. D(C  36,C  35,C  34,C  33)    179.8550         0.011130   
    562. D(H  90,C  36,C  35,H  87)     64.4976         0.011139   
    563. D(H  90,C  36,C  35,C  34)    -57.7364         0.011139   
    564. D(H  89,C  36,C  35,H  88)    -64.6210         0.011139   
    565. D(H  89,C  36,C  35,H  87)    179.9423         0.011139   
    566. D(H  89,C  36,C  35,C  34)     57.7083         0.011139   
    567. D(C  37,C  36,C  35,H  88)     57.6732         0.011139   
    568. D(C  37,C  36,C  35,H  87)    -57.7635         0.011139   
    569. D(H  90,C  36,C  35,H  88)    179.9343         0.011139   
    570. D(C  37,C  36,C  35,C  34)   -179.9975         0.011139   
    571. D(H  92,C  37,C  36,H  90)   -179.8881         0.011131   
    572. D(H  92,C  37,C  36,H  89)     64.5778         0.011131   
    573. D(H  92,C  37,C  36,C  35)    -57.6875         0.011131   
    574. D(H  91,C  37,C  36,H  90)    -64.4234         0.011131   
    575. D(H  91,C  37,C  36,H  89)   -179.9574         0.011131   
    576. D(H  91,C  37,C  36,C  35)     57.7773         0.011131   
    577. D(C  38,C  37,C  36,H  90)     57.8470         0.011131   
    578. D(C  38,C  37,C  36,H  89)    -57.6871         0.011131   
    579. D(C  38,C  37,C  36,C  35)   -179.9524         0.011131   
    580. D(H  94,C  38,C  37,H  92)   -179.9959         0.011120   
    581. D(H  94,C  38,C  37,H  91)     64.5487         0.011120   
    582. D(H  94,C  38,C  37,C  36)    -57.7175         0.011120   
    583. D(H  93,C  38,C  37,H  92)    -64.5565         0.011120   
    584. D(H  93,C  38,C  37,H  91)    179.9881         0.011120   
    585. D(H  93,C  38,C  37,C  36)     57.7220         0.011120   
    586. D(C  39,C  38,C  37,H  92)     57.7262         0.011120   
    587. D(C  39,C  38,C  37,H  91)    -57.7292         0.011120   
    588. D(C  39,C  38,C  37,C  36)   -179.9953         0.011120   
    589. D(H  95,C  39,C  38,H  94)    -64.4977         0.011132   
    590. D(H  95,C  39,C  38,H  93)   -179.9600         0.011132   
    591. D(H  95,C  39,C  38,C  37)     57.7662         0.011132   
    592. D(C  40,C  39,C  38,H  94)     57.7782         0.011132   
    593. D(C  40,C  39,C  38,H  93)    -57.6841         0.011132   
    594. D(C  40,C  39,C  38,C  37)   -179.9579         0.011132   
    595. D(H  96,C  39,C  38,H  94)   -179.9439         0.011132   
    596. D(H  96,C  39,C  38,H  93)     64.5938         0.011132   
    597. D(H  96,C  39,C  38,C  37)    -57.6801         0.011132   
    598. D(H  98,C  40,C  39,H  95)     64.6354         0.011068   
    599. D(H  98,C  40,C  39,C  38)    -57.6825         0.011068   
    600. D(H  97,C  40,C  39,H  96)    -64.6779         0.011068   
    601. D(H  97,C  40,C  39,H  95)    179.9631         0.011068   
    602. D(H  97,C  40,C  39,C  38)     57.6451         0.011068   
    603. D(C  41,C  40,C  39,H  96)     57.6621         0.011068   
    604. D(C  41,C  40,C  39,H  95)    -57.6968         0.011068   
    605. D(H  98,C  40,C  39,H  96)    179.9944         0.011068   
    606. D(C  41,C  40,C  39,C  38)    179.9852         0.011068   
    607. D(H 101,C  41,C  40,H  98)    -62.2584         0.011155   
    608. D(H 101,C  41,C  40,H  97)   -178.1598         0.011155   
    609. D(H 101,C  41,C  40,C  39)     59.7863         0.011155   
    610. D(H 100,C  41,C  40,H  98)    178.2103         0.011155   
    611. D(H 100,C  41,C  40,H  97)     62.3089         0.011155   
    612. D(H 100,C  41,C  40,C  39)    -59.7450         0.011155   
    613. D(H  99,C  41,C  40,H  98)     57.9727         0.011155   
    614. D(H  99,C  41,C  40,H  97)    -57.9287         0.011155   
    615. D(H  99,C  41,C  40,C  39)   -179.9826         0.011155   
    616. D(H 102,O  43,C  17,H  65)    171.6888         0.018809   
    617. D(H 102,O  43,C  17,C  18)     56.4101         0.018809   
    618. D(H 102,O  43,C  17,C  16)    -71.8768         0.018809   
    619. D(H 104,C  45,C  13,H  61)    178.9964         0.010880   
    620. D(H 104,C  45,C  13,C  14)    -67.0522         0.010880   
    621. D(H 104,C  45,C  13,N  12)     59.1765         0.010880   
    622. D(H 103,C  45,C  13,H  61)    -66.3542         0.010880   
    623. D(H 103,C  45,C  13,C  14)     47.5973         0.010880   
    624. D(H 103,C  45,C  13,N  12)    173.8260         0.010880   
    625. D(C  46,C  45,C  13,H  61)     54.9042         0.010880   
    626. D(C  46,C  45,C  13,C  14)    168.8557         0.010880   
    627. D(C  46,C  45,C  13,N  12)    -64.9156         0.010880   
    628. D(H 107,C  46,C  45,H 104)    -60.5369         0.011112   
    629. D(H 107,C  46,C  45,H 103)   -177.7678         0.011112   
    630. D(H 107,C  46,C  45,C  13)     62.7372         0.011112   
    631. D(H 106,C  46,C  45,H 104)    179.1377         0.011112   
    632. D(H 106,C  46,C  45,H 103)     61.9068         0.011112   
    633. D(H 106,C  46,C  45,C  13)    -57.5883         0.011112   
    634. D(H 105,C  46,C  45,H 104)     59.3105         0.011112   
    635. D(H 105,C  46,C  45,H 103)    -57.9204         0.011112   
    636. D(H 105,C  46,C  45,C  13)   -177.4154         0.011112   
    637. D(H 108,C  48,C  10,H  59)     56.9177         0.009081   
    638. D(H 108,C  48,C  10,C  11)    179.0404         0.009081   
    639. D(H 108,C  48,C  10,N   9)    -61.7307         0.009081   
    640. D(C  50,C  48,C  10,H  59)    173.6060         0.009081   
    641. D(C  50,C  48,C  10,C  11)    -64.2713         0.009081   
    642. D(C  50,C  48,C  10,N   9)     54.9576         0.009081   
    643. D(C  49,C  48,C  10,H  59)    -59.0390         0.009081   
    644. D(C  49,C  48,C  10,C  11)     63.0838         0.009081   
    645. D(C  49,C  48,C  10,N   9)   -177.6874         0.009081   
    646. D(H 111,C  49,C  48,C  50)     54.9299         0.011190   
    647. D(H 111,C  49,C  48,C  10)    -72.4430         0.011190   
    648. D(H 110,C  49,C  48,H 108)     55.4796         0.011190   
    649. D(H 110,C  49,C  48,C  50)    -63.5791         0.011190   
    650. D(H 110,C  49,C  48,C  10)    169.0480         0.011190   
    651. D(H 109,C  49,C  48,H 108)    -64.0789         0.011190   
    652. D(H 109,C  49,C  48,C  50)    176.8624         0.011190   
    653. D(H 111,C  49,C  48,H 108)    173.9886         0.011190   
    654. D(H 109,C  49,C  48,C  10)     49.4895         0.011190   
    655. D(H 114,C  50,C  48,H 108)    -67.9103         0.011014   
    656. D(H 114,C  50,C  48,C  49)     50.8810         0.011014   
    657. D(H 114,C  50,C  48,C  10)    178.0359         0.011014   
    658. D(H 113,C  50,C  48,H 108)    171.3729         0.011014   
    659. D(H 113,C  50,C  48,C  49)    -69.8359         0.011014   
    660. D(H 113,C  50,C  48,C  10)     57.3191         0.011014   
    661. D(H 112,C  50,C  48,H 108)     51.6066         0.011014   
    662. D(H 112,C  50,C  48,C  49)    170.3979         0.011014   
    663. D(H 112,C  50,C  48,C  10)    -62.4472         0.011014   
    -----------------------------------------------------------------

Number of atoms                         .... 115
Number of degrees of freedom            .... 663

         *************************************************************
         *                GEOMETRY OPTIMIZATION CYCLE   1            *
         *************************************************************
---------------------------------
CARTESIAN COORDINATES (ANGSTROEM)
---------------------------------
  O      6.800209   -1.686295    2.925638
  C      6.437342   -0.663312    2.338795
  C      6.779726    0.757875    2.866441
  C      7.526954    0.701805    4.196522
  C      6.393227    0.553669    5.223944
  C      5.264273    1.435522    4.668206
  N      5.534291    1.477482    3.216810
  C      4.820731    2.144461    2.282890
  O      5.140281    2.162317    1.081598
  N      5.683278   -0.660968    1.214817
  C      5.012140   -1.859221    0.737600
  C      4.501300   -1.532071   -0.669947
  N      4.554790   -2.544292   -1.585316
  C      4.246206   -2.296771   -2.994241
  C      2.777976   -1.887495   -3.230637
  N      1.871001   -2.469056   -2.401371
  C      0.515002   -1.963796   -2.257413
  C      0.160055   -1.956512   -0.766637
  C     -1.053434   -1.051767   -0.414688
  C     -0.628080    0.406494   -0.581810
  N     -0.151131    0.980524    0.554245
  C      0.507420    2.279028    0.555991
  C      1.375946    2.311076    1.816491
  N      2.608982    2.857712    1.659093
  C      3.575056    2.907688    2.746700
  C      3.945369    4.353405    3.108266
  O      0.937026    1.897746    2.895448
  C     -0.525140    3.427204    0.526487
  C      0.074764    4.847509    0.514126
  C     -0.786058    5.788228   -0.337743
  C      0.239711    5.410161    1.931861
  O     -0.615461    0.978597   -1.675169
  C     -2.325098   -1.478564   -1.157424
  C     -3.333192   -0.422111   -1.516197
  C     -4.645284   -0.952832   -2.080941
  C     -5.619354    0.169939   -2.444286
  C     -6.942830   -0.341545   -3.016906
  C     -7.920963    0.777036   -3.382177
  C     -9.245713    0.267231   -3.954001
  C    -10.224045    1.385558   -4.319488
  C    -11.550322    0.877087   -4.890779
  C    -12.520311    2.003595   -5.252094
  O     -2.504970   -2.669157   -1.399655
  O     -0.017994   -3.280507   -0.264378
  O      2.487773   -1.119267   -4.142810
  C      4.613618   -3.515698   -3.849080
  C      6.113474   -3.818545   -3.878650
  O      4.052883   -0.420143   -0.948888
  C      3.872136   -2.291596    1.711037
  C      3.191513   -3.582993    1.254851
  C      2.867042   -1.164425    1.966697
  H      7.299597    1.321888    2.079213
  H      8.081519    1.639077    4.349579
  H      8.225577   -0.141443    4.222704
  H      6.073382   -0.496113    5.255851
  H      6.684145    0.855761    6.237533
  H      4.267189    1.020240    4.871590
  H      5.304219    2.453549    5.086731
  H      5.392266    0.236360    0.803312
  H      5.745188   -2.681241    0.701640
  H      5.043314   -3.398637   -1.334872
  H      4.821295   -1.420088   -3.332429
  H      2.221767   -3.071890   -1.661297
  H     -0.208492   -2.584455   -2.809306
  H      0.487314   -0.950870   -2.682683
  H      1.025405   -1.549109   -0.222040
  H     -1.267199   -1.252939    0.650868
  H     -0.212456    0.517595    1.459272
  H      1.127375    2.341272   -0.352255
  H      3.006229    2.932852    0.722872
  H      3.097147    2.410457    3.601105
  H      3.049179    4.904487    3.419369
  H      4.673898    4.379255    3.930908
  H      4.388089    4.859048    2.239291
  H     -1.199743    3.305898    1.389335
  H     -1.120273    3.259982   -0.382788
  H      1.074374    4.793102    0.045700
  H     -0.852829    5.435931   -1.376988
  H     -1.809625    5.847619    0.065015
  H     -0.372133    6.807324   -0.347783
  H      0.801539    4.730702    2.585510
  H      0.762239    6.377869    1.915832
  H     -0.747589    5.568501    2.393466
  H     -2.823830    0.259356   -2.221207
  H     -3.497402    0.203370   -0.618182
  H     -5.112400   -1.634790   -1.352165
  H     -4.432413   -1.567544   -2.969316
  H     -5.142379    0.847001   -3.174467
  H     -5.823378    0.785428   -1.549935
  H     -7.418639   -1.019388   -2.286446
  H     -6.738975   -0.955728   -3.911463
  H     -7.444470    1.453810   -4.113204
  H     -8.122775    1.392118   -2.487316
  H     -9.721986   -0.409756   -3.222841
  H     -9.043815   -0.347825   -4.848704
  H     -9.748259    2.062406   -5.051283
  H    -10.425463    2.001616   -3.425017
  H    -12.023691    0.200687   -4.158673
  H    -11.346983    0.262139   -5.784072
  H    -13.463564    1.611975   -5.659193
  H    -12.764848    2.614021   -4.369320
  H    -12.083599    2.675284   -6.006913
  H     -0.869345   -3.577144   -0.657469
  H      4.255205   -3.307009   -4.867237
  H      4.046787   -4.392152   -3.491797
  H      6.326475   -4.669999   -4.539382
  H      6.679836   -2.951794   -4.248947
  H      6.513056   -4.073139   -2.885037
  H      4.398082   -2.504578    2.655397
  H      3.927220   -4.367916    1.021198
  H      2.534528   -3.969472    2.045565
  H      2.555954   -3.430240    0.372023
  H      3.344778   -0.303434    2.451879
  H      2.417918   -0.800791    1.032212
  H      2.061164   -1.513427    2.626762

----------------------------
CARTESIAN COORDINATES (A.U.)
----------------------------
  NO LB      ZA    FRAG     MASS         X           Y           Z
   0 O     8.0000    0    15.999   12.850534   -3.186637    5.528654
   1 C     6.0000    0    12.011   12.164814   -1.253479    4.419683
   2 C     6.0000    0    12.011   12.811825    1.432176    5.416788
   3 C     6.0000    0    12.011   14.223881    1.326220    7.930277
   4 C     6.0000    0    12.011   12.081449    1.046284    9.871824
   5 C     6.0000    0    12.011    9.948034    2.712744    8.821631
   6 N     7.0000    0    14.007   10.458295    2.792037    6.078890
   7 C     6.0000    0    12.011    9.109861    4.052443    4.314037
   8 O     8.0000    0    15.999    9.713723    4.086187    2.043925
   9 N     7.0000    0    14.007   10.739839   -1.249048    2.295671
  10 C     6.0000    0    12.011    9.471572   -3.513419    1.393861
  11 C     6.0000    0    12.011    8.506225   -2.895195   -1.266015
  12 N     7.0000    0    14.007    8.607305   -4.808015   -2.995813
  13 C     6.0000    0    12.011    8.024167   -4.340268   -5.658296
  14 C     6.0000    0    12.011    5.249614   -3.566848   -6.105019
  15 N     7.0000    0    14.007    3.535680   -4.665841   -4.537934
  16 C     6.0000    0    12.011    0.973212   -3.711037   -4.265893
  17 C     6.0000    0    12.011    0.302460   -3.697272   -1.448735
  18 C     6.0000    0    12.011   -1.990702   -1.987552   -0.783647
  19 C     6.0000    0    12.011   -1.186899    0.768163   -1.099461
  20 N     7.0000    0    14.007   -0.285596    1.852923    1.047372
  21 C     6.0000    0    12.011    0.958885    4.306739    1.050671
  22 C     6.0000    0    12.011    2.600161    4.367301    3.432671
  23 N     7.0000    0    14.007    4.930261    5.400294    3.135231
  24 C     6.0000    0    12.011    6.755876    5.494735    5.190511
  25 C     6.0000    0    12.011    7.455667    8.226744    5.873772
  26 O     8.0000    0    15.999    1.770723    3.586221    5.471604
  27 C     6.0000    0    12.011   -0.992370    6.476476    0.994916
  28 C     6.0000    0    12.011    0.141284    9.160464    0.971558
  29 C     6.0000    0    12.011   -1.485435   10.938166   -0.638241
  30 C     6.0000    0    12.011    0.452989   10.223723    3.650688
  31 O     8.0000    0    15.999   -1.163053    1.849281   -3.165611
  32 C     6.0000    0    12.011   -4.393798   -2.794080   -2.187215
  33 C     6.0000    0    12.011   -6.298820   -0.797675   -2.865197
  34 C     6.0000    0    12.011   -8.778314   -1.800591   -3.932408
  35 C     6.0000    0    12.011  -10.619039    0.321138   -4.619031
  36 C     6.0000    0    12.011  -13.120048   -0.645427   -5.701126
  37 C     6.0000    0    12.011  -14.968452    1.468384   -6.391389
  38 C     6.0000    0    12.011  -17.471866    0.504993   -7.471978
  39 C     6.0000    0    12.011  -19.320645    2.618325   -8.162650
  40 C     6.0000    0    12.011  -21.826945    1.657455   -9.242233
  41 C     6.0000    0    12.011  -23.659959    3.786246   -9.925019
  42 O     8.0000    0    15.999   -4.733708   -5.043976   -2.644964
  43 O     8.0000    0    15.999   -0.034005   -6.199259   -0.499602
  44 O     8.0000    0    15.999    4.701209   -2.115107   -7.828777
  45 C     6.0000    0    12.011    8.718475   -6.643707   -7.273708
  46 C     6.0000    0    12.011   11.552792   -7.216004   -7.329585
  47 O     8.0000    0    15.999    7.658838   -0.793954   -1.793139
  48 C     6.0000    0    12.011    7.317276   -4.330488    3.233392
  49 C     6.0000    0    12.011    6.031085   -6.770876    2.371325
  50 C     6.0000    0    12.011    5.417924   -2.200445    3.716519
  51 H     1.0000    0     1.008   13.794240    2.498006    3.929143
  52 H     1.0000    0     1.008   15.271858    3.097406    8.219513
  53 H     1.0000    0     1.008   15.544088   -0.267289    7.979754
  54 H     1.0000    0     1.008   11.477029   -0.937518    9.932118
  55 H     1.0000    0     1.008   12.631203    1.617154   11.787229
  56 H     1.0000    0     1.008    8.063819    1.927974    9.205970
  57 H     1.0000    0     1.008   10.023521    4.636535    9.612529
  58 H     1.0000    0     1.008   10.189905    0.446656    1.518040
  59 H     1.0000    0     1.008   10.856832   -5.066811    1.325907
  60 H     1.0000    0     1.008    9.530483   -6.422494   -2.522543
  61 H     1.0000    0     1.008    9.110926   -2.683577   -6.297379
  62 H     1.0000    0     1.008    4.198531   -5.805031   -3.139396
  63 H     1.0000    0     1.008   -0.393992   -4.883911   -5.308820
  64 H     1.0000    0     1.008    0.920891   -1.796884   -5.069537
  65 H     1.0000    0     1.008    1.937735   -2.927391   -0.419595
  66 H     1.0000    0     1.008   -2.394659   -2.367711    1.229963
  67 H     1.0000    0     1.008   -0.401485    0.978112    2.757624
  68 H     1.0000    0     1.008    2.130431    4.424362   -0.665666
  69 H     1.0000    0     1.008    5.680950    5.542288    1.366030
  70 H     1.0000    0     1.008    5.852760    4.555103    6.805103
  71 H     1.0000    0     1.008    5.762113    9.268137    6.461671
  72 H     1.0000    0     1.008    8.832388    8.275592    7.428340
  73 H     1.0000    0     1.008    8.292286    9.182270    4.231646
  74 H     1.0000    0     1.008   -2.267186    6.247242    2.625462
  75 H     1.0000    0     1.008   -2.117010    6.160474   -0.723365
  76 H     1.0000    0     1.008    2.030273    9.057650    0.086360
  77 H     1.0000    0     1.008   -1.611613   10.272421   -2.602130
  78 H     1.0000    0     1.008   -3.419695   11.050399    0.122860
  79 H     1.0000    0     1.008   -0.703229   12.863978   -0.657215
  80 H     1.0000    0     1.008    1.514689    8.939731    4.885906
  81 H     1.0000    0     1.008    1.440423   12.052425    3.620397
  82 H     1.0000    0     1.008   -1.412738   10.522942    4.522995
  83 H     1.0000    0     1.008   -5.336266    0.490113   -4.197473
  84 H     1.0000    0     1.008   -6.609131    0.384314   -1.168195
  85 H     1.0000    0     1.008   -9.661037   -3.089305   -2.555222
  86 H     1.0000    0     1.008   -8.376046   -2.962230   -5.611193
  87 H     1.0000    0     1.008   -9.717687    1.600600   -5.998874
  88 H     1.0000    0     1.008  -11.004590    1.484245   -2.928954
  89 H     1.0000    0     1.008  -14.019195   -1.926365   -4.320756
  90 H     1.0000    0     1.008  -12.734817   -1.806065   -7.391594
  91 H     1.0000    0     1.008  -14.068009    2.747302   -7.772830
  92 H     1.0000    0     1.008  -15.349821    2.630722   -4.700346
  93 H     1.0000    0     1.008  -18.371891   -0.774327   -6.090287
  94 H     1.0000    0     1.008  -17.090334   -0.657294   -9.162723
  95 H     1.0000    0     1.008  -18.421540    3.897383   -9.545542
  96 H     1.0000    0     1.008  -19.701270    3.782506   -6.472344
  97 H     1.0000    0     1.008  -22.721483    0.379244   -7.858753
  98 H     1.0000    0     1.008  -21.442690    0.495370  -10.930313
  99 H     1.0000    0     1.008  -25.442450    3.046190  -10.694325
 100 H     1.0000    0     1.008  -24.122066    4.939783   -8.256818
 101 H     1.0000    0     1.008  -22.834692    5.055555  -11.351420
 102 H     1.0000    0     1.008   -1.642825   -6.759822   -1.242436
 103 H     1.0000    0     1.008    8.041173   -6.249342   -9.197744
 104 H     1.0000    0     1.008    7.647319   -8.299964   -6.598540
 105 H     1.0000    0     1.008   11.955306   -8.825019   -8.578189
 106 H     1.0000    0     1.008   12.623062   -5.578082   -8.029346
 107 H     1.0000    0     1.008   12.307893   -7.697118   -5.451931
 108 H     1.0000    0     1.008    8.311170   -4.732966    5.017974
 109 H     1.0000    0     1.008    7.421370   -8.254166    1.929785
 110 H     1.0000    0     1.008    4.789563   -7.501215    3.865558
 111 H     1.0000    0     1.008    4.830053   -6.482215    0.703022
 112 H     1.0000    0     1.008    6.320714   -0.573407    4.633380
 113 H     1.0000    0     1.008    4.569203   -1.513275    1.950599
 114 H     1.0000    0     1.008    3.895036   -2.859962    4.963861

--------------------------------
INTERNAL COORDINATES (ANGSTROEM)
--------------------------------
 O      0   0   0     0.000000000000     0.00000000     0.00000000
 C      1   0   0     1.233916981691     0.00000000     0.00000000
 C      2   1   0     1.554158557115   122.13180484     0.00000000
 C      3   2   1     1.526633568100   111.71798589   356.89563513
 C      4   3   2     1.537165179198   102.99547394   276.78185391
 C      5   4   3     1.536569953345   104.17265495   322.63581881
 N      6   5   4     1.476895747110   103.73354537    25.14960693
 C      7   6   5     1.351383021676   126.62945653   180.71152606
 O      8   7   6     1.243194605778   122.62630220   177.69327692
 N      2   1   3     1.353494338872   124.07097463   181.97124715
 C     10   2   1     1.453951084300   121.89080084    12.22078701
 C     11  10   2     1.532700293744   106.22186591   190.69601479
 N     12  11  10     1.365779121454   116.37507632   143.17465542
 C     13  12  11     1.463407435709   120.77396406   187.46083558
 C     14  13  12     1.542430036593   113.15119687   294.88066325
 N     15  14  13     1.359594808661   115.34203619   325.78716570
 C     16  15  14     1.454216739166   122.26244002   164.41746936
 C     17  16  15     1.532466460833   108.29602925   223.92655657
 C     18  17  16     1.554022985668   113.82506420   161.99832920
 C     19  18  17     1.528195380196   108.26667612   289.70693373
 N     20  19  18     1.359269045956   114.15754075   267.82522122
 C     21  20  19     1.455954766919   122.43566074   169.55028524
 C     22  21  20     1.531085910934   106.03571109   202.79490087
 N     23  22  21     1.357925599532   115.34636726   138.58172258
 C     24  23  22     1.455571115252   121.99723242   182.78363613
 C     25  24  23     1.535564897596   111.61212175   241.55773726
 O     23  22  21     1.235977286361   120.67959506   316.41984963
 C     22  21  20     1.544460407023   111.13695187    80.49379687
 C     28  22  21     1.541850695431   115.14065225   180.49064291
 C     29  28  22     1.533508815157   110.55648436   144.81586986
 C     29  28  22     1.534196012282   111.85468379   268.29768976
 O     20  19  18     1.234057202574   122.82784484    82.17373091
 C     19  18  17     1.533277534351   112.07806880    59.33943423
 C     33  19  18     1.503683145730   118.42707325   210.85755846
 C     34  33  19     1.523871207836   114.89659362   187.87548642
 C     35  34  33     1.530178279993   112.36840492   180.82015512
 C     36  35  34     1.530065748798   113.21631311   179.85503197
 C     37  36  35     1.530160367062   113.44642297   180.00251427
 C     38  37  36     1.530308547570   113.51804522   180.04758704
 C     39  38  37     1.530153626396   113.53193471   180.00466956
 C     40  39  38     1.530988609750   113.59533130   180.04212185
 C     41  40  39     1.529852160933   113.13104497   179.98522366
 O     33  19  18     1.228227640482   119.13198201    33.15752259
 O     18  17  16     1.427209737535   111.52018957   288.91420296
 O     15  14  13     1.227376363994   120.33484039   147.95664637
 C     14  13  12     1.533468391440   110.59326079   170.03083955
 C     46  14  13     1.530411168103   113.75823190   295.08440374
 O     12  11  10     1.230964111282   121.48797369   322.29712346
 C     11  10   2     1.560172445585   111.15500933    67.56577490
 C     49  11  10     1.529398924490   111.90558345   182.31259006
 C     49  11  10     1.531694457471   112.31376968    54.95756672
 H      3   2   1     1.099137888727   109.28546212   124.37516362
 H      4   3   2     1.099748692184   109.68039584   158.35432032
 H      4   3   2     1.095366558959   111.17862186    37.30704447
 H      5   4   3     1.097890099976   109.05268413    80.27588541
 H      5   4   3     1.096929188507   113.29476516   200.94494046
 H      6   5   4     1.099090483551   112.50473807   145.19378476
 H      6   5   4     1.101425059358   111.49234404   266.92140180
 H     10   2   1     1.029184699792   119.41139838   177.77146633
 H     11  10   2     1.101984278268   108.56701328   309.59772397
 H     13  12  11     1.015521687390   118.49339123   351.29329871
 H     14  13  12     1.101667117090   108.66728664    49.61945403
 H     16  15  14     1.016934325729   117.86244010     3.84420170
 H     17  16  15     1.101474332381   111.53681888   103.05193909
 H     17  16  15     1.098926790034   107.78454803   344.66771396
 H     18  17  16     1.100633555975   107.51746924    44.11597661
 H     19  18  17     1.105249401623   105.27198114   172.73352846
 H     21  20  19     1.018399596761   121.98139225   351.02672021
 H     22  21  20     1.101421844475   107.69835988   321.68687228
 H     24  23  22     1.019784959616   119.32664372   340.55425933
 H     25  24  23     1.098018068280   106.08119051     1.81399872
 H     26  25  24     1.097101998699   110.04086152    59.80644287
 H     26  25  24     1.099164437544   110.99008498   179.92580606
 H     26  25  24     1.098541503612   110.13817820   299.86004180
 H     28  22  21     1.101958027748   108.20916909    56.67052042
 H     28  22  21     1.099512666086   105.34346920   302.01673256
 H     29  28  22     1.105261913315   108.05568911    27.29973781
 H     30  29  28     1.099364547019   111.26228683   300.17332637
 H     30  29  28     1.101557528019   110.58314102    60.00245489
 H     30  29  28     1.099996175612   111.23325852   179.55326784
 H     31  29  28     1.097530009297   112.23140659    53.02657932
 H     31  29  28     1.099886200072   111.11724646   174.16180750
 H     31  29  28     1.101322956889   110.10028866   293.50716219
 H     34  33  19     1.104937250712   106.05121429    63.54161049
 H     34  33  19     1.106627033740   107.63605802   313.00039351
 H     35  34  33     1.101988803621   109.59774789    58.25500132
 H     35  34  33     1.101088414577   109.08534123   303.00961849
 H     36  35  34     1.104120700512   109.38918389    57.64890028
 H     36  35  34     1.104679133817   109.52075802   302.02660331
 H     37  36  35     1.104281018005   109.28944629    57.70828580
 H     37  36  35     1.104087950790   109.23682510   302.26362086
 H     38  37  36     1.104296118914   109.28164232    57.77727171
 H     38  37  36     1.104460158913   109.29933986   302.31248630
 H     39  38  37     1.104418935046   109.27761123    57.72196855
 H     39  38  37     1.104332676092   109.26936709   302.28253661
 H     40  39  38     1.104544898243   109.31125244    57.76617877
 H     40  39  38     1.104615574840   109.31595064   302.31994377
 H     41  40  39     1.103437853465   109.12572857    57.64514456
 H     41  40  39     1.103395182990   109.12031188   302.31746597
 H     42  41  40     1.099465092385   111.66158263   180.01739384
 H     42  41  40     1.100775757114   111.08704288   300.25500290
 H     42  41  40     1.100743407988   111.08390246    59.78634047
 H     44  18  17     0.983520564587   104.30776044   288.12316467
 H     46  14  13     1.099387635169   106.69445925   173.82600386
 H     46  14  13     1.103231144904   109.13854748    59.17652571
 H     47  46  14     1.098595313506   110.79366274   182.58457739
 H     47  46  14     1.099610733491   110.81183563   302.41172390
 H     47  46  14     1.100795023565   112.58630654    62.73716911
 H     49  11  10     1.101724492587   103.86085645   298.26925483
 H     50  49  11     1.100891669917   111.58851140    49.48952878
 H     50  49  11     1.098282333546   110.40157038   169.04796579
 H     50  49  11     1.098478000371   112.32042889   287.55696606
 H     51  49  11     1.097697044031   111.43204245   297.55280517
 H     51  49  11     1.098728371960   111.70462443    57.31907755
 H     51  49  11     1.098601988680   110.35642821   178.03593333

---------------------------
INTERNAL COORDINATES (A.U.)
---------------------------
 O      0   0   0     0.000000000000     0.00000000     0.00000000
 C      1   0   0     2.331765167390     0.00000000     0.00000000
 C      2   1   0     2.936934041638   122.13180484     0.00000000
 C      3   2   1     2.884919350561   111.71798589   356.89563513
 C      4   3   2     2.904821211283   102.99547394   276.78185391
 C      5   4   3     2.903696397434   104.17265495   322.63581881
 N      6   5   4     2.790928490390   103.73354537    25.14960693
 C      7   6   5     2.553743812998   126.62945653   180.71152606
 O      8   7   6     2.349297336089   122.62630220   177.69327692
 N      2   1   3     2.557733624280   124.07097463   181.97124715
 C     10   2   1     2.747569361445   121.89080084    12.22078701
 C     11  10   2     2.896383800557   106.22186591   190.69601479
 N     12  11  10     2.580948498976   116.37507632   143.17465542
 C     13  12  11     2.765439275834   120.77396406   187.46083558
 C     14  13  12     2.914770349894   113.15119687   294.88066325
 N     15  14  13     2.569261841470   115.34203619   325.78716570
 C     16  15  14     2.748071376389   122.26244002   164.41746936
 C     17  16  15     2.895941920395   108.29602925   223.92655657
 C     18  17  16     2.936677848732   113.82506420   161.99832920
 C     19  18  17     2.887870747694   108.26667612   289.70693373
 N     20  19  18     2.568646239173   114.15754075   267.82522122
 C     21  20  19     2.751355772854   122.43566074   169.55028524
 C     22  21  20     2.893333059171   106.03571109   202.79490087
 N     23  22  21     2.566107493357   115.34636726   138.58172258
 C     24  23  22     2.750630776273   121.99723242   182.78363613
 C     25  24  23     2.901797117319   111.61212175   241.55773726
 O     23  22  21     2.335658578970   120.67959506   316.41984963
 C     22  21  20     2.918607193957   111.13695187    80.49379687
 C     28  22  21     2.913675553761   115.14065225   180.49064291
 C     29  28  22     2.897911684601   110.55648436   144.81586986
 C     29  28  22     2.899210298967   111.85468379   268.29768976
 O     20  19  18     2.332030146457   122.82784484    82.17373091
 C     19  18  17     2.897474627218   112.07806880    59.33943423
 C     33  19  18     2.841549337623   118.42707325   210.85755846
 C     34  33  19     2.879699246178   114.89659362   187.87548642
 C     35  34  33     2.891617885262   112.36840492   180.82015512
 C     36  35  34     2.891405232122   113.21631311   179.85503197
 C     37  36  35     2.891584034728   113.44642297   180.00251427
 C     38  37  36     2.891864055307   113.51804522   180.04758704
 C     39  38  37     2.891571296716   113.53193471   180.00466956
 C     40  39  38     2.893149186580   113.59533130   180.04212185
 C     41  40  39     2.891001609552   113.13104497   179.98522366
 O     33  19  18     2.321013870624   119.13198201    33.15752259
 O     18  17  16     2.697035539607   111.52018957   288.91420296
 O     15  14  13     2.319405191197   120.33484039   147.95664637
 C     14  13  12     2.897835294847   110.59326079   170.03083955
 C     46  14  13     2.892057980009   113.75823190   295.08440374
 O     12  11  10     2.326185051009   121.48797369   322.29712346
 C     11  10   2     2.948298643847   111.15500933    67.56577490
 C     49  11  10     2.890145116800   111.90558345   182.31259006
 C     49  11  10     2.894483045466   112.31376968    54.95756672
 H      3   2   1     2.077069593110   109.28546212   124.37516362
 H      4   3   2     2.078223844366   109.68039584   158.35432032
 H      4   3   2     2.069942812688   111.17862186    37.30704447
 H      5   4   3     2.074711614098   109.05268413    80.27588541
 H      5   4   3     2.072895754583   113.29476516   200.94494046
 H      6   5   4     2.076980010310   112.50473807   145.19378476
 H      6   5   4     2.081391719224   111.49234404   266.92140180
 H     10   2   1     1.944877223829   119.41139838   177.77146633
 H     11  10   2     2.082448489813   108.56701328   309.59772397
[...]
freq.      84.23  E(vib)   ...       0.48 
freq.      89.68  E(vib)   ...       0.47 
freq.      93.43  E(vib)   ...       0.47 
freq.      97.22  E(vib)   ...       0.46 
freq.     100.25  E(vib)   ...       0.46 
freq.     103.53  E(vib)   ...       0.46 
freq.     109.62  E(vib)   ...       0.45 
freq.     110.36  E(vib)   ...       0.45 
freq.     113.77  E(vib)   ...       0.44 
freq.     117.96  E(vib)   ...       0.44 
freq.     122.87  E(vib)   ...       0.43 
freq.     126.24  E(vib)   ...       0.43 
freq.     132.69  E(vib)   ...       0.42 
freq.     133.15  E(vib)   ...       0.42 
freq.     137.54  E(vib)   ...       0.42 
freq.     148.15  E(vib)   ...       0.41 
freq.     153.14  E(vib)   ...       0.40 
freq.     157.57  E(vib)   ...       0.40 
freq.     164.22  E(vib)   ...       0.39 
freq.     168.35  E(vib)   ...       0.38 
freq.     175.76  E(vib)   ...       0.38 
freq.     179.46  E(vib)   ...       0.37 
freq.     195.00  E(vib)   ...       0.36 
freq.     202.71  E(vib)   ...       0.35 
freq.     204.91  E(vib)   ...       0.35 
freq.     208.17  E(vib)   ...       0.34 
freq.     214.63  E(vib)   ...       0.34 
freq.     217.25  E(vib)   ...       0.34 
freq.     223.64  E(vib)   ...       0.33 
freq.     224.71  E(vib)   ...       0.33 
freq.     227.19  E(vib)   ...       0.33 
freq.     227.55  E(vib)   ...       0.33 
freq.     232.09  E(vib)   ...       0.32 
freq.     237.19  E(vib)   ...       0.32 
freq.     241.56  E(vib)   ...       0.31 
freq.     256.53  E(vib)   ...       0.30 
freq.     262.07  E(vib)   ...       0.29 
freq.     273.74  E(vib)   ...       0.28 
freq.     279.13  E(vib)   ...       0.28 
freq.     284.10  E(vib)   ...       0.28 
freq.     294.27  E(vib)   ...       0.27 
freq.     296.17  E(vib)   ...       0.27 
freq.     303.86  E(vib)   ...       0.26 
freq.     312.37  E(vib)   ...       0.25 
freq.     319.42  E(vib)   ...       0.25 
freq.     331.97  E(vib)   ...       0.24 
freq.     333.95  E(vib)   ...       0.24 
freq.     337.17  E(vib)   ...       0.24 
freq.     351.53  E(vib)   ...       0.23 
freq.     359.32  E(vib)   ...       0.22 
freq.     368.60  E(vib)   ...       0.21 
freq.     374.74  E(vib)   ...       0.21 
freq.     378.83  E(vib)   ...       0.21 
freq.     394.06  E(vib)   ...       0.20 
freq.     397.74  E(vib)   ...       0.20 
freq.     409.07  E(vib)   ...       0.19 
freq.     421.08  E(vib)   ...       0.18 
freq.     438.12  E(vib)   ...       0.17 
freq.     454.84  E(vib)   ...       0.16 
freq.     457.93  E(vib)   ...       0.16 
freq.     465.63  E(vib)   ...       0.16 
freq.     470.18  E(vib)   ...       0.16 
freq.     476.27  E(vib)   ...       0.15 
freq.     480.66  E(vib)   ...       0.15 
freq.     493.71  E(vib)   ...       0.14 
freq.     511.64  E(vib)   ...       0.14 
freq.     520.02  E(vib)   ...       0.13 
freq.     535.74  E(vib)   ...       0.12 
freq.     550.35  E(vib)   ...       0.12 
freq.     555.79  E(vib)   ...       0.12 
freq.     566.36  E(vib)   ...       0.11 
freq.     574.80  E(vib)   ...       0.11 
freq.     608.76  E(vib)   ...       0.10 
freq.     621.71  E(vib)   ...       0.09 
freq.     631.51  E(vib)   ...       0.09 
freq.     644.55  E(vib)   ...       0.09 
freq.     650.49  E(vib)   ...       0.08 
freq.     677.68  E(vib)   ...       0.08 
freq.     680.51  E(vib)   ...       0.08 
freq.     697.38  E(vib)   ...       0.07 
freq.     711.58  E(vib)   ...       0.07 
freq.     713.50  E(vib)   ...       0.07 
freq.     719.75  E(vib)   ...       0.07 
freq.     725.13  E(vib)   ...       0.06 
freq.     729.93  E(vib)   ...       0.06 
freq.     734.39  E(vib)   ...       0.06 
freq.     737.29  E(vib)   ...       0.06 
freq.     742.46  E(vib)   ...       0.06 
freq.     755.06  E(vib)   ...       0.06 
freq.     759.59  E(vib)   ...       0.06 
freq.     765.89  E(vib)   ...       0.06 
freq.     776.96  E(vib)   ...       0.05 
freq.     779.75  E(vib)   ...       0.05 
freq.     809.03  E(vib)   ...       0.05 
freq.     809.98  E(vib)   ...       0.05 
freq.     817.98  E(vib)   ...       0.05 
freq.     831.44  E(vib)   ...       0.04 
freq.     837.77  E(vib)   ...       0.04 
freq.     841.79  E(vib)   ...       0.04 
freq.     848.37  E(vib)   ...       0.04 
freq.     861.16  E(vib)   ...       0.04 
freq.     869.39  E(vib)   ...       0.04 
freq.     874.77  E(vib)   ...       0.04 
freq.     877.59  E(vib)   ...       0.04 
freq.     881.67  E(vib)   ...       0.04 
freq.     884.96  E(vib)   ...       0.04 
freq.     901.64  E(vib)   ...       0.03 
freq.     903.40  E(vib)   ...       0.03 
freq.     906.81  E(vib)   ...       0.03 
freq.     913.70  E(vib)   ...       0.03 
freq.     917.85  E(vib)   ...       0.03 
freq.     924.59  E(vib)   ...       0.03 
freq.     931.10  E(vib)   ...       0.03 
freq.     934.15  E(vib)   ...       0.03 
freq.     937.51  E(vib)   ...       0.03 
freq.     941.64  E(vib)   ...       0.03 
freq.     943.53  E(vib)   ...       0.03 
freq.     951.84  E(vib)   ...       0.03 
freq.     962.13  E(vib)   ...       0.03 
freq.     967.40  E(vib)   ...       0.03 
freq.     975.98  E(vib)   ...       0.03 
freq.     978.76  E(vib)   ...       0.03 
freq.     979.16  E(vib)   ...       0.03 
freq.     987.11  E(vib)   ...       0.02 
freq.     995.94  E(vib)   ...       0.02 
freq.    1001.80  E(vib)   ...       0.02 
freq.    1015.34  E(vib)   ...       0.02 
freq.    1022.06  E(vib)   ...       0.02 
freq.    1024.55  E(vib)   ...       0.02 
freq.    1031.19  E(vib)   ...       0.02 
freq.    1036.16  E(vib)   ...       0.02 
freq.    1040.41  E(vib)   ...       0.02 
freq.    1043.39  E(vib)   ...       0.02 
freq.    1048.54  E(vib)   ...       0.02 
freq.    1050.77  E(vib)   ...       0.02 
freq.    1056.39  E(vib)   ...       0.02 
freq.    1063.88  E(vib)   ...       0.02 
freq.    1066.02  E(vib)   ...       0.02 
freq.    1068.20  E(vib)   ...       0.02 
freq.    1073.90  E(vib)   ...       0.02 
freq.    1074.30  E(vib)   ...       0.02 
freq.    1087.45  E(vib)   ...       0.02 
freq.    1090.78  E(vib)   ...       0.02 
freq.    1092.15  E(vib)   ...       0.02 
freq.    1096.65  E(vib)   ...       0.02 
freq.    1103.84  E(vib)   ...       0.02 
freq.    1109.53  E(vib)   ...       0.02 
freq.    1121.97  E(vib)   ...       0.01 
freq.    1122.33  E(vib)   ...       0.01 
freq.    1125.21  E(vib)   ...       0.01 
freq.    1130.41  E(vib)   ...       0.01 
freq.    1138.18  E(vib)   ...       0.01 
freq.    1139.91  E(vib)   ...       0.01 
freq.    1155.87  E(vib)   ...       0.01 
freq.    1159.77  E(vib)   ...       0.01 
freq.    1164.17  E(vib)   ...       0.01 
freq.    1164.52  E(vib)   ...       0.01 
freq.    1167.55  E(vib)   ...       0.01 
freq.    1170.83  E(vib)   ...       0.01 
freq.    1174.74  E(vib)   ...       0.01 
freq.    1177.88  E(vib)   ...       0.01 
freq.    1181.76  E(vib)   ...       0.01 
freq.    1195.07  E(vib)   ...       0.01 
freq.    1196.68  E(vib)   ...       0.01 
freq.    1204.18  E(vib)   ...       0.01 
freq.    1206.96  E(vib)   ...       0.01 
freq.    1213.06  E(vib)   ...       0.01 
freq.    1216.38  E(vib)   ...       0.01 
freq.    1229.01  E(vib)   ...       0.01 
freq.    1231.10  E(vib)   ...       0.01 
freq.    1235.45  E(vib)   ...       0.01 
freq.    1238.10  E(vib)   ...       0.01 
freq.    1245.46  E(vib)   ...       0.01 
freq.    1252.35  E(vib)   ...       0.01 
freq.    1259.32  E(vib)   ...       0.01 
freq.    1267.23  E(vib)   ...       0.01 
freq.    1270.50  E(vib)   ...       0.01 
freq.    1271.63  E(vib)   ...       0.01 
freq.    1274.63  E(vib)   ...       0.01 
freq.    1278.56  E(vib)   ...       0.01 
freq.    1282.85  E(vib)   ...       0.01 
freq.    1283.98  E(vib)   ...       0.01 
freq.    1286.03  E(vib)   ...       0.01 
freq.    1286.36  E(vib)   ...       0.01 
freq.    1290.88  E(vib)   ...       0.01 
freq.    1293.68  E(vib)   ...       0.01 
freq.    1294.53  E(vib)   ...       0.01 
freq.    1295.98  E(vib)   ...       0.01 
freq.    1301.27  E(vib)   ...       0.01 
freq.    1305.21  E(vib)   ...       0.01 
freq.    1308.43  E(vib)   ...       0.01 
freq.    1309.54  E(vib)   ...       0.01 
freq.    1314.73  E(vib)   ...       0.01 
freq.    1317.71  E(vib)   ...       0.01 
freq.    1318.36  E(vib)   ...       0.01 
freq.    1318.75  E(vib)   ...       0.01 
freq.    1326.49  E(vib)   ...       0.01 
freq.    1330.36  E(vib)   ...       0.01 
freq.    1333.58  E(vib)   ...       0.01 
freq.    1338.58  E(vib)   ...       0.01 
freq.    1343.14  E(vib)   ...       0.01 
freq.    1348.02  E(vib)   ...       0.01 
freq.    1349.87  E(vib)   ...       0.01 
freq.    1351.73  E(vib)   ...       0.01 
freq.    1351.87  E(vib)   ...       0.01 
freq.    1352.35  E(vib)   ...       0.01 
freq.    1353.33  E(vib)   ...       0.01 
freq.    1354.07  E(vib)   ...       0.01 
freq.    1356.08  E(vib)   ...       0.01 
freq.    1363.71  E(vib)   ...       0.01 
freq.    1368.93  E(vib)   ...       0.01 
freq.    1369.53  E(vib)   ...       0.01 
freq.    1373.34  E(vib)   ...       0.01 
freq.    1389.64  E(vib)   ...       0.00 
freq.    1408.94  E(vib)   ...       0.00 
freq.    1411.99  E(vib)   ...       0.00 
freq.    1425.12  E(vib)   ...       0.00 
freq.    1430.60  E(vib)   ...       0.00 
freq.    1433.42  E(vib)   ...       0.00 
freq.    1433.76  E(vib)   ...       0.00 
freq.    1434.08  E(vib)   ...       0.00 
freq.    1435.79  E(vib)   ...       0.00 
freq.    1436.06  E(vib)   ...       0.00 
freq.    1437.26  E(vib)   ...       0.00 
freq.    1438.32  E(vib)   ...       0.00 
freq.    1439.22  E(vib)   ...       0.00 
freq.    1442.43  E(vib)   ...       0.00 
freq.    1445.73  E(vib)   ...       0.00 
freq.    1446.08  E(vib)   ...       0.00 
freq.    1447.33  E(vib)   ...       0.00 
freq.    1448.08  E(vib)   ...       0.00 
freq.    1449.84  E(vib)   ...       0.00 
freq.    1450.85  E(vib)   ...       0.00 
freq.    1450.97  E(vib)   ...       0.00 
freq.    1453.06  E(vib)   ...       0.00 
freq.    1453.26  E(vib)   ...       0.00 
freq.    1456.65  E(vib)   ...       0.00 
freq.    1458.54  E(vib)   ...       0.00 
freq.    1460.04  E(vib)   ...       0.00 
freq.    1460.30  E(vib)   ...       0.00 
freq.    1462.69  E(vib)   ...       0.00 
freq.    1464.88  E(vib)   ...       0.00 
freq.    1466.49  E(vib)   ...       0.00 
freq.    1467.72  E(vib)   ...       0.00 
freq.    1471.54  E(vib)   ...       0.00 
freq.    1484.01  E(vib)   ...       0.00 
freq.    1486.30  E(vib)   ...       0.00 
freq.    1491.57  E(vib)   ...       0.00 
freq.    1628.06  E(vib)   ...       0.00 
freq.    1659.64  E(vib)   ...       0.00 
freq.    1669.52  E(vib)   ...       0.00 
freq.    1676.16  E(vib)   ...       0.00 
freq.    1677.70  E(vib)   ...       0.00 
freq.    1683.95  E(vib)   ...       0.00 
freq.    1703.44  E(vib)   ...       0.00 
freq.    2923.82  E(vib)   ...       0.00 
freq.    2924.73  E(vib)   ...       0.00 
freq.    2925.91  E(vib)   ...       0.00 
freq.    2927.00  E(vib)   ...       0.00 
freq.    2931.28  E(vib)   ...       0.00 
freq.    2932.31  E(vib)   ...       0.00 
freq.    2939.54  E(vib)   ...       0.00 
freq.    2942.26  E(vib)   ...       0.00 
freq.    2942.67  E(vib)   ...       0.00 
freq.    2944.62  E(vib)   ...       0.00 
freq.    2946.84  E(vib)   ...       0.00 
freq.    2952.99  E(vib)   ...       0.00 
freq.    2953.48  E(vib)   ...       0.00 
freq.    2953.95  E(vib)   ...       0.00 
freq.    2956.58  E(vib)   ...       0.00 
freq.    2957.60  E(vib)   ...       0.00 
freq.    2959.30  E(vib)   ...       0.00 
freq.    2960.62  E(vib)   ...       0.00 
freq.    2962.43  E(vib)   ...       0.00 
freq.    2963.35  E(vib)   ...       0.00 
freq.    2964.24  E(vib)   ...       0.00 
freq.    2965.48  E(vib)   ...       0.00 
freq.    2965.70  E(vib)   ...       0.00 
freq.    2967.43  E(vib)   ...       0.00 
freq.    2967.90  E(vib)   ...       0.00 
freq.    2971.64  E(vib)   ...       0.00 
freq.    2973.60  E(vib)   ...       0.00 
freq.    2976.23  E(vib)   ...       0.00 
freq.    2978.81  E(vib)   ...       0.00 
freq.    2978.99  E(vib)   ...       0.00 
freq.    2981.61  E(vib)   ...       0.00 
freq.    2987.39  E(vib)   ...       0.00 
freq.    2987.85  E(vib)   ...       0.00 
freq.    2989.60  E(vib)   ...       0.00 
freq.    3000.12  E(vib)   ...       0.00 
freq.    3005.16  E(vib)   ...       0.00 
freq.    3007.94  E(vib)   ...       0.00 
freq.    3008.59  E(vib)   ...       0.00 
freq.    3009.69  E(vib)   ...       0.00 
freq.    3015.74  E(vib)   ...       0.00 
freq.    3018.13  E(vib)   ...       0.00 
freq.    3019.96  E(vib)   ...       0.00 
freq.    3020.18  E(vib)   ...       0.00 
freq.    3022.57  E(vib)   ...       0.00 
freq.    3027.28  E(vib)   ...       0.00 
freq.    3030.00  E(vib)   ...       0.00 
freq.    3031.11  E(vib)   ...       0.00 
freq.    3031.43  E(vib)   ...       0.00 
freq.    3032.22  E(vib)   ...       0.00 
freq.    3040.30  E(vib)   ...       0.00 
freq.    3042.06  E(vib)   ...       0.00 
freq.    3045.48  E(vib)   ...       0.00 
freq.    3046.10  E(vib)   ...       0.00 
freq.    3048.43  E(vib)   ...       0.00 
freq.    3048.97  E(vib)   ...       0.00 
freq.    3052.10  E(vib)   ...       0.00 
freq.    3060.65  E(vib)   ...       0.00 
freq.    3067.37  E(vib)   ...       0.00 
freq.    3297.32  E(vib)   ...       0.00 
freq.    3466.17  E(vib)   ...       0.00 
freq.    3477.52  E(vib)   ...       0.00 
freq.    3486.23  E(vib)   ...       0.00 
freq.    3506.13  E(vib)   ...       0.00 
freq.    3508.20  E(vib)   ...       0.00 

------------
INNER ENERGY
------------

The inner energy is: U= E(el) + E(ZPE) + E(vib) + E(rot) + E(trans)
    E(el)   - is the total energy from the electronic structure calculation
              = E(kin-el) + E(nuc-el) + E(el-el) + E(nuc-nuc)
    E(ZPE)  - the the zero temperature vibrational energy from the frequency calculation
    E(vib)  - the the finite temperature correction to E(ZPE) due to population
              of excited vibrational states
    E(rot)  - is the rotational thermal energy
    E(trans)- is the translational thermal energy

Summary of contributions to the inner energy U:
Electronic energy                ...  -2380.07040893 Eh
Zero point energy                ...      0.97575284 Eh     612.29 kcal/mol
Thermal vibrational correction   ...      0.05665039 Eh      35.55 kcal/mol
Thermal rotational correction    ...      0.00141627 Eh       0.89 kcal/mol
Thermal translational correction ...      0.00141627 Eh       0.89 kcal/mol
-----------------------------------------------------------------------
Total thermal energy                  -2379.03517317 Eh


Summary of corrections to the electronic energy:
(perhaps to be used in another calculation)
Total thermal correction                  0.05948293 Eh      37.33 kcal/mol
Non-thermal (ZPE) correction              0.97575284 Eh     612.29 kcal/mol
-----------------------------------------------------------------------
Total correction                          1.03523577 Eh     649.62 kcal/mol


--------
ENTHALPY
--------

The enthalpy is H = U + kB*T
                kB is Boltzmann's constant
Total free energy                 ...  -2379.03517317 Eh 
Thermal Enthalpy correction       ...      0.00094421 Eh       0.59 kcal/mol
-----------------------------------------------------------------------
Total Enthalpy                    ...  -2379.03422896 Eh


Note: Only C1 symmetry has been detected, increase convergence thresholds 
      if your molecule has a higher symmetry. Symmetry factor of 1.0 is   
      used for the rotational entropy correction. 
 

Note: Rotational entropy computed according to Herzberg 
Infrared and Raman Spectra, Chapter V,1, Van Nostrand Reinhold, 1945 
Point Group:  C1, Symmetry Number:   1  
Rotational constants in cm-1:     0.002525     0.000777     0.000653 

Vibrational entropy computed according to the QRRHO of S. Grimme
Chem.Eur.J. 2012 18 9955


-------
ENTROPY
-------

The entropy contributions are T*S = T*(S(el)+S(vib)+S(rot)+S(trans))
     S(el)   - electronic entropy
     S(vib)  - vibrational entropy
     S(rot)  - rotational entropy
     S(trans)- translational entropy
The entropies will be listed as mutliplied by the temperature to get
units of energy

Electronic entropy                ...      0.00000000 Eh      0.00 kcal/mol
Vibrational entropy               ...      0.10547021 Eh     66.18 kcal/mol
Rotational entropy                ...      0.01917710 Eh     12.03 kcal/mol
Translational entropy             ...      0.02166895 Eh     13.60 kcal/mol
-----------------------------------------------------------------------
Final entropy term                ...      0.14631625 Eh     91.81 kcal/mol

In case the symmetry of your molecule has not been determined correctly
or in case you have a reason to use a different symmetry number we print 
out the resulting rotational entropy values for sn=1,12 :
 --------------------------------------------------------
|  sn= 1 | S(rot)=       0.01917710 Eh     12.03 kcal/mol|
|  sn= 2 | S(rot)=       0.01852264 Eh     11.62 kcal/mol|
|  sn= 3 | S(rot)=       0.01813981 Eh     11.38 kcal/mol|
|  sn= 4 | S(rot)=       0.01786819 Eh     11.21 kcal/mol|
|  sn= 5 | S(rot)=       0.01765750 Eh     11.08 kcal/mol|
|  sn= 6 | S(rot)=       0.01748535 Eh     10.97 kcal/mol|
|  sn= 7 | S(rot)=       0.01733981 Eh     10.88 kcal/mol|
|  sn= 8 | S(rot)=       0.01721373 Eh     10.80 kcal/mol|
|  sn= 9 | S(rot)=       0.01710252 Eh     10.73 kcal/mol|
|  sn=10 | S(rot)=       0.01700304 Eh     10.67 kcal/mol|
|  sn=11 | S(rot)=       0.01691305 Eh     10.61 kcal/mol|
|  sn=12 | S(rot)=       0.01683090 Eh     10.56 kcal/mol|
 --------------------------------------------------------


-------------------
GIBBS FREE ENERGY
-------------------

The Gibbs free energy is G = H - T*S

Total enthalpy                    ...  -2379.03422896 Eh 
Total entropy correction          ...     -0.14631625 Eh    -91.81 kcal/mol
-----------------------------------------------------------------------
Final Gibbs free energy         ...  -2379.18054521 Eh

For completeness - the Gibbs free energy minus the electronic energy
G-E(el)                           ...      0.88986372 Eh    558.40 kcal/mol

--------------------------------------------------------------------------
WARNING: No preset parameters were found for the device that Open MPI
detected:

  Local host:            eu-g1-019-4
  Device name:           mlx5_0
  Device vendor ID:      0x02c9
  Device vendor part ID: 4123

Default device parameters will be used, which may result in lower
performance.  You can edit any of the files specified by the
btl_openib_device_param_files MCA parameter to set values for your
device.

NOTE: You can turn off this warning by setting the MCA parameter
      btl_openib_warn_no_device_params_found to 0.
--------------------------------------------------------------------------
--------------------------------------------------------------------------
WARNING: There was an error initializing an OpenFabrics device.

  Local host:   eu-g1-019-4
  Local device: mlx5_0
--------------------------------------------------------------------------

Timings for individual modules:

Sum of individual times         ...    20459.737 sec (= 340.996 min)
GTO integral calculation        ...       11.229 sec (=   0.187 min)   0.1 %
SCF iterations                  ...      321.675 sec (=   5.361 min)   1.6 %
SCF Gradient evaluation         ...       60.027 sec (=   1.000 min)   0.3 %
Geometry relaxation             ...        3.909 sec (=   0.065 min)   0.0 %
Analytical frequency calculation...    20062.897 sec (= 334.382 min)  98.1 %
                             ****ORCA TERMINATED NORMALLY****
TOTAL RUN TIME: 0 days 5 hours 41 minutes 17 seconds 376 msec
