
                                 *****************
                                 * O   R   C   A *
                                 *****************

           --- An Ab Initio, DFT and Semiempirical electronic structure package ---

                  #######################################################
                  #                        -***-                        #
                  #          Department of theory and spectroscopy      #
                  #               Directorship: Frank Neese             #
                  #        Max Planck Institute fuer Kohlenforschung    #
                  #                Kaiser Wilhelm Platz 1               #
                  #                 D-45470 Muelheim/Ruhr               #
                  #                      Germany                        #
                  #                                                     #
                  #                  All rights reserved                #
                  #                        -***-                        #
                  #######################################################


                         Program Version 4.2.0 -  RELEASE  -


 With contributions from (in alphabetic order):
   Daniel Aravena         : Magnetic Suceptibility
   Michael Atanasov       : Ab Initio Ligand Field Theory (pilot matlab implementation)
   Alexander A. Auer      : GIAO ZORA, VPT2
   Ute Becker             : Parallelization
   Giovanni Bistoni       : ED, misc. LED, open-shell LED, HFLED
   Martin Brehm           : Molecular dynamics
   Dmytro Bykov           : SCF Hessian
   Vijay G. Chilkuri      : MRCI spin determinant printing, contributions to CSF-ICE
   Dipayan Datta          : RHF DLPNO-CCSD density
   Achintya Kumar Dutta   : EOM-CC, STEOM-CC
   Dmitry Ganyushin       : Spin-Orbit,Spin-Spin,Magnetic field MRCI
   Miquel Garcia          : C-PCM Hessian, Gaussian charge scheme
   Yang Guo               : DLPNO-NEVPT2, CIM, IAO-localization
   Andreas Hansen         : Spin unrestricted coupled pair/coupled cluster methods
   Benjamin Helmich-Paris : CASSCF linear response (MC-RPA)
   Lee Huntington         : MR-EOM, pCC
   Robert Izsak           : Overlap fitted RIJCOSX, COSX-SCS-MP3, EOM
   Christian Kollmar      : KDIIS, OOCD, Brueckner-CCSD(T), CCSD density
   Simone Kossmann        : Meta GGA functionals, TD-DFT gradient, OOMP2, MP2 Hessian
   Martin Krupicka        : AUTO-CI
   Lucas Lang             : DCDCAS
   Dagmar Lenk            : GEPOL surface, SMD
   Dimitrios Liakos       : Extrapolation schemes; Compound Job, initial MDCI parallelization
   Dimitrios Manganas     : Further ROCIS development; embedding schemes
   Dimitrios Pantazis     : SARC Basis sets
   Taras Petrenko         : DFT Hessian,TD-DFT gradient, ASA, ECA, R-Raman, ABS, FL, XAS/XES, NRVS
   Peter Pinski           : DLPNO-MP2, DLPNO-MP2 Gradient
   Christoph Reimann      : Effective Core Potentials
   Marius Retegan         : Local ZFS, SOC
   Christoph Riplinger    : Optimizer, TS searches, QM/MM, DLPNO-CCSD(T), (RO)-DLPNO pert. Triples
   Tobias Risthaus        : Range-separated hybrids, TD-DFT gradient, RPA, STAB
   Michael Roemelt        : Original ROCIS implementation
   Masaaki Saitow         : Open-shell DLPNO-CCSD energy and density
   Barbara Sandhoefer     : DKH picture change effects
   Avijit Sen             : IP-ROCIS
   Kantharuban Sivalingam : CASSCF convergence, NEVPT2, FIC-MRCI
   Bernardo de Souza      : ESD, SOC TD-DFT
   Georgi Stoychev        : AutoAux, RI-MP2 NMR
   Willem Van den Heuvel  : Paramagnetic NMR
   Boris Wezisla          : Elementary symmetry handling
   Frank Wennmohs         : Technical directorship


 We gratefully acknowledge several colleagues who have allowed us to
 interface, adapt or use parts of their codes:
   Stefan Grimme, W. Hujo, H. Kruse,             : VdW corrections, initial TS optimization,
                  C. Bannwarth                     DFT functionals, gCP, sTDA/sTD-DF
   Ed Valeev, F. Pavosevic, A. Kumar             : LibInt (2-el integral package), F12 methods
   Garnet Chan, S. Sharma, J. Yang, R. Olivares  : DMRG
   Ulf Ekstrom                                   : XCFun DFT Library
   Mihaly Kallay                                 : mrcc  (arbitrary order and MRCC methods)
   Andreas Klamt, Michael Diedenhofen            : otool_cosmo (COSMO solvation model)
   Jiri Pittner, Ondrej Demel                    : Mk-CCSD
   Frank Weinhold                                : gennbo (NPA and NBO analysis)
   Christopher J. Cramer and Donald G. Truhlar   : smd solvation model
   Lars Goerigk                                  : TD-DFT with DH, B97 family of functionals
   V. Asgeirsson, H. Jonsson                     : NEB implementation
   FAccTs GmbH                                   : IRC, NEB, NEB-TS, Multilevel, MM, QM/MM, CI optimization
   S Lehtola, MJT Oliveira, MAL Marques          : LibXC Library


 Your calculation uses the libint2 library for the computation of 2-el integrals
 For citations please refer to: http://libint.valeyev.net

 Your ORCA version has been built with support for libXC version: 4.2.3
 For citations please refer to: https://tddft.org/programs/libxc/

 This ORCA versions uses:
   CBLAS   interface :  Fast vector & matrix operations
   LAPACKE interface :  Fast linear algebra routines
   SCALAPACK package :  Parallel linear algebra routines




***************************************
The coordinates will be read from file: 39.xyz
***************************************


Your calculation utilizes the atom-pairwise dispersion correction
with the Becke-Johnson damping scheme (D3BJ)
Cite in your paper:
S.Grimme, S.Ehrlich, L.Goerigk, J Comput Chem, (2011), 32, 1456–1465 
S.Grimme, J.Antony, S.Ehrlich and H.Krieg, J.Chem.Phys., 132, (2010), 154104 
   

----- Orbital basis set information -----
Your calculation utilizes the basis: def2-TZVP
   F. Weigend and R. Ahlrichs, Phys. Chem. Chem. Phys. 7, 3297 (2005).

----- AuxJ basis set information -----
Your calculation utilizes the auxiliary basis: def2/J
   F. Weigend, Phys. Chem. Chem. Phys. 8, 1057 (2006).

================================================================================
                                        WARNINGS
                       Please study these warnings very carefully!
================================================================================


WARNING: Geometry Optimization
  ===> : Switching off AutoStart
         For restart on a previous wavefunction, please use MOREAD

INFO   : the flag for use of LIBINT has been found!

================================================================================
                                       INPUT FILE
================================================================================
NAME = 39.inp
|  1> !RI BP86 def2-tzvp def2/J D3BJ VeryTightSCF VeryTightOpt Grid5 FinalGrid6 freq
|  2> %maxcore 4000
|  3> %pal nprocs 24
|  4> end
|  5> * xyzfile 0 1 39.xyz 
|  6> 
|  7>                          ****END OF INPUT****
================================================================================

                       *****************************
                       * Geometry Optimization Run *
                       *****************************

Geometry optimization settings:
Update method            Update   .... BFGS
Choice of coordinates    CoordSys .... Z-matrix Internals
Initial Hessian          InHess   .... Almoef's Model

Convergence Tolerances:
Energy Change            TolE     ....  2.0000e-07 Eh
Max. Gradient            TolMAXG  ....  3.0000e-05 Eh/bohr
RMS Gradient             TolRMSG  ....  8.0000e-06 Eh/bohr
Max. Displacement        TolMAXD  ....  2.0000e-04 bohr
RMS Displacement         TolRMSD  ....  1.0000e-04 bohr
Strict Convergence                ....  False
------------------------------------------------------------------------------
                        ORCA OPTIMIZATION COORDINATE SETUP
------------------------------------------------------------------------------

The optimization will be done in new redundant internal coordinates
Making redundant internal coordinates   ...  (new redundants) done
Evaluating the initial hessian          ...  (Almloef) done
Evaluating the coordinates              ...  done
Calculating the B-matrix                .... done
Calculating the G-matrix                .... done
Diagonalizing the G-matrix              .... done
Small eigenvalue found = 2.790e-04
Small eigenvalue found = 6.052e-04
Small eigenvalue found = 2.558e-03
Small eigenvalue found = 4.295e-03
Small eigenvalue found = 4.667e-03
Small eigenvalue found = 5.237e-03
Small eigenvalue found = 6.463e-03
Small eigenvalue found = 7.787e-03
Small eigenvalue found = 8.171e-03
Small eigenvalue found = 1.078e-02
Small eigenvalue found = 1.098e-02
Small eigenvalue found = 1.203e-02
Small eigenvalue found = 1.339e-02
Small eigenvalue found = 1.426e-02
Small eigenvalue found = 1.801e-02
Small eigenvalue found = 2.078e-02
Small eigenvalue found = 2.303e-02
Small eigenvalue found = 2.425e-02
Small eigenvalue found = 2.505e-02
The first mode is                       ....  326
The number of degrees of freedom        ....  339

    -----------------------------------------------------------------
                    Redundant Internal Coordinates


    -----------------------------------------------------------------
         Definition                    Initial Value    Approx d2E/dq
    -----------------------------------------------------------------
      1. B(C   1,O   0)                  1.2322         0.999297   
      2. B(C   2,C   1)                  1.5569         0.338455   
      3. B(C   3,C   2)                  1.5282         0.376071   
      4. B(C   4,C   3)                  1.5348         0.366991   
      5. B(C   5,C   4)                  1.5308         0.372544   
      6. B(N   6,C   2)                  1.4829         0.397847   
      7. B(N   6,C   5)                  1.4801         0.401980   
      8. B(C   7,N   6)                  1.3506         0.646827   
      9. B(O   8,C   7)                  1.2484         0.941563   
     10. B(N   9,C   1)                  1.3519         0.643691   
     11. B(C  10,N   9)                  1.4647         0.425255   
     12. B(C  11,C  10)                  1.5394         0.360897   
     13. B(N  12,C  11)                  1.3671         0.608708   
     14. B(C  13,N  12)                  1.4477         0.452792   
     15. B(C  14,C  13)                  1.5276         0.376870   
     16. B(N  15,C  14)                  1.3423         0.666689   
     17. B(C  16,N  15)                  1.4590         0.434336   
     18. B(C  17,C  16)                  1.5483         0.349344   
     19. B(C  18,C  17)                  1.5495         0.347803   
     20. B(C  19,C  18)                  1.5447         0.353953   
     21. B(N  20,C  19)                  1.3585         0.628271   
     22. B(C  21,N  20)                  1.4630         0.428034   
     23. B(C  22,C  21)                  1.5439         0.354923   
     24. B(N  23,C  22)                  1.3656         0.612083   
     25. B(C  24,N  23)                  1.4593         0.433860   
     26. B(C  24,C   7)                  1.5325         0.370174   
     27. B(C  25,C  24)                  1.5299         0.373689   
     28. B(O  26,C  22)                  1.2308         1.004454   
     29. B(C  27,C  21)                  1.5390         0.361440   
     30. B(C  28,C  27)                  1.5386         0.361959   
     31. B(C  29,C  28)                  1.5345         0.367514   
     32. B(C  30,C  28)                  1.5341         0.368009   
     33. B(O  31,C  19)                  1.2329         0.996640   
     34. B(C  32,C  18)                  1.5462         0.351930   
     35. B(C  33,C  32)                  1.5067         0.406942   
     36. B(C  34,C  33)                  1.5483         0.349313   
     37. B(C  35,C  34)                  1.5300         0.373590   
     38. B(C  36,C  35)                  1.5296         0.374128   
     39. B(C  37,C  36)                  1.5303         0.373187   
     40. B(C  38,C  37)                  1.5302         0.373350   
     41. B(C  39,C  38)                  1.5302         0.373329   
     42. B(C  40,C  39)                  1.5310         0.372247   
     43. B(C  41,C  40)                  1.5299         0.373764   
     44. B(O  42,C  32)                  1.2321         0.999541   
     45. B(O  43,C  17)                  1.4244         0.493201   
     46. B(O  44,C  14)                  1.2507         0.933351   
     47. B(C  45,C  13)                  1.5481         0.349496   
     48. B(C  46,C  45)                  1.5267         0.378107   
     49. B(O  47,C  11)                  1.2275         1.016512   
     50. B(C  48,C  10)                  1.5692         0.323429   
     51. B(C  49,C  48)                  1.5329         0.369566   
     52. B(C  50,C  48)                  1.5332         0.369252   
     53. B(H  51,C   2)                  1.1009         0.345961   
     54. B(H  52,C   3)                  1.0998         0.347357   
     55. B(H  53,C   3)                  1.0952         0.353225   
     56. B(H  54,C   4)                  1.0995         0.347769   
     57. B(H  55,C   4)                  1.0968         0.351182   
     58. B(H  56,C   5)                  1.0968         0.351199   
     59. B(H  57,C   5)                  1.1020         0.344615   
     60. B(H  58,N   9)                  1.0331         0.397560   
     61. B(H  59,C  10)                  1.0993         0.347963   
     62. B(H  60,N  12)                  1.0197         0.417520   
     63. B(H  61,C  13)                  1.1024         0.344093   
     64. B(H  62,N  15)                  1.0147         0.425261   
     65. B(H  63,C  16)                  1.0950         0.353490   
     66. B(H  64,C  16)                  1.0993         0.347976   
     67. B(H  65,C  17)                  1.1006         0.346384   
     68. B(H  66,C  18)                  1.1063         0.339169   
     69. B(H  67,N  20)                  1.0243         0.410505   
     70. B(H  68,C  21)                  1.0971         0.350829   
     71. B(H  69,O  44)                  1.9188         0.015355   
     72. B(H  69,N  23)                  1.0241         0.410835   
     73. B(H  70,C  24)                  1.0969         0.351069   
     74. B(H  71,C  25)                  1.0977         0.350089   
     75. B(H  72,C  25)                  1.0991         0.348237   
     76. B(H  73,C  25)                  1.0975         0.350259   
     77. B(H  74,C  27)                  1.1034         0.342742   
     78. B(H  75,C  27)                  1.1020         0.344631   
     79. B(H  76,C  28)                  1.1045         0.341436   
     80. B(H  77,H  56)                  2.3091         0.000782   
     81. B(H  77,C  29)                  1.0969         0.351059   
     82. B(H  78,C  29)                  1.0998         0.347391   
     83. B(H  79,H  60)                  4.3800         0.000000   
     84. B(H  79,C  29)                  1.1014         0.345356   
     85. B(H  80,C  30)                  1.0998         0.347317   
     86. B(H  81,C  30)                  1.1015         0.345195   
     87. B(H  82,C  30)                  1.0994         0.347849   
     88. B(H  83,H  71)                  4.4823         0.000000   
     89. B(H  83,C  33)                  1.1007         0.346196   
     90. B(H  84,C  33)                  1.0944         0.354310   
     91. B(H  85,C  34)                  1.1016         0.345101   
     92. B(H  86,C  34)                  1.1016         0.345047   
     93. B(H  87,C  35)                  1.1016         0.345110   
     94. B(H  88,C  35)                  1.1049         0.340966   
     95. B(H  89,C  36)                  1.1045         0.341455   
     96. B(H  90,C  36)                  1.1043         0.341653   
     97. B(H  91,C  37)                  1.1040         0.342046   
     98. B(H  92,C  37)                  1.1044         0.341518   
     99. B(H  93,C  38)                  1.1045         0.341482   
    100. B(H  94,C  38)                  1.1044         0.341571   
    101. B(H  95,C  39)                  1.1045         0.341410   
    102. B(H  96,C  39)                  1.1046         0.341316   
    103. B(H  97,C  40)                  1.1034         0.342749   
    104. B(H  98,C  40)                  1.1034         0.342776   
    105. B(H  99,C  41)                  1.0995         0.347790   
    106. B(H 100,C  41)                  1.1008         0.346142   
    107. B(H 101,C  41)                  1.1007         0.346167   
    108. B(H 102,O  43)                  0.9840         0.476000   
    109. B(H 103,C  45)                  1.1020         0.344591   
    110. B(H 104,C  45)                  1.1022         0.344261   
    111. B(H 105,C  46)                  1.0987         0.348780   
    112. B(H 106,C  46)                  1.0983         0.349236   
    113. B(H 107,C  46)                  1.0978         0.349934   
    114. B(H 108,C  48)                  1.1031         0.343193   
    115. B(H 109,H  74)                  2.4665         0.000439   
    116. B(H 109,C  49)                  1.1011         0.345710   
    117. B(H 110,C  49)                  1.0990         0.348452   
    118. B(H 111,C  49)                  1.0987         0.348743   
    119. B(H 112,C  50)                  1.0997         0.347480   
    120. B(H 113,C  50)                  1.0976         0.350206   
    121. B(H 114,C  50)                  1.1001         0.346950   
    122. A(O   0,C   1,N   9)          124.7803         0.470357   
    123. A(C   2,C   1,N   9)          113.2881         0.389952   
    124. A(O   0,C   1,C   2)          121.9228         0.421454   
    125. A(C   1,C   2,H  51)          107.3148         0.317042   
    126. A(N   6,C   2,H  51)          108.1188         0.323595   
    127. A(C   1,C   2,N   6)          113.5935         0.358899   
    128. A(C   1,C   2,C   3)          111.2717         0.357694   
    129. A(C   3,C   2,H  51)          113.6188         0.322547   
    130. A(C   3,C   2,N   6)          102.9967         0.365415   
    131. A(C   4,C   3,H  53)          112.9757         0.322353   
    132. A(C   4,C   3,H  52)          110.8535         0.321470   
    133. A(C   2,C   3,C   4)          102.7689         0.362662   
    134. A(C   2,C   3,H  53)          110.6963         0.323648   
    135. A(C   2,C   3,H  52)          109.9410         0.322760   
    136. A(H  52,C   3,H  53)          109.4436         0.288329   
    137. A(H  54,C   4,H  55)          108.1603         0.288121   
    138. A(C   3,C   4,H  55)          113.5499         0.322047   
    139. A(C   3,C   4,C   5)          103.3202         0.362079   
    140. A(C   3,C   4,H  54)          109.4643         0.321533   
    141. A(C   5,C   4,H  55)          111.9750         0.322841   
    142. A(C   5,C   4,H  54)          110.3091         0.322324   
    143. A(H  56,C   5,H  57)          108.4153         0.287712   
    144. A(C   4,C   5,N   6)          103.2703         0.365472   
    145. A(C   4,C   5,H  56)          113.3933         0.322843   
    146. A(N   6,C   5,H  57)          110.0213         0.323937   
    147. A(N   6,C   5,H  56)          110.6839         0.324945   
    148. A(C   4,C   5,H  57)          110.9861         0.321844   
    149. A(C   5,N   6,C   7)          125.6305         0.399667   
    150. A(C   2,N   6,C   7)          122.4052         0.398941   
    151. A(C   2,N   6,C   5)          111.6308         0.367306   
    152. A(O   8,C   7,C  24)          119.8936         0.423725   
    153. A(N   6,C   7,O   8)          122.4953         0.465669   
    154. A(N   6,C   7,C  24)          117.5894         0.396455   
    155. A(C   1,N   9,C  10)          123.8609         0.403304   
    156. A(C  10,N   9,H  58)          119.8194         0.331908   
    157. A(C   1,N   9,H  58)          115.7765         0.355802   
    158. A(C  48,C  10,H  59)          108.6131         0.315005   
    159. A(C  11,C  10,H  59)          106.0195         0.320682   
    160. A(N   9,C  10,C  11)          105.0941         0.367011   
    161. A(N   9,C  10,C  48)          114.9179         0.360198   
    162. A(N   9,C  10,H  59)          108.4875         0.327470   
    163. A(C  11,C  10,C  48)          113.2558         0.352478   
    164. A(N  12,C  11,O  47)          123.4141         0.467023   
    165. A(C  10,C  11,O  47)          123.0851         0.427627   
    166. A(C  10,C  11,N  12)          113.4752         0.390520   
    167. A(C  13,N  12,H  60)          113.9758         0.338129   
    168. A(C  11,N  12,C  13)          123.5568         0.403793   
    169. A(C  11,N  12,H  60)          119.2335         0.355386   
    170. A(C  14,C  13,C  45)          109.3240         0.359783   
    171. A(N  12,C  13,H  61)          107.7886         0.330270   
    172. A(C  14,C  13,H  61)          110.9906         0.322373   
    173. A(N  12,C  13,C  14)          106.5130         0.373765   
    174. A(C  45,C  13,H  61)          109.3757         0.318424   
    175. A(N  12,C  13,C  45)          112.8299         0.368946   
    176. A(C  13,C  14,N  15)          118.0210         0.399825   
    177. A(N  15,C  14,O  44)          121.6703         0.467505   
    178. A(C  13,C  14,O  44)          120.2477         0.424420   
    179. A(C  14,N  15,H  62)          119.0260         0.362062   
    180. A(C  16,N  15,H  62)          119.0850         0.336822   
    181. A(C  14,N  15,C  16)          121.1459         0.407330   
    182. A(H  63,C  16,H  64)          107.7127         0.288443   
    183. A(C  17,C  16,H  64)          111.4863         0.318984   
    184. A(N  15,C  16,H  63)          108.3536         0.329470   
    185. A(C  17,C  16,H  63)          109.3847         0.319804   
    186. A(N  15,C  16,C  17)          111.6203         0.366294   
    187. A(N  15,C  16,H  64)          108.1544         0.328616   
    188. A(O  43,C  17,H  65)          104.9846         0.335353   
    189. A(C  18,C  17,H  65)          107.9909         0.318516   
    190. A(C  16,C  17,H  65)          108.2316         0.318746   
    191. A(C  16,C  17,C  18)          112.8502         0.354882   
    192. A(C  18,C  17,O  43)          111.9827         0.374101   
    193. A(C  16,C  17,O  43)          110.3959         0.374387   
    194. A(C  19,C  18,H  66)          103.1947         0.318333   
    195. A(C  17,C  18,H  66)          105.9951         0.317425   
    196. A(C  17,C  18,C  32)          110.5051         0.355326   
    197. A(C  17,C  18,C  19)          117.1146         0.355672   
    198. A(C  19,C  18,C  32)          115.1117         0.356385   
    199. A(C  32,C  18,H  66)          103.1580         0.318036   
    200. A(C  18,C  19,N  20)          116.2126         0.391354   
    201. A(N  20,C  19,O  31)          123.2999         0.468041   
    202. A(C  18,C  19,O  31)          120.4785         0.424638   
    203. A(C  19,N  20,H  67)          121.2734         0.356273   
    204. A(C  19,N  20,C  21)          123.1397         0.402045   
    205. A(C  21,N  20,H  67)          115.5831         0.334037   
    206. A(C  27,C  21,H  68)          110.5327         0.321192   
    207. A(C  22,C  21,H  68)          105.8504         0.320238   
    208. A(N  20,C  21,H  68)          106.8891         0.328266   
    209. A(N  20,C  21,C  22)          108.9566         0.366371   
    210. A(C  22,C  21,C  27)          114.5543         0.358170   
    211. A(N  20,C  21,C  27)          109.7279         0.367516   
    212. A(C  21,C  22,N  23)          114.6686         0.389759   
    213. A(C  21,C  22,O  26)          122.1108         0.425440   
    214. A(N  23,C  22,O  26)          123.2200         0.466475   
    215. A(C  22,N  23,C  24)          121.5099         0.401155   
    216. A(C  24,N  23,H  69)          116.8776         0.334833   
    217. A(C  22,N  23,H  69)          119.9350         0.354747   
    218. A(C  25,C  24,H  70)          109.5120         0.322986   
    219. A(N  23,C  24,H  70)          105.9505         0.329037   
    220. A(C   7,C  24,H  70)          111.6540         0.322486   
    221. A(N  23,C  24,C  25)          111.7466         0.370485   
    222. A(C   7,C  24,N  23)          107.0760         0.369883   
    223. A(C   7,C  24,C  25)          110.7995         0.362803   
    224. A(H  71,C  25,H  73)          109.9204         0.288302   
    225. A(C  24,C  25,H  73)          110.2192         0.322864   
    226. A(H  71,C  25,H  72)          108.6237         0.288041   
    227. A(C  24,C  25,H  72)          110.8592         0.322558   
    228. A(C  24,C  25,H  71)          109.2314         0.322838   
    229. A(H  72,C  25,H  73)          107.9604         0.288063   
    230. A(C  28,C  27,H  75)          108.5989         0.320332   
    231. A(C  21,C  27,C  28)          116.6529         0.359369   
    232. A(H  74,C  27,H  75)          106.2538         0.286621   
    233. A(C  21,C  27,H  75)          105.9046         0.320257   
    234. A(C  28,C  27,H  74)          109.3401         0.320044   
    235. A(C  21,C  27,H  74)          109.5545         0.319969   
    236. A(C  29,C  28,C  30)          110.1824         0.361411   
    237. A(C  27,C  28,C  30)          109.0950         0.360473   
    238. A(C  27,C  28,C  29)          113.4130         0.360390   
    239. A(C  30,C  28,H  76)          108.1422         0.320713   
    240. A(C  29,C  28,H  76)          108.1000         0.320642   
    241. A(C  27,C  28,H  76)          107.7479         0.319845   
    242. A(C  28,C  29,H  79)          110.5009         0.321241   
    243. A(H  78,C  29,H  79)          107.6303         0.287319   
    244. A(H  77,C  29,H  79)          108.6841         0.287791   
    245. A(H  77,C  29,H  78)          107.5150         0.288056   
    246. A(C  28,C  29,H  78)          110.4066         0.321550   
    247. A(C  28,C  29,H  77)          111.9555         0.322104   
    248. A(H  81,C  30,H  82)          107.6065         0.287357   
    249. A(H  80,C  30,H  82)          108.0490         0.287633   
    250. A(C  28,C  30,H  82)          111.0893         0.321691   
    251. A(H  80,C  30,H  81)          107.8161         0.287289   
    252. A(C  28,C  30,H  81)          110.5698         0.321288   
    253. A(C  28,C  30,H  80)          111.5529         0.321610   
    254. A(C  33,C  32,O  42)          119.7239         0.435633   
    255. A(C  18,C  32,O  42)          117.7855         0.424424   
    256. A(C  18,C  32,C  33)          122.4242         0.364962   
    257. A(C  32,C  33,C  34)          110.7928         0.364497   
    258. A(C  34,C  33,H  84)          109.6421         0.319921   
    259. A(H  83,C  33,H  84)          110.0735         0.288316   
    260. A(C  32,C  33,H  84)          111.3676         0.328041   
    261. A(C  34,C  33,H  83)          108.6328         0.318713   
    262. A(C  32,C  33,H  83)          106.2481         0.326791   
    263. A(C  33,C  34,C  35)          114.0683         0.359216   
    264. A(H  85,C  34,H  86)          106.8726         0.286982   
    265. A(C  35,C  34,H  86)          109.4630         0.322058   
    266. A(C  33,C  34,H  86)          107.3468         0.318540   
    267. A(C  35,C  34,H  85)          110.0836         0.322066   
    268. A(C  33,C  34,H  85)          108.7296         0.318548   
    269. A(C  34,C  35,C  36)          112.8028         0.363446   
    270. A(H  87,C  35,H  88)          105.9340         0.286451   
    271. A(C  36,C  35,H  88)          108.6855         0.321507   
    272. A(C  34,C  35,H  88)          109.5602         0.321431   
    273. A(C  36,C  35,H  87)          110.1916         0.322143   
    274. A(C  34,C  35,H  87)          109.4317         0.322067   
    275. A(C  35,C  36,C  37)          113.2226         0.363379   
    276. A(H  89,C  36,H  90)          105.9747         0.286066   
    277. A(C  37,C  36,H  90)          109.2724         0.321480   
    278. A(C  35,C  36,H  90)          109.1600         0.321613   
    279. A(C  37,C  36,H  89)          109.3639         0.321449   
    280. A(C  35,C  36,H  89)          109.5904         0.321582   
    281. A(C  36,C  37,C  38)          113.5256         0.363250   
    282. A(H  91,C  37,H  92)          105.9141         0.286125   
    283. A(C  38,C  37,H  92)          109.2894         0.321482   
    284. A(C  36,C  37,H  92)          109.2606         0.321459   
    285. A(C  38,C  37,H  91)          109.3693         0.321564   
    286. A(C  36,C  37,H  91)          109.2011         0.321541   
    287. A(C  37,C  38,C  39)          113.5170         0.363273   
    288. A(H  93,C  38,H  94)          105.9029         0.286058   
    289. A(C  39,C  38,H  94)          109.2680         0.321487   
    290. A(C  37,C  38,H  94)          109.2590         0.321490   
    291. A(C  39,C  38,H  93)          109.2980         0.321474   
    292. A(C  37,C  38,H  93)          109.3150         0.321477   
    293. A(C  38,C  39,C  40)          113.5927         0.363090   
    294. A(H  95,C  39,H  96)          105.8630         0.286016   
    295. A(C  40,C  39,H  96)          109.2428         0.321295   
    296. A(C  38,C  39,H  96)          109.3153         0.321448   
    297. A(C  40,C  39,H  95)          109.2425         0.321310   
    298. A(C  38,C  39,H  95)          109.2954         0.321463   
    299. A(C  39,C  40,C  41)          113.1356         0.363162   
    300. A(H  97,C  40,H  98)          105.9370         0.286381   
    301. A(C  41,C  40,H  98)          109.6271         0.321734   
    302. A(C  39,C  40,H  98)          109.1175         0.321520   
    303. A(C  41,C  40,H  97)          109.6380         0.321730   
    304. A(C  39,C  40,H  97)          109.1304         0.321516   
    305. A(H 100,C  41,H 101)          107.4381         0.287263   
    306. A(H  99,C  41,H 101)          107.6890         0.287476   
    307. A(C  40,C  41,H 101)          111.0813         0.322253   
    308. A(H  99,C  41,H 100)          107.6901         0.287473   
    309. A(C  40,C  41,H 100)          111.0887         0.322249   
    310. A(C  40,C  41,H  99)          111.6615         0.322500   
    311. A(C  17,O  43,H 102)          103.7141         0.350645   
    312. A(C  13,C  45,C  46)          112.6328         0.359984   
    313. A(C  46,C  45,H 104)          110.4491         0.322572   
    314. A(C  13,C  45,H 104)          108.0356         0.318449   
    315. A(C  46,C  45,H 103)          110.3380         0.322623   
    316. A(C  13,C  45,H 103)          108.6467         0.318499   
    317. A(H 103,C  45,H 104)          106.5186         0.286814   
    318. A(H 106,C  46,H 107)          107.3375         0.288150   
    319. A(H 105,C  46,H 107)          108.1084         0.288091   
    320. A(C  45,C  46,H 107)          111.0250         0.323438   
    321. A(H 105,C  46,H 106)          108.5353         0.288001   
    322. A(C  45,C  46,H 106)          111.3124         0.323332   
    323. A(C  45,C  46,H 105)          110.3977         0.323262   
    324. A(C  50,C  48,H 108)          107.4192         0.321159   
    325. A(C  49,C  48,H 108)          107.7706         0.321204   
    326. A(C  10,C  48,H 108)          106.1584         0.314300   
    327. A(C  49,C  48,C  50)          110.8408         0.361962   
    328. A(C  10,C  48,C  50)          111.0276         0.353847   
    329. A(C  10,C  48,C  49)          113.2888         0.353898   
    330. A(H 110,C  49,H 111)          107.8165         0.287895   
    331. A(H 109,C  49,H 111)          107.2235         0.287540   
    332. A(C  48,C  49,H 111)          110.7029         0.322048   
    333. A(H 109,C  49,H 110)          107.4230         0.287502   
    334. A(C  48,C  49,H 110)          109.9527         0.322004   
    335. A(C  48,C  49,H 109)          113.5003         0.321588   
    336. A(H 113,C  50,H 114)          109.0127         0.287889   
    337. A(H 112,C  50,H 114)          107.7399         0.287537   
    338. A(C  48,C  50,H 114)          110.5397         0.321732   
    339. A(H 112,C  50,H 113)          108.2153         0.287958   
    340. A(C  48,C  50,H 113)          110.3886         0.322224   
    341. A(C  48,C  50,H 112)          110.8627         0.321812   
    342. D(H  51,C   2,C   1,N   9)    -64.8264         0.008712   
    343. D(C   3,C   2,C   1,N   9)    170.3035         0.008712   
    344. D(N   6,C   2,C   1,N   9)     54.6209         0.008712   
    345. D(N   6,C   2,C   1,O   0)   -126.4140         0.008712   
    346. D(C   3,C   2,C   1,O   0)    -10.7314         0.008712   
    347. D(H  51,C   2,C   1,O   0)    114.1387         0.008712   
    348. D(C   4,C   3,C   2,N   6)     33.7066         0.011285   
    349. D(H  53,C   3,C   2,H  51)    -88.7013         0.011285   
    350. D(H  53,C   3,C   2,C   1)     32.5519         0.011285   
    351. D(C   4,C   3,C   2,H  51)    150.4037         0.011285   
    352. D(H  53,C   3,C   2,N   6)    154.6017         0.011285   
    353. D(H  52,C   3,C   2,H  51)     32.3365         0.011285   
    354. D(C   4,C   3,C   2,C   1)    -88.3431         0.011285   
    355. D(H  52,C   3,C   2,C   1)    153.5897         0.011285   
    356. D(H  52,C   3,C   2,N   6)    -84.3605         0.011285   
    357. D(H  55,C   4,C   3,H  53)     78.8309         0.010778   
    358. D(H  55,C   4,C   3,H  52)    -44.4273         0.010778   
    359. D(H  54,C   4,C   3,H  52)   -165.4007         0.010778   
    360. D(H  55,C   4,C   3,C   2)   -161.8494         0.010778   
    361. D(H  54,C   4,C   3,H  53)    -42.1426         0.010778   
    362. D(C   5,C   4,C   3,C   2)    -40.3374         0.010778   
    363. D(H  54,C   4,C   3,C   2)     77.1772         0.010778   
    364. D(C   5,C   4,C   3,H  53)   -159.6572         0.010778   
    365. D(C   5,C   4,C   3,H  52)     77.0846         0.010778   
    366. D(N   6,C   5,C   4,C   3)     30.7259         0.011086   
    367. D(H  57,C   5,C   4,C   3)    -87.1280         0.011086   
    368. D(H  56,C   5,C   4,H  55)    -86.8761         0.011086   
    369. D(H  56,C   5,C   4,C   3)    150.5560         0.011086   
    370. D(H  57,C   5,C   4,H  54)    155.9514         0.011086   
    371. D(H  56,C   5,C   4,H  54)     33.6354         0.011086   
    372. D(H  57,C   5,C   4,H  55)     35.4398         0.011086   
    373. D(N   6,C   5,C   4,H  54)    -86.1946         0.011086   
    374. D(N   6,C   5,C   4,H  55)    153.2938         0.011086   
    375. D(C   5,N   6,C   2,C   3)    -15.1136         0.013517   
    376. D(C   7,N   6,C   5,H  57)    -64.7757         0.013794   
    377. D(C   7,N   6,C   5,H  56)     55.0235         0.013794   
    378. D(C   7,N   6,C   5,C   4)    176.6972         0.013794   
    379. D(C   2,N   6,C   5,H  57)    108.6914         0.013794   
    380. D(C   2,N   6,C   5,H  56)   -131.5094         0.013794   
    381. D(C   7,N   6,C   2,H  51)     38.0569         0.013517   
    382. D(C   2,N   6,C   5,C   4)     -9.8357         0.013794   
    383. D(C   7,N   6,C   2,C   3)    158.5982         0.013517   
    384. D(C   5,N   6,C   2,C   1)    105.3572         0.013517   
    385. D(C   7,N   6,C   2,C   1)    -80.9311         0.013517   
    386. D(C   5,N   6,C   2,H  51)   -135.6548         0.013517   
    387. D(C  24,C   7,N   6,C   5)      0.7967         0.034115   
    388. D(C  24,C   7,N   6,C   2)   -172.0071         0.034115   
    389. D(O   8,C   7,N   6,C   5)   -177.5090         0.034115   
    390. D(O   8,C   7,N   6,C   2)      9.6873         0.034115   
    391. D(H  58,N   9,C   1,O   0)   -175.1992         0.033757   
    392. D(C  10,N   9,C   1,C   2)    175.2368         0.033757   
    393. D(H  58,N   9,C   1,C   2)      3.7314         0.033757   
    394. D(C  10,N   9,C   1,O   0)     -3.6937         0.033757   
    395. D(H  59,C  10,N   9,C   1)    -51.1814         0.015418   
    396. D(C  48,C  10,N   9,H  58)   -118.2370         0.015418   
    397. D(C  48,C  10,N   9,C   1)     70.5822         0.015418   
    398. D(C  11,C  10,N   9,C   1)   -164.2328         0.015418   
    399. D(H  59,C  10,N   9,H  58)    119.9994         0.015418   
    400. D(C  11,C  10,N   9,H  58)      6.9480         0.015418   
    401. D(O  47,C  11,C  10,N   9)    100.3322         0.009790   
    402. D(N  12,C  11,C  10,H  59)    167.3380         0.009790   
    403. D(N  12,C  11,C  10,C  48)     48.3370         0.009790   
    404. D(N  12,C  11,C  10,N   9)    -77.8821         0.009790   
    405. D(O  47,C  11,C  10,H  59)    -14.4478         0.009790   
    406. D(O  47,C  11,C  10,C  48)   -133.4488         0.009790   
    407. D(H  60,N  12,C  11,O  47)   -171.5802         0.029919   
    408. D(H  60,N  12,C  11,C  10)      6.6273         0.029919   
    409. D(C  13,N  12,C  11,O  47)    -13.1438         0.029919   
    410. D(C  13,N  12,C  11,C  10)    165.0638         0.029919   
    411. D(H  61,C  13,N  12,C  11)    -17.1998         0.017493   
    412. D(H  61,C  13,N  12,H  60)    142.2512         0.017493   
    413. D(C  45,C  13,N  12,H  60)    -96.8781         0.017493   
    414. D(C  45,C  13,N  12,C  11)    103.6710         0.017493   
    415. D(C  14,C  13,N  12,C  11)   -136.3763         0.017493   
    416. D(C  14,C  13,N  12,H  60)     23.0746         0.017493   
    417. D(O  44,C  14,C  13,C  45)    100.7384         0.010609   
    418. D(O  44,C  14,C  13,N  12)    -21.4569         0.010609   
    419. D(N  15,C  14,C  13,H  61)     44.2694         0.010609   
    420. D(N  15,C  14,C  13,C  45)    -76.4677         0.010609   
    421. D(O  44,C  14,C  13,H  61)   -138.5245         0.010609   
    422. D(N  15,C  14,C  13,N  12)    161.3370         0.010609   
    423. D(H  62,N  15,C  14,O  44)   -174.7731         0.036438   
    424. D(H  62,N  15,C  14,C  13)      2.3911         0.036438   
    425. D(C  16,N  15,C  14,O  44)     -4.7395         0.036438   
    426. D(C  16,N  15,C  14,C  13)    172.4246         0.036438   
    427. D(H  64,C  16,N  15,H  62)   -142.1905         0.016084   
    428. D(H  64,C  16,N  15,C  14)     47.7817         0.016084   
    429. D(H  63,C  16,N  15,H  62)    -25.6951         0.016084   
    430. D(H  63,C  16,N  15,C  14)    164.2772         0.016084   
    431. D(C  17,C  16,N  15,C  14)    -75.2155         0.016084   
    432. D(C  17,C  16,N  15,H  62)     94.8123         0.016084   
    433. D(H  65,C  17,C  16,H  64)    -80.8533         0.009836   
    434. D(H  65,C  17,C  16,H  63)    160.1265         0.009836   
    435. D(H  65,C  17,C  16,N  15)     40.2245         0.009836   
    436. D(O  43,C  17,C  16,H  64)    164.7592         0.009836   
    437. D(O  43,C  17,C  16,H  63)     45.7390         0.009836   
    438. D(O  43,C  17,C  16,N  15)    -74.1630         0.009836   
    439. D(C  18,C  17,C  16,H  64)     38.5984         0.009836   
    440. D(C  18,C  17,C  16,H  63)    -80.4218         0.009836   
    441. D(C  18,C  17,C  16,N  15)    159.6762         0.009836   
    442. D(H  66,C  18,C  17,H  65)    -71.4684         0.009756   
    443. D(H  66,C  18,C  17,O  43)     43.6353         0.009756   
    444. D(H  66,C  18,C  17,C  16)    168.9410         0.009756   
    445. D(C  32,C  18,C  17,O  43)    -67.4666         0.009756   
    446. D(C  32,C  18,C  17,C  16)     57.8391         0.009756   
    447. D(C  32,C  18,C  17,H  65)    177.4297         0.009756   
    448. D(C  19,C  18,C  17,H  65)     42.9598         0.009756   
    449. D(C  19,C  18,C  17,O  43)    158.0634         0.009756   
    450. D(C  19,C  18,C  17,C  16)    -76.6308         0.009756   
    451. D(O  31,C  19,C  18,H  66)    -54.3650         0.009448   
    452. D(O  31,C  19,C  18,C  32)     57.2334         0.009448   
    453. D(O  31,C  19,C  18,C  17)   -170.3428         0.009448   
    454. D(N  20,C  19,C  18,H  66)    124.5822         0.009448   
    455. D(N  20,C  19,C  18,C  17)      8.6044         0.009448   
    456. D(N  20,C  19,C  18,C  32)   -123.8194         0.009448   
    457. D(H  67,N  20,C  19,O  31)    175.4175         0.032030   
    458. D(H  67,N  20,C  19,C  18)     -3.4969         0.032030   
    459. D(C  21,N  20,C  19,O  31)     -5.3212         0.032030   
    460. D(C  21,N  20,C  19,C  18)    175.7644         0.032030   
    461. D(H  68,C  21,N  20,H  67)   -173.1986         0.015620   
    462. D(H  68,C  21,N  20,C  19)      7.5014         0.015620   
    463. D(C  27,C  21,N  20,H  67)    -53.3121         0.015620   
    464. D(C  27,C  21,N  20,C  19)    127.3880         0.015620   
    465. D(C  22,C  21,N  20,H  67)     72.8418         0.015620   
    466. D(C  22,C  21,N  20,C  19)   -106.4582         0.015620   
    467. D(N  23,C  22,C  21,C  27)     68.6243         0.009495   
    468. D(N  23,C  22,C  21,N  20)    -54.6962         0.009495   
    469. D(O  26,C  22,C  21,H  68)     10.3973         0.009495   
    470. D(O  26,C  22,C  21,C  27)   -111.6467         0.009495   
    471. D(O  26,C  22,C  21,N  20)    125.0328         0.009495   
    472. D(N  23,C  22,C  21,H  68)   -169.3316         0.009495   
    473. D(H  69,N  23,C  22,O  26)   -174.6145         0.030277   
    474. D(H  69,N  23,C  22,C  21)      5.1111         0.030277   
    475. D(C  24,N  23,C  22,O  26)     -9.8357         0.030277   
    476. D(C  24,N  23,C  22,C  21)    169.8899         0.030277   
    477. D(H  70,C  24,N  23,H  69)   -166.9248         0.016049   
    478. D(H  70,C  24,N  23,C  22)     27.8532         0.016049   
    479. D(C  25,C  24,N  23,H  69)     73.8659         0.016049   
    480. D(C  25,C  24,N  23,C  22)    -91.3561         0.016049   
    481. D(C   7,C  24,N  23,H  69)    -47.6321         0.016049   
    482. D(C   7,C  24,N  23,C  22)    147.1459         0.016049   
    483. D(H  70,C  24,C   7,O   8)   -161.6278         0.010261   
    484. D(H  70,C  24,C   7,N   6)     20.0206         0.010261   
    485. D(C  25,C  24,C   7,O   8)    -39.2685         0.010261   
    486. D(C  25,C  24,C   7,N   6)    142.3799         0.010261   
    487. D(N  23,C  24,C   7,O   8)     82.8244         0.010261   
    488. D(N  23,C  24,C   7,N   6)    -95.5272         0.010261   
    489. D(H  73,C  25,C  24,H  70)    179.2576         0.011150   
    490. D(H  73,C  25,C  24,N  23)    -63.6623         0.011150   
    491. D(H  73,C  25,C  24,C   7)     55.6585         0.011150   
    492. D(H  72,C  25,C  24,H  70)     59.7854         0.011150   
    493. D(H  72,C  25,C  24,N  23)    176.8655         0.011150   
    494. D(H  72,C  25,C  24,C   7)    -63.8137         0.011150   
    495. D(H  71,C  25,C  24,H  70)    -59.8763         0.011150   
    496. D(H  71,C  25,C  24,N  23)     57.2038         0.011150   
    497. D(H  71,C  25,C  24,C   7)    176.5246         0.011150   
    498. D(H  75,C  27,C  21,H  68)     66.4828         0.010475   
    499. D(H  75,C  27,C  21,C  22)   -174.0604         0.010475   
    500. D(H  75,C  27,C  21,N  20)    -51.1550         0.010475   
    501. D(H  74,C  27,C  21,H  68)   -179.3088         0.010475   
    502. D(H  74,C  27,C  21,C  22)    -59.8520         0.010475   
    503. D(H  74,C  27,C  21,N  20)     63.0534         0.010475   
    504. D(C  28,C  27,C  21,H  68)    -54.4535         0.010475   
    505. D(C  28,C  27,C  21,C  22)     65.0033         0.010475   
    506. D(C  28,C  27,C  21,N  20)   -172.0913         0.010475   
    507. D(H  76,C  28,C  27,H  75)    -71.4987         0.010503   
    508. D(H  76,C  28,C  27,H  74)    172.9646         0.010503   
    509. D(H  76,C  28,C  27,C  21)     48.0008         0.010503   
    510. D(C  30,C  28,C  27,H  75)     45.6804         0.010503   
    511. D(C  30,C  28,C  27,H  74)    -69.8563         0.010503   
    512. D(C  30,C  28,C  27,C  21)    165.1799         0.010503   
    513. D(C  29,C  28,C  27,H  75)    168.8936         0.010503   
    514. D(C  29,C  28,C  27,H  74)     53.3569         0.010503   
    515. D(C  29,C  28,C  27,C  21)    -71.6069         0.010503   
    516. D(H  79,C  29,C  28,C  30)     67.5942         0.010806   
    517. D(H  79,C  29,C  28,C  27)    -55.0195         0.010806   
    518. D(H  78,C  29,C  28,H  76)     66.6200         0.010806   
    519. D(H  78,C  29,C  28,C  30)    -51.3598         0.010806   
    520. D(H  78,C  29,C  28,C  27)   -173.9735         0.010806   
    521. D(H  77,C  29,C  28,H  76)    -53.1282         0.010806   
    522. D(H  77,C  29,C  28,C  30)   -171.1081         0.010806   
    523. D(H  79,C  29,C  28,H  76)   -174.4259         0.010806   
    524. D(H  77,C  29,C  28,C  27)     66.2783         0.010806   
    525. D(H  82,C  30,C  28,H  76)    -61.4932         0.010834   
    526. D(H  82,C  30,C  28,C  29)     56.4606         0.010834   
    527. D(H  82,C  30,C  28,C  27)   -178.4222         0.010834   
    528. D(H  81,C  30,C  28,H  76)    179.1009         0.010834   
    529. D(H  81,C  30,C  28,C  29)    -62.9452         0.010834   
    530. D(H  81,C  30,C  28,C  27)     62.1719         0.010834   
    531. D(H  80,C  30,C  28,H  76)     59.1280         0.010834   
    532. D(H  80,C  30,C  28,C  29)    177.0819         0.010834   
    533. D(H  80,C  30,C  28,C  27)    -57.8010         0.010834   
    534. D(O  42,C  32,C  18,H  66)    -87.7289         0.009349   
    535. D(O  42,C  32,C  18,C  19)    160.6510         0.009349   
    536. D(O  42,C  32,C  18,C  17)     25.1979         0.009349   
    537. D(C  33,C  32,C  18,H  66)     89.2954         0.009349   
    538. D(C  33,C  32,C  18,C  19)    -22.3247         0.009349   
    539. D(C  33,C  32,C  18,C  17)   -157.7778         0.009349   
    540. D(H  84,C  33,C  32,O  42)   -164.5482         0.012272   
    541. D(H  84,C  33,C  32,C  18)     18.4833         0.012272   
    542. D(H  83,C  33,C  32,O  42)    -44.6861         0.012272   
    543. D(H  83,C  33,C  32,C  18)    138.3454         0.012272   
    544. D(C  34,C  33,C  32,O  42)     73.1306         0.012272   
    545. D(C  34,C  33,C  32,C  18)   -103.8379         0.012272   
    546. D(H  86,C  34,C  33,H  84)     59.8675         0.009834   
    547. D(H  86,C  34,C  33,H  83)    -60.4592         0.009834   
    548. D(H  86,C  34,C  33,C  32)   -176.8108         0.009834   
    549. D(H  85,C  34,C  33,H  84)    175.1439         0.009834   
    550. D(H  85,C  34,C  33,H  83)     54.8172         0.009834   
    551. D(H  85,C  34,C  33,C  32)    -61.5344         0.009834   
    552. D(C  35,C  34,C  33,H  84)    -61.5877         0.009834   
    553. D(C  35,C  34,C  33,H  83)    178.0855         0.009834   
    554. D(C  35,C  34,C  33,C  32)     61.7340         0.009834   
    555. D(H  88,C  35,C  34,H  86)    173.5114         0.011144   
    556. D(H  88,C  35,C  34,H  85)     56.3194         0.011144   
    557. D(H  88,C  35,C  34,C  33)    -66.2116         0.011144   
    558. D(H  87,C  35,C  34,H  86)    -70.7489         0.011144   
    559. D(H  87,C  35,C  34,H  85)    172.0591         0.011144   
    560. D(H  87,C  35,C  34,C  33)     49.5281         0.011144   
    561. D(C  36,C  35,C  34,H  86)     52.3001         0.011144   
    562. D(C  36,C  35,C  34,H  85)    -64.8920         0.011144   
    563. D(C  36,C  35,C  34,C  33)    172.5771         0.011144   
    564. D(H  90,C  36,C  35,H  87)     63.3135         0.011175   
    565. D(H  90,C  36,C  35,C  34)    -59.3112         0.011175   
    566. D(H  89,C  36,C  35,H  88)    -65.3659         0.011175   
    567. D(H  89,C  36,C  35,H  87)    178.9659         0.011175   
    568. D(H  89,C  36,C  35,C  34)     56.3412         0.011175   
    569. D(C  37,C  36,C  35,H  88)     57.0235         0.011175   
    570. D(C  37,C  36,C  35,H  87)    -58.6448         0.011175   
    571. D(H  90,C  36,C  35,H  88)    178.9818         0.011175   
    572. D(C  37,C  36,C  35,C  34)    178.7305         0.011175   
    573. D(H  92,C  37,C  36,H  90)    179.6175         0.011122   
    574. D(H  92,C  37,C  36,H  89)     64.0282         0.011122   
    575. D(H  92,C  37,C  36,C  35)    -58.4871         0.011122   
    576. D(H  91,C  37,C  36,H  90)    -64.9624         0.011122   
    577. D(H  91,C  37,C  36,H  89)    179.4483         0.011122   
    578. D(H  91,C  37,C  36,C  35)     56.9330         0.011122   
    579. D(C  38,C  37,C  36,H  90)     57.3572         0.011122   
    580. D(C  38,C  37,C  36,H  89)    -58.2321         0.011122   
    581. D(C  38,C  37,C  36,C  35)    179.2526         0.011122   
    582. D(H  94,C  38,C  37,H  92)    179.9994         0.011131   
    583. D(H  94,C  38,C  37,H  91)     64.4701         0.011131   
    584. D(H  94,C  38,C  37,C  36)    -57.7563         0.011131   
    585. D(H  93,C  38,C  37,H  92)    -64.5317         0.011131   
    586. D(H  93,C  38,C  37,H  91)    179.9390         0.011131   
    587. D(H  93,C  38,C  37,C  36)     57.7126         0.011131   
    588. D(C  39,C  38,C  37,H  92)     57.7738         0.011131   
    589. D(C  39,C  38,C  37,H  91)    -57.7555         0.011131   
    590. D(C  39,C  38,C  37,C  36)   -179.9819         0.011131   
    591. D(H  95,C  39,C  38,H  94)    -64.6030         0.011130   
    592. D(H  95,C  39,C  38,H  93)    179.9325         0.011130   
    593. D(H  95,C  39,C  38,C  37)     57.6176         0.011130   
    594. D(C  40,C  39,C  38,H  94)     57.6687         0.011130   
    595. D(C  40,C  39,C  38,H  93)    -57.7958         0.011130   
    596. D(C  40,C  39,C  38,C  37)    179.8893         0.011130   
    597. D(H  96,C  39,C  38,H  94)    179.9554         0.011130   
    598. D(H  96,C  39,C  38,H  93)     64.4909         0.011130   
    599. D(H  96,C  39,C  38,C  37)    -57.8240         0.011130   
    600. D(H  98,C  40,C  39,H  95)     64.6595         0.011069   
    601. D(H  98,C  40,C  39,C  38)    -57.6414         0.011069   
    602. D(H  97,C  40,C  39,H  96)    -64.6383         0.011069   
    603. D(H  97,C  40,C  39,H  95)    179.9895         0.011069   
    604. D(H  97,C  40,C  39,C  38)     57.6885         0.011069   
    605. D(C  41,C  40,C  39,H  96)     57.7083         0.011069   
    606. D(C  41,C  40,C  39,H  95)    -57.6638         0.011069   
    607. D(H  98,C  40,C  39,H  96)   -179.9683         0.011069   
    608. D(C  41,C  40,C  39,C  38)   -179.9648         0.011069   
    609. D(H 101,C  41,C  40,H  98)    -62.2747         0.011154   
    610. D(H 101,C  41,C  40,H  97)   -178.1729         0.011154   
    611. D(H 101,C  41,C  40,C  39)     59.7640         0.011154   
    612. D(H 100,C  41,C  40,H  98)    178.1948         0.011154   
    613. D(H 100,C  41,C  40,H  97)     62.2965         0.011154   
    614. D(H 100,C  41,C  40,C  39)    -59.7666         0.011154   
    615. D(H  99,C  41,C  40,H  98)     57.9568         0.011154   
    616. D(H  99,C  41,C  40,H  97)    -57.9414         0.011154   
    617. D(H  99,C  41,C  40,C  39)    179.9954         0.011154   
    618. D(H 102,O  43,C  17,H  65)    171.7024         0.019215   
    619. D(H 102,O  43,C  17,C  18)     54.7753         0.019215   
    620. D(H 102,O  43,C  17,C  16)    -71.8708         0.019215   
    621. D(H 104,C  45,C  13,H  61)   -178.5039         0.009844   
    622. D(H 104,C  45,C  13,C  14)    -56.7876         0.009844   
    623. D(H 104,C  45,C  13,N  12)     61.5343         0.009844   
    624. D(H 103,C  45,C  13,H  61)    -63.3242         0.009844   
    625. D(H 103,C  45,C  13,C  14)     58.3921         0.009844   
    626. D(H 103,C  45,C  13,N  12)    176.7140         0.009844   
    627. D(C  46,C  45,C  13,H  61)     59.2308         0.009844   
    628. D(C  46,C  45,C  13,C  14)   -179.0529         0.009844   
    629. D(C  46,C  45,C  13,N  12)    -60.7310         0.009844   
    630. D(H 107,C  46,C  45,H 104)    -60.7029         0.011400   
    631. D(H 107,C  46,C  45,H 103)   -178.2086         0.011400   
    632. D(H 107,C  46,C  45,C  13)     60.1918         0.011400   
    633. D(H 106,C  46,C  45,H 104)    179.7826         0.011400   
    634. D(H 106,C  46,C  45,H 103)     62.2770         0.011400   
    635. D(H 106,C  46,C  45,C  13)    -59.3227         0.011400   
    636. D(H 105,C  46,C  45,H 104)     59.1772         0.011400   
    637. D(H 105,C  46,C  45,H 103)    -58.3284         0.011400   
    638. D(H 105,C  46,C  45,C  13)   -179.9281         0.011400   
    639. D(H 108,C  48,C  10,H  59)   -100.3950         0.008555   
    640. D(H 108,C  48,C  10,C  11)     17.1008         0.008555   
    641. D(H 108,C  48,C  10,N   9)    137.9096         0.008555   
    642. D(C  50,C  48,C  10,H  59)     16.0469         0.008555   
    643. D(C  50,C  48,C  10,C  11)    133.5427         0.008555   
    644. D(C  50,C  48,C  10,N   9)   -105.6485         0.008555   
    645. D(C  49,C  48,C  10,H  59)    141.5278         0.008555   
    646. D(C  49,C  48,C  10,C  11)   -100.9764         0.008555   
    647. D(C  49,C  48,C  10,N   9)     19.8324         0.008555   
    648. D(H 111,C  49,C  48,C  50)     56.9237         0.010920   
    649. D(H 111,C  49,C  48,C  10)    -68.6573         0.010920   
    650. D(H 110,C  49,C  48,H 108)     55.1817         0.010920   
    651. D(H 110,C  49,C  48,C  50)    -62.1006         0.010920   
    652. D(H 110,C  49,C  48,C  10)    172.3184         0.010920   
    653. D(H 109,C  49,C  48,H 108)    -65.1636         0.010920   
    654. D(H 109,C  49,C  48,C  50)    177.5541         0.010920   
    655. D(H 111,C  49,C  48,H 108)    174.2060         0.010920   
    656. D(H 109,C  49,C  48,C  10)     51.9731         0.010920   
    657. D(H 114,C  50,C  48,H 108)    -61.6888         0.010902   
    658. D(H 114,C  50,C  48,C  49)     55.8085         0.010902   
    659. D(H 114,C  50,C  48,C  10)   -177.3526         0.010902   
    660. D(H 113,C  50,C  48,H 108)    177.6206         0.010902   
    661. D(H 113,C  50,C  48,C  49)    -64.8820         0.010902   
    662. D(H 113,C  50,C  48,C  10)     61.9568         0.010902   
    663. D(H 112,C  50,C  48,H 108)     57.7179         0.010902   
    664. D(H 112,C  50,C  48,C  49)    175.2152         0.010902   
    665. D(H 112,C  50,C  48,C  10)    -57.9459         0.010902   
    -----------------------------------------------------------------

Number of atoms                         .... 115
Number of degrees of freedom            .... 665

         *************************************************************
         *                GEOMETRY OPTIMIZATION CYCLE   1            *
         *************************************************************
---------------------------------
CARTESIAN COORDINATES (ANGSTROEM)
---------------------------------
  O      6.770429   -1.403643    3.945300
  C      6.333765   -0.845063    2.937560
  C      6.444582    0.694791    2.736494
  C      6.895862    1.390467    4.020136
  C      5.569344    1.663864    4.742175
  C      4.634557    2.097591    3.610249
  N      5.147429    1.349580    2.440637
  C      4.604072    1.353597    1.204199
  O      5.059869    0.663502    0.269092
  N      5.742103   -1.478344    1.900016
  C      5.609446   -2.933660    1.800563
  C      5.261594   -3.204622    0.325665
  N      3.953566   -2.951384    0.019234
  C      3.458667   -2.827025   -1.335498
  C      2.520223   -1.621702   -1.346007
  N      2.228773   -1.059700   -2.529676
  C      1.217385   -0.013964   -2.639896
  C     -0.215063   -0.592968   -2.540214
  C     -1.269652    0.473922   -2.152389
  C     -1.320595    0.907402   -0.670647
  N     -0.318353    0.448800    0.123513
  C     -0.167751    0.837289    1.525881
  C      1.021393    1.814062    1.650810
  N      2.198432    1.347444    1.139244
  C      3.358712    2.217830    0.979027
  C      3.392180    2.868781   -0.405093
  O      0.904136    2.924784    2.167840
  C     -0.056583   -0.421315    2.404542
  C     -0.081107   -0.204186    3.927545
  C      1.200437    0.440396    4.472253
  C     -0.333917   -1.548462    4.622115
  O     -2.242683    1.613582   -0.257036
  C     -1.268927    1.633207   -3.175589
  C     -1.793930    3.005524   -2.841974
  C     -3.188533    3.229588   -3.476044
  C     -4.263353    2.261419   -2.977769
  C     -5.662745    2.619033   -3.481240
  C     -6.740961    1.638916   -3.013709
  C     -8.146571    2.000327   -3.498519
  C     -9.224618    1.020396   -3.030544
  C    -10.632098    1.381866   -3.512424
  C    -11.701521    0.396087   -3.038028
  O     -0.870509    1.392216   -4.316311
  O     -0.560979   -1.271754   -3.743730
  O      2.004445   -1.215479   -0.281431
  C      2.686236   -4.081842   -1.810379
  C      3.550726   -5.340217   -1.806765
  O      6.089194   -3.578494   -0.500221
  C      4.589048   -3.574761    2.805690
  C      3.577274   -2.568852    3.366363
  C      5.318531   -4.304376    3.939763
  H      7.117317    0.866082    1.882049
  H      7.409895    2.331587    3.775926
  H      7.569755    0.745180    4.593756
  H      5.204858    0.734628    5.203192
  H      5.646303    2.427102    5.526122
  H      3.582010    1.851558    3.796291
  H      4.711729    3.181670    3.428196
  H      5.496578   -0.883696    1.091729
  H      6.597454   -3.385963    1.967282
  H      3.351836   -2.521437    0.721308
  H      4.324823   -2.658888   -1.996362
  H      2.607301   -1.471052   -3.376537
  H      1.341258    0.484998   -3.606753
  H      1.406672    0.729932   -1.852939
  H     -0.218160   -1.372226   -1.763036
  H     -2.256212   -0.001013   -2.310618
  H      0.394454   -0.192565   -0.236803
  H     -1.060384    1.416081    1.793902
  H      2.221436    0.449862    0.646659
  H      3.260991    2.994864    1.747068
  H      2.462111    3.429867   -0.563346
  H      4.239885    3.563146   -0.490626
  H      3.503120    2.101879   -1.182366
  H      0.852018   -0.984164    2.130239
  H     -0.910599   -1.059909    2.126776
  H     -0.927543    0.466746    4.158392
  H      1.326889    1.469023    4.112846
  H      1.175324    0.474505    5.571218
  H      2.083609   -0.147641    4.176858
  H     -1.275472   -2.006447    4.285409
  H      0.481758   -2.255995    4.404429
  H     -0.385741   -1.426267    5.713496
  H     -1.086414    3.722300   -3.286086
  H     -1.853100    3.157607   -1.759796
  H     -3.094530    3.159303   -4.571354
  H     -3.491259    4.263698   -3.246810
  H     -4.250698    2.234964   -1.876586
  H     -4.019493    1.235855   -3.308635
  H     -5.659720    2.661005   -4.584911
  H     -5.921986    3.636508   -3.139115
  H     -6.734969    1.591558   -1.910740
  H     -6.485056    0.622522   -3.361852
  H     -8.151285    2.048536   -4.601907
  H     -8.401948    3.016721   -3.150120
  H     -9.219052    0.971301   -1.927142
  H     -8.970365    0.003621   -3.379296
  H    -10.635515    1.430593   -4.614785
  H    -10.883705    2.397962   -3.163454
  H    -12.701591    0.678309   -3.397251
  H    -11.490782   -0.621671   -3.400563
  H    -11.740759    0.353182   -1.938824
  H     -0.686894   -0.544056   -4.394070
  H      2.291770   -3.891063   -2.821501
  H      1.811716   -4.213522   -1.152490
  H      2.968115   -6.206042   -2.150334
  H      4.425112   -5.225724   -2.461508
  H      3.923958   -5.558763   -0.797760
  H      4.028344   -4.332333    2.232537
  H      3.057749   -1.988502    2.588089
  H      2.810229   -3.095051    3.951554
  H      4.073221   -1.849212    4.032207
  H      5.982112   -5.084986    3.540171
  H      5.928443   -3.598743    4.518364
  H      4.596915   -4.790280    4.613146

----------------------------
CARTESIAN COORDINATES (A.U.)
----------------------------
  NO LB      ZA    FRAG     MASS         X           Y           Z
   0 O     8.0000    0    15.999   12.794257   -2.652501    7.455536
   1 C     6.0000    0    12.011   11.969081   -1.596938    5.551185
   2 C     6.0000    0    12.011   12.178495    1.312965    5.171224
   3 C     6.0000    0    12.011   13.031290    2.627602    7.596956
   4 C     6.0000    0    12.011   10.524535    3.144247    8.961412
   5 C     6.0000    0    12.011    8.758044    3.963872    6.822382
   6 N     7.0000    0    14.007    9.727231    2.550336    4.612135
   7 C     6.0000    0    12.011    8.700435    2.557927    2.275607
   8 O     8.0000    0    15.999    9.561767    1.253836    0.508510
   9 N     7.0000    0    14.007   10.851002   -2.793666    3.590510
  10 C     6.0000    0    12.011   10.600316   -5.543814    3.402571
  11 C     6.0000    0    12.011    9.942972   -6.055858    0.615417
  12 N     7.0000    0    14.007    7.471157   -5.577308    0.036348
  13 C     6.0000    0    12.011    6.535934   -5.342303   -2.523726
  14 C     6.0000    0    12.011    4.762530   -3.064573   -2.543585
  15 N     7.0000    0    14.007    4.211770   -2.002542   -4.780394
  16 C     6.0000    0    12.011    2.300525   -0.026388   -4.988680
  17 C     6.0000    0    12.011   -0.406411   -1.120548   -4.800309
  18 C     6.0000    0    12.011   -2.399295    0.895582   -4.067425
  19 C     6.0000    0    12.011   -2.495562    1.714740   -1.267340
  20 N     7.0000    0    14.007   -0.601599    0.848109    0.233406
  21 C     6.0000    0    12.011   -0.317003    1.582247    2.883498
  22 C     6.0000    0    12.011    1.930154    3.428080    3.119579
  23 N     7.0000    0    14.007    4.154435    2.546301    2.152859
  24 C     6.0000    0    12.011    6.347045    4.191090    1.850092
  25 C     6.0000    0    12.011    6.410292    5.421211   -0.765515
  26 O     8.0000    0    15.999    1.708570    5.527042    4.096624
  27 C     6.0000    0    12.011   -0.106927   -0.796169    4.543926
  28 C     6.0000    0    12.011   -0.153270   -0.385855    7.421985
  29 C     6.0000    0    12.011    2.268496    0.832227    8.451333
  30 C     6.0000    0    12.011   -0.631012   -2.926169    8.734532
  31 O     8.0000    0    15.999   -4.238056    3.049229   -0.485727
  32 C     6.0000    0    12.011   -2.397924    3.086314   -6.000993
  33 C     6.0000    0    12.011   -3.390035    5.679617   -5.370553
  34 C     6.0000    0    12.011   -6.025454    6.103036   -6.568770
  35 C     6.0000    0    12.011   -8.056570    4.273463   -5.627168
  36 C     6.0000    0    12.011  -10.701036    4.949255   -6.578590
  37 C     6.0000    0    12.011  -12.738570    3.097103   -5.695085
  38 C     6.0000    0    12.011  -15.394789    3.780071   -6.611243
  39 C     6.0000    0    12.011  -17.432001    1.928270   -5.726899
  40 C     6.0000    0    12.011  -20.091753    2.611348   -6.637519
  41 C     6.0000    0    12.011  -22.112670    0.748496   -5.741041
  42 O     8.0000    0    15.999   -1.645024    2.630906   -8.156646
  43 O     8.0000    0    15.999   -1.060096   -2.403267   -7.074625
  44 O     8.0000    0    15.999    3.787851   -2.296922   -0.531827
  45 C     6.0000    0    12.011    5.076251   -7.713563   -3.421120
  46 C     6.0000    0    12.011    6.709901  -10.091547   -3.414291
  47 O     8.0000    0    15.999   11.506909   -6.762374   -0.945281
  48 C     6.0000    0    12.011    8.672044   -6.755320    5.301986
  49 C     6.0000    0    12.011    6.760069   -4.854427    6.361504
  50 C     6.0000    0    12.011   10.050567   -8.134093    7.445072
  51 H     1.0000    0     1.008   13.449780    1.636658    3.556557
  52 H     1.0000    0     1.008   14.002672    4.406062    7.135466
  53 H     1.0000    0     1.008   14.304763    1.408186    8.680940
  54 H     1.0000    0     1.008    9.835757    1.388245    9.832609
  55 H     1.0000    0     1.008   10.669966    4.586558   10.442856
  56 H     1.0000    0     1.008    6.769018    3.498937    7.173950
  57 H     1.0000    0     1.008    8.903877    6.012485    6.478352
  58 H     1.0000    0     1.008   10.387027   -1.669944    2.063070
  59 H     1.0000    0     1.008   12.467380   -6.398544    3.717624
  60 H     1.0000    0     1.008    6.334051   -4.764825    1.363075
  61 H     1.0000    0     1.008    8.172731   -5.024571   -3.772577
  62 H     1.0000    0     1.008    4.927084   -2.779886   -6.380730
  63 H     1.0000    0     1.008    2.534610    0.916514   -6.815775
  64 H     1.0000    0     1.008    2.658225    1.379371   -3.501547
  65 H     1.0000    0     1.008   -0.412263   -2.593131   -3.331656
  66 H     1.0000    0     1.008   -4.263623   -0.001915   -4.366436
  67 H     1.0000    0     1.008    0.745411   -0.363895   -0.447493
  68 H     1.0000    0     1.008   -2.003835    2.676004    3.389984
  69 H     1.0000    0     1.008    4.197906    0.850117    1.222008
  70 H     1.0000    0     1.008    6.162379    5.659472    3.301480
  71 H     1.0000    0     1.008    4.652716    6.481509   -1.064569
  72 H     1.0000    0     1.008    8.012221    6.733370   -0.927150
  73 H     1.0000    0     1.008    6.619938    3.971976   -2.234348
  74 H     1.0000    0     1.008    1.610081   -1.859800    4.025569
  75 H     1.0000    0     1.008   -1.720782   -2.002938    4.019025
  76 H     1.0000    0     1.008   -1.752802    0.882022    7.858221
  77 H     1.0000    0     1.008    2.507456    2.776051    7.772153
  78 H     1.0000    0     1.008    2.221041    0.896685   10.528076
  79 H     1.0000    0     1.008    3.937450   -0.279001    7.893117
  80 H     1.0000    0     1.008   -2.410292   -3.791635    8.098250
  81 H     1.0000    0     1.008    0.910391   -4.263213    8.323165
  82 H     1.0000    0     1.008   -0.728945   -2.695254   10.796942
  83 H     1.0000    0     1.008   -2.053026    7.034128   -6.209802
  84 H     1.0000    0     1.008   -3.501852    5.967012   -3.325533
  85 H     1.0000    0     1.008   -5.847815    5.970218   -8.638607
  86 H     1.0000    0     1.008   -6.597523    8.057222   -6.135583
  87 H     1.0000    0     1.008   -8.032655    4.223470   -3.546233
  88 H     1.0000    0     1.008   -7.595741    2.335428   -6.252415
  89 H     1.0000    0     1.008  -10.695321    5.028571   -8.664225
  90 H     1.0000    0     1.008  -11.190931    6.872003   -5.932067
  91 H     1.0000    0     1.008  -12.727248    3.007608   -3.610775
  92 H     1.0000    0     1.008  -12.254980    1.176396   -6.352979
  93 H     1.0000    0     1.008  -15.403697    3.871173   -8.696344
  94 H     1.0000    0     1.008  -15.877381    5.700776   -5.952863
  95 H     1.0000    0     1.008  -17.421483    1.835493   -3.641771
  96 H     1.0000    0     1.008  -16.951533    0.006843   -6.385944
  97 H     1.0000    0     1.008  -20.098211    2.703429   -8.720680
  98 H     1.0000    0     1.008  -20.567221    4.531492   -5.978062
  99 H     1.0000    0     1.008  -24.002529    1.281818   -6.419875
 100 H     1.0000    0     1.008  -21.714431   -1.174788   -6.426134
 101 H     1.0000    0     1.008  -22.186819    0.667416   -3.663845
 102 H     1.0000    0     1.008   -1.298041   -1.028117   -8.303589
 103 H     1.0000    0     1.008    4.330818   -7.353043   -5.331864
 104 H     1.0000    0     1.008    3.423648   -7.962403   -2.177891
 105 H     1.0000    0     1.008    5.608925  -11.727720   -4.063543
 106 H     1.0000    0     1.008    8.362250   -9.875187   -4.651576
 107 H     1.0000    0     1.008    7.415205  -10.504540   -1.507549
 108 H     1.0000    0     1.008    7.612467   -8.186924    4.218884
 109 H     1.0000    0     1.008    5.778308   -3.757724    4.890779
 110 H     1.0000    0     1.008    5.310563   -5.848799    7.467356
 111 H     1.0000    0     1.008    7.697272   -3.494505    7.619767
 112 H     1.0000    0     1.008   11.304554   -9.609231    6.689954
 113 H     1.0000    0     1.008   11.203133   -6.800638    8.538471
 114 H     1.0000    0     1.008    8.686910   -9.052318    8.717583

--------------------------------
INTERNAL COORDINATES (ANGSTROEM)
--------------------------------
 O      0   0   0     0.000000000000     0.00000000     0.00000000
 C      1   0   0     1.232162834971     0.00000000     0.00000000
 C      2   1   0     1.556874825777   121.92280292     0.00000000
 C      3   2   1     1.528186999906   111.27173680   349.26862864
 C      4   3   2     1.534839847025   102.76888488   271.65685365
 C      5   4   3     1.530751964565   103.32016126   319.66255617
 N      6   5   4     1.480051030811   103.27029093    30.72588914
 C      7   6   5     1.350566911427   125.63050555   176.69716676
 O      8   7   6     1.248362361648   122.49533178   182.49103406
 N      2   1   3     1.351890225432   124.78026160   178.84265601
 C     10   2   1     1.464729681222   123.86088267   356.30626161
 C     11  10   2     1.539397993728   105.09413810   195.76720254
 N     12  11  10     1.367101200675   113.47515996   282.11791581
 C     13  12  11     1.447650036219   123.55680504   165.06377139
 C     14  13  12     1.527609727813   106.51299168   223.62366345
 N     15  14  13     1.342334149958   118.02096190   161.33695124
 C     16  15  14     1.458977702188   121.14586213   172.42464869
 C     17  16  15     1.548254687308   111.62025557   284.78454063
 C     18  17  16     1.549458071741   112.85017582   159.67615588
 C     19  18  17     1.544686788214   117.11458773   283.36917188
 N     20  19  18     1.358490289730   116.21261311     8.60442112
 C     21  20  19     1.462956129099   123.13969239   175.76437901
 C     22  21  20     1.543941681920   108.95659114   253.54180628
 N     23  22  21     1.365595985294   114.66859084   305.30377373
 C     24  23  22     1.459276442811   121.50987212   169.88993983
 C     25  24  23     1.529916684572   111.74656477   268.64391592
 O     23  22  21     1.230761797521   122.11079407   125.03275338
 C     22  21  20     1.538988720184   109.72790694   127.38795503
 C     28  22  21     1.538598487649   116.65292039   187.90872553
 C     29  28  22     1.534452635486   113.41300832   288.39309808
 C     29  28  22     1.534085848447   109.09498338   165.17993372
 O     20  19  18     1.232887704955   120.47853278   189.65724611
 C     19  18  17     1.546247382356   110.50509367    57.83909462
 C     33  19  18     1.506711559661   122.42418295   202.22217951
 C     34  33  19     1.548278725127   110.79278194   256.16213905
 C     35  34  33     1.529988735579   114.06827822    61.73396234
 C     36  35  34     1.529597170714   112.80284725   172.57706819
 C     37  36  35     1.530282414971   113.22260910   178.73049361
 C     38  37  36     1.530163538006   113.52560496   179.25261983
 C     39  38  37     1.530179382188   113.51696502   180.01809350
 C     40  39  38     1.530969419498   113.59265734   179.88932582
 C     41  40  39     1.529861995776   113.13564504   180.03519580
 O     33  19  18     1.232096372417   117.78549307    25.19785654
 O     18  17  16     1.424380109884   110.39585671   285.83695944
 O     15  14  13     1.250746774640   120.24774057   338.54307690
 C     14  13  12     1.548136198481   112.82994416   103.67096689
 C     46  14  13     1.526717014704   112.63275503   299.26899826
 O     12  11  10     1.227513489047   123.08511163   100.33218276
 C     11  10   2     1.569236359919   114.91789721    70.58217747
 C     49  11  10     1.532936877775   113.28882056    19.83244399
 C     49  11  10     1.533167896304   111.02763741   254.35151840
 H      3   2   1     1.100903622239   107.31480141   114.13872940
 H      4   3   2     1.099807404748   109.94095323   153.58966779
 H      4   3   2     1.095247525413   110.69630636    32.55187771
 H      5   4   3     1.099484915737   109.46432487    77.17719871
 H      5   4   3     1.096826071127   113.54989535   198.15060532
 H      6   5   4     1.096813233690   113.39331742   150.55596331
 H      6   5   4     1.101964816899   110.98610794   272.87195177
 H     10   2   1     1.033061220537   115.77652312   184.80084371
 H     11  10   2     1.099332845224   108.48745602   308.81859469
 H     13  12  11     1.019726560989   119.23353849     6.62731031
 H     14  13  12     1.102377435970   107.78856350   342.80023937
 H     16  15  14     1.014725688126   119.02596636     2.39110129
 H     17  16  15     1.095043060198   108.35359976   164.27716941
 H     17  16  15     1.099323098803   108.15441848    47.78170500
 H     18  17  16     1.100571115562   108.23157840    40.22452287
 H     19  18  17     1.106300496530   105.99505150   168.94098367
 H     21  20  19     1.024338811179   121.27339422   356.50313402
 H     22  21  20     1.097099706134   106.88907619     7.50140455
 H     24  23  22     1.024120222671   119.93502437     5.11110697
 H     25  24  23     1.096913530755   105.95046557    27.85320229
 H     26  25  24     1.097675041925   109.23141180    57.20384735
 H     26  25  24     1.099118501954   110.85923261   176.86553782
 H     26  25  24     1.097542806347   110.21923278   296.33772059
 H     28  22  21     1.103448263807   109.55454436    63.05341735
 H     28  22  21     1.101952119411   105.90462076   308.84498352
 H     29  28  22     1.104487834917   107.74791310    48.00082870
 H     30  29  28     1.096921884428   111.95552704    66.27826188
 H     30  29  28     1.099781025341   110.40658689   186.02650269
 H     30  29  28     1.101380296538   110.50093409   304.98054180
 H     31  29  28     1.099838844737   111.55290053   302.19898692
 H     31  29  28     1.101506785387   110.56981266    62.17187952
 H     31  29  28     1.099422056133   111.08925201   181.57776137
 H     34  33  19     1.100718420199   106.24814338   138.34543802
 H     34  33  19     1.094412734772   111.36759034    18.48328013
 H     35  34  33     1.101581066960   108.72962435   298.46563519
 H     35  34  33     1.101624039775   107.34682241   183.18918760
 H     36  35  34     1.101573713788   109.43170831    49.52810689
 H     36  35  34     1.104862593404   109.56021174   293.78840204
 H     37  36  35     1.104472538339   109.59036007    56.34115335
 H     37  36  35     1.104314202471   109.15997237   300.68878703
 H     38  37  36     1.104001461862   109.20109690    56.93299143
 H     38  37  36     1.104421879780   109.26056789   301.51287984
 H     39  38  37     1.104450993283   109.31495698    57.71257192
 H     39  38  37     1.104379895167   109.25900834   302.24372152
 H     40  39  38     1.104507804375   109.29544588    57.61762529
 H     40  39  38     1.104583287978   109.31534521   302.17602566
 H     41  40  39     1.103442946819   109.13043950    57.68854332
 H     41  40  39     1.103420982735   109.11751860   302.35856386
 H     42  41  40     1.099468653806   111.66147716   179.99542515
 H     42  41  40     1.100760830925   111.08874778   300.23339586
 H     42  41  40     1.100741333440   111.08128692    59.76395326
 H     44  18  17     0.984043215836   103.71409735   288.12918335
 H     46  14  13     1.101983430676   108.64665788   176.71403517
 H     46  14  13     1.102244226672   108.03560702    61.53429422
 H     47  46  14     1.098694334817   110.39768783   180.07192892
 H     47  46  14     1.098338763897   111.31239310   300.67733124
 H     47  46  14     1.097795111550   111.02497595    60.19175224
 H     49  11  10     1.103090326125   106.15843693   137.90963533
 H     50  49  11     1.101101329798   113.50031433    51.97310193
 H     50  49  11     1.098950700459   109.95272814   172.31841259
 H     50  49  11     1.098723124829   110.70286783   291.34268276
 H     51  49  11     1.099711328714   110.86272135   302.05408486
 H     51  49  11     1.097584033511   110.38855623    61.95680064
 H     51  49  11     1.100126326362   110.53971062   182.64735211

---------------------------
INTERNAL COORDINATES (A.U.)
---------------------------
 O      0   0   0     0.000000000000     0.00000000     0.00000000
 C      1   0   0     2.328450310491     0.00000000     0.00000000
 C      2   1   0     2.942067045514   121.92280292     0.00000000
 C      3   2   1     2.887854911241   111.27173680   349.26862864
 C      4   3   2     2.900426970307   102.76888488   271.65685365
 C      5   4   3     2.892701991990   103.32016126   319.66255617
 N      6   5   4     2.796891112461   103.27029093    30.72588914
 C      7   6   5     2.552201588134   125.63050555   176.69716676
 O      8   7   6     2.359062979409   122.49533178   182.49103406
 N      2   1   3     2.554702289192   124.78026160   178.84265601
 C     10   2   1     2.767937957735   123.86088267   356.30626161
 C     11  10   2     2.909040619255   105.09413810   195.76720254
 N     12  11  10     2.583446866631   113.47515996   282.11791581
 C     13  12  11     2.735662106215   123.55680504   165.06377139
 C     14  13  12     2.886764025080   106.51299168   223.62366345
 N     15  14  13     2.536643923631   118.02096190   161.33695124
 C     16  15  14     2.757068292633   121.14586213   172.42464869
 C     17  16  15     2.925777344573   111.62025557   284.78454063
 C     18  17  16     2.928051411584   112.85017582   159.67615588
 C     19  18  17     2.919034992411   117.11458773   283.36917188
 N     20  19  18     2.567174603182   116.21261311     8.60442112
 C     21  20  19     2.764586429939   123.13969239   175.76437901
 C     22  21  20     2.917626945574   108.95659114   253.54180628
 N     23  22  21     2.580602421788   114.66859084   305.30377373
 C     24  23  22     2.757632830595   121.50987212   169.88993983
 C     25  24  23     2.891123541559   111.74656477   268.64391592
 O     23  22  21     2.325802733407   122.11079407   125.03275338
 C     22  21  20     2.908267204341   109.72790694   127.38795503
 C     28  22  21     2.907529771721   116.65292039   187.90872553
 C     29  28  22     2.899695246543   113.41300832   288.39309808
 C     29  28  22     2.899002119488   109.09498338   165.17993372
 O     20  19  18     2.329820116244   120.47853278   189.65724611
 C     19  18  17     2.921984087945   110.50509367    57.83909462
 C     33  19  18     2.847272210573   122.42418295   202.22217951
 C     34  33  19     2.925822769467   110.79278194   256.16213905
 C     35  34  33     2.891259698229   114.06827822    61.73396234
 C     36  35  34     2.890519747870   112.80284725   172.57706819
 C     37  36  35     2.891814671850   113.22260910   178.73049361
 C     38  37  36     2.891590026943   113.52560496   179.25261983
 C     39  38  37     2.891619968108   113.51696502   180.01809350
 C     40  39  38     2.893112922259   113.59265734   179.88932582
 C     41  40  39     2.891020194711   113.13564504   180.03519580
 O     33  19  18     2.328324714466   117.78549307    25.19785654
 O     18  17  16     2.691688318286   110.39585671   285.83695944
 O     15  14  13     2.363568866956   120.24774057   338.54307690
 C     14  13  12     2.925553433139   112.82994416   103.67096689
 C     46  14  13     2.885077041789   112.63275503   299.26899826
 O     12  11  10     2.319664319994   123.08511163   100.33218276
 C     11  10   2     2.965426959638   114.91789721    70.58217747
 C     49  11  10     2.896830879583   113.28882056    19.83244399
 C     49  11  10     2.897267441335   111.02763741   254.35151840
 H      3   2   1     2.080406345874   107.31480141   114.13872940
 H      4   3   2     2.078334795032   109.94095323   153.58966779
 H      4   3   2     2.069717871886   110.69630636    32.55187771
 H      5   4   3     2.077725379120   109.46432487    77.17719871
 H      5   4   3     2.072700890975   113.54989535   198.15060532
 H      6   5   4     2.072676631736   113.39331742   150.55596331
 H      6   5   4     2.082411713156   110.98610794   272.87195177
[...]
freq.      84.14  E(vib)   ...       0.48 
freq.      86.90  E(vib)   ...       0.48 
freq.      94.32  E(vib)   ...       0.47 
freq.      94.76  E(vib)   ...       0.47 
freq.     104.01  E(vib)   ...       0.46 
freq.     105.94  E(vib)   ...       0.45 
freq.     112.71  E(vib)   ...       0.45 
freq.     113.72  E(vib)   ...       0.44 
freq.     117.73  E(vib)   ...       0.44 
freq.     132.24  E(vib)   ...       0.42 
freq.     136.85  E(vib)   ...       0.42 
freq.     141.54  E(vib)   ...       0.41 
freq.     145.49  E(vib)   ...       0.41 
freq.     149.69  E(vib)   ...       0.40 
freq.     153.42  E(vib)   ...       0.40 
freq.     157.95  E(vib)   ...       0.40 
freq.     162.81  E(vib)   ...       0.39 
freq.     172.14  E(vib)   ...       0.38 
freq.     176.12  E(vib)   ...       0.38 
freq.     178.25  E(vib)   ...       0.37 
freq.     185.83  E(vib)   ...       0.37 
freq.     198.12  E(vib)   ...       0.35 
freq.     210.81  E(vib)   ...       0.34 
freq.     216.99  E(vib)   ...       0.34 
freq.     218.81  E(vib)   ...       0.33 
freq.     224.82  E(vib)   ...       0.33 
freq.     227.94  E(vib)   ...       0.33 
freq.     232.97  E(vib)   ...       0.32 
freq.     237.23  E(vib)   ...       0.32 
freq.     238.12  E(vib)   ...       0.32 
freq.     242.37  E(vib)   ...       0.31 
freq.     247.40  E(vib)   ...       0.31 
freq.     248.88  E(vib)   ...       0.31 
freq.     257.06  E(vib)   ...       0.30 
freq.     262.16  E(vib)   ...       0.29 
freq.     266.06  E(vib)   ...       0.29 
freq.     274.11  E(vib)   ...       0.28 
freq.     277.50  E(vib)   ...       0.28 
freq.     281.52  E(vib)   ...       0.28 
freq.     293.97  E(vib)   ...       0.27 
freq.     298.41  E(vib)   ...       0.26 
freq.     313.77  E(vib)   ...       0.25 
freq.     318.14  E(vib)   ...       0.25 
freq.     325.70  E(vib)   ...       0.24 
freq.     334.54  E(vib)   ...       0.24 
freq.     338.14  E(vib)   ...       0.24 
freq.     339.97  E(vib)   ...       0.23 
freq.     349.97  E(vib)   ...       0.23 
freq.     356.40  E(vib)   ...       0.22 
freq.     366.23  E(vib)   ...       0.22 
freq.     379.33  E(vib)   ...       0.21 
freq.     382.09  E(vib)   ...       0.21 
freq.     390.25  E(vib)   ...       0.20 
freq.     414.05  E(vib)   ...       0.19 
freq.     421.65  E(vib)   ...       0.18 
freq.     425.05  E(vib)   ...       0.18 
freq.     434.20  E(vib)   ...       0.17 
freq.     442.80  E(vib)   ...       0.17 
freq.     447.13  E(vib)   ...       0.17 
freq.     468.85  E(vib)   ...       0.16 
freq.     475.17  E(vib)   ...       0.15 
freq.     479.88  E(vib)   ...       0.15 
freq.     493.17  E(vib)   ...       0.14 
freq.     497.99  E(vib)   ...       0.14 
freq.     501.78  E(vib)   ...       0.14 
freq.     504.76  E(vib)   ...       0.14 
freq.     523.93  E(vib)   ...       0.13 
freq.     554.60  E(vib)   ...       0.12 
freq.     571.69  E(vib)   ...       0.11 
freq.     591.79  E(vib)   ...       0.10 
freq.     607.15  E(vib)   ...       0.10 
freq.     612.10  E(vib)   ...       0.10 
freq.     614.78  E(vib)   ...       0.10 
freq.     623.95  E(vib)   ...       0.09 
freq.     637.12  E(vib)   ...       0.09 
freq.     651.30  E(vib)   ...       0.08 
freq.     664.49  E(vib)   ...       0.08 
freq.     681.92  E(vib)   ...       0.08 
freq.     692.52  E(vib)   ...       0.07 
freq.     708.82  E(vib)   ...       0.07 
freq.     712.09  E(vib)   ...       0.07 
freq.     717.04  E(vib)   ...       0.07 
freq.     720.19  E(vib)   ...       0.07 
freq.     725.65  E(vib)   ...       0.06 
freq.     727.85  E(vib)   ...       0.06 
freq.     733.89  E(vib)   ...       0.06 
freq.     743.28  E(vib)   ...       0.06 
freq.     745.43  E(vib)   ...       0.06 
freq.     760.96  E(vib)   ...       0.06 
freq.     762.28  E(vib)   ...       0.06 
freq.     766.17  E(vib)   ...       0.06 
freq.     771.52  E(vib)   ...       0.05 
freq.     777.13  E(vib)   ...       0.05 
freq.     801.66  E(vib)   ...       0.05 
freq.     815.83  E(vib)   ...       0.05 
freq.     825.42  E(vib)   ...       0.04 
freq.     830.27  E(vib)   ...       0.04 
freq.     833.24  E(vib)   ...       0.04 
freq.     845.67  E(vib)   ...       0.04 
freq.     857.60  E(vib)   ...       0.04 
freq.     867.12  E(vib)   ...       0.04 
freq.     870.99  E(vib)   ...       0.04 
freq.     875.30  E(vib)   ...       0.04 
freq.     877.19  E(vib)   ...       0.04 
freq.     881.72  E(vib)   ...       0.04 
freq.     886.91  E(vib)   ...       0.04 
freq.     899.38  E(vib)   ...       0.03 
freq.     901.88  E(vib)   ...       0.03 
freq.     909.13  E(vib)   ...       0.03 
freq.     911.79  E(vib)   ...       0.03 
freq.     915.17  E(vib)   ...       0.03 
freq.     917.20  E(vib)   ...       0.03 
freq.     921.00  E(vib)   ...       0.03 
freq.     927.22  E(vib)   ...       0.03 
freq.     942.10  E(vib)   ...       0.03 
freq.     943.07  E(vib)   ...       0.03 
freq.     944.05  E(vib)   ...       0.03 
freq.     947.51  E(vib)   ...       0.03 
freq.     963.11  E(vib)   ...       0.03 
freq.     968.09  E(vib)   ...       0.03 
freq.     969.18  E(vib)   ...       0.03 
freq.     978.12  E(vib)   ...       0.03 
freq.     981.27  E(vib)   ...       0.02 
freq.     982.52  E(vib)   ...       0.02 
freq.     996.71  E(vib)   ...       0.02 
freq.    1004.58  E(vib)   ...       0.02 
freq.    1011.92  E(vib)   ...       0.02 
freq.    1018.18  E(vib)   ...       0.02 
freq.    1025.29  E(vib)   ...       0.02 
freq.    1032.96  E(vib)   ...       0.02 
freq.    1036.89  E(vib)   ...       0.02 
freq.    1037.70  E(vib)   ...       0.02 
freq.    1038.82  E(vib)   ...       0.02 
freq.    1044.57  E(vib)   ...       0.02 
freq.    1050.40  E(vib)   ...       0.02 
freq.    1051.79  E(vib)   ...       0.02 
freq.    1053.71  E(vib)   ...       0.02 
freq.    1058.62  E(vib)   ...       0.02 
freq.    1061.31  E(vib)   ...       0.02 
freq.    1073.07  E(vib)   ...       0.02 
freq.    1073.58  E(vib)   ...       0.02 
freq.    1081.44  E(vib)   ...       0.02 
freq.    1084.56  E(vib)   ...       0.02 
freq.    1095.06  E(vib)   ...       0.02 
freq.    1099.12  E(vib)   ...       0.02 
freq.    1100.37  E(vib)   ...       0.02 
freq.    1101.81  E(vib)   ...       0.02 
freq.    1110.32  E(vib)   ...       0.02 
freq.    1124.52  E(vib)   ...       0.01 
freq.    1125.76  E(vib)   ...       0.01 
freq.    1127.82  E(vib)   ...       0.01 
freq.    1132.45  E(vib)   ...       0.01 
freq.    1146.38  E(vib)   ...       0.01 
freq.    1158.04  E(vib)   ...       0.01 
freq.    1159.16  E(vib)   ...       0.01 
freq.    1160.24  E(vib)   ...       0.01 
freq.    1166.04  E(vib)   ...       0.01 
freq.    1168.94  E(vib)   ...       0.01 
freq.    1175.68  E(vib)   ...       0.01 
freq.    1191.61  E(vib)   ...       0.01 
freq.    1196.28  E(vib)   ...       0.01 
freq.    1197.69  E(vib)   ...       0.01 
freq.    1203.83  E(vib)   ...       0.01 
freq.    1214.35  E(vib)   ...       0.01 
freq.    1219.60  E(vib)   ...       0.01 
freq.    1221.06  E(vib)   ...       0.01 
freq.    1226.29  E(vib)   ...       0.01 
freq.    1231.10  E(vib)   ...       0.01 
freq.    1235.99  E(vib)   ...       0.01 
freq.    1239.21  E(vib)   ...       0.01 
freq.    1242.13  E(vib)   ...       0.01 
freq.    1248.48  E(vib)   ...       0.01 
freq.    1252.16  E(vib)   ...       0.01 
freq.    1252.80  E(vib)   ...       0.01 
freq.    1254.04  E(vib)   ...       0.01 
freq.    1262.93  E(vib)   ...       0.01 
freq.    1270.33  E(vib)   ...       0.01 
freq.    1281.21  E(vib)   ...       0.01 
freq.    1281.69  E(vib)   ...       0.01 
freq.    1283.72  E(vib)   ...       0.01 
freq.    1284.95  E(vib)   ...       0.01 
freq.    1285.20  E(vib)   ...       0.01 
freq.    1285.75  E(vib)   ...       0.01 
freq.    1289.84  E(vib)   ...       0.01 
freq.    1290.28  E(vib)   ...       0.01 
freq.    1294.09  E(vib)   ...       0.01 
freq.    1294.66  E(vib)   ...       0.01 
freq.    1299.10  E(vib)   ...       0.01 
freq.    1303.10  E(vib)   ...       0.01 
freq.    1308.44  E(vib)   ...       0.01 
freq.    1310.08  E(vib)   ...       0.01 
freq.    1311.37  E(vib)   ...       0.01 
freq.    1317.92  E(vib)   ...       0.01 
freq.    1319.10  E(vib)   ...       0.01 
freq.    1320.44  E(vib)   ...       0.01 
freq.    1323.74  E(vib)   ...       0.01 
freq.    1324.48  E(vib)   ...       0.01 
freq.    1324.86  E(vib)   ...       0.01 
freq.    1328.35  E(vib)   ...       0.01 
freq.    1331.20  E(vib)   ...       0.01 
freq.    1333.58  E(vib)   ...       0.01 
freq.    1336.92  E(vib)   ...       0.01 
freq.    1346.13  E(vib)   ...       0.01 
freq.    1348.42  E(vib)   ...       0.01 
freq.    1349.13  E(vib)   ...       0.01 
freq.    1349.46  E(vib)   ...       0.01 
freq.    1350.74  E(vib)   ...       0.01 
freq.    1351.07  E(vib)   ...       0.01 
freq.    1354.83  E(vib)   ...       0.01 
freq.    1363.79  E(vib)   ...       0.01 
freq.    1368.92  E(vib)   ...       0.01 
freq.    1370.55  E(vib)   ...       0.01 
freq.    1375.72  E(vib)   ...       0.01 
freq.    1413.54  E(vib)   ...       0.00 
freq.    1417.27  E(vib)   ...       0.00 
freq.    1419.55  E(vib)   ...       0.00 
freq.    1425.96  E(vib)   ...       0.00 
freq.    1427.60  E(vib)   ...       0.00 
freq.    1430.39  E(vib)   ...       0.00 
freq.    1430.80  E(vib)   ...       0.00 
freq.    1433.74  E(vib)   ...       0.00 
freq.    1434.36  E(vib)   ...       0.00 
freq.    1435.45  E(vib)   ...       0.00 
freq.    1438.50  E(vib)   ...       0.00 
freq.    1438.61  E(vib)   ...       0.00 
freq.    1439.42  E(vib)   ...       0.00 
freq.    1441.93  E(vib)   ...       0.00 
freq.    1444.24  E(vib)   ...       0.00 
freq.    1445.03  E(vib)   ...       0.00 
freq.    1445.14  E(vib)   ...       0.00 
freq.    1446.50  E(vib)   ...       0.00 
freq.    1448.36  E(vib)   ...       0.00 
freq.    1449.70  E(vib)   ...       0.00 
freq.    1450.97  E(vib)   ...       0.00 
freq.    1451.85  E(vib)   ...       0.00 
freq.    1453.39  E(vib)   ...       0.00 
freq.    1453.82  E(vib)   ...       0.00 
freq.    1457.13  E(vib)   ...       0.00 
freq.    1460.90  E(vib)   ...       0.00 
freq.    1464.60  E(vib)   ...       0.00 
freq.    1465.27  E(vib)   ...       0.00 
freq.    1466.63  E(vib)   ...       0.00 
freq.    1471.99  E(vib)   ...       0.00 
freq.    1479.37  E(vib)   ...       0.00 
freq.    1505.33  E(vib)   ...       0.00 
freq.    1515.68  E(vib)   ...       0.00 
freq.    1539.27  E(vib)   ...       0.00 
freq.    1542.38  E(vib)   ...       0.00 
freq.    1613.30  E(vib)   ...       0.00 
freq.    1622.73  E(vib)   ...       0.00 
freq.    1654.25  E(vib)   ...       0.00 
freq.    1664.57  E(vib)   ...       0.00 
freq.    1679.93  E(vib)   ...       0.00 
freq.    1685.64  E(vib)   ...       0.00 
freq.    1697.59  E(vib)   ...       0.00 
freq.    2924.64  E(vib)   ...       0.00 
freq.    2926.08  E(vib)   ...       0.00 
freq.    2927.92  E(vib)   ...       0.00 
freq.    2932.22  E(vib)   ...       0.00 
freq.    2934.01  E(vib)   ...       0.00 
freq.    2938.62  E(vib)   ...       0.00 
freq.    2942.08  E(vib)   ...       0.00 
freq.    2942.71  E(vib)   ...       0.00 
freq.    2944.57  E(vib)   ...       0.00 
freq.    2944.65  E(vib)   ...       0.00 
freq.    2948.79  E(vib)   ...       0.00 
freq.    2949.87  E(vib)   ...       0.00 
freq.    2954.47  E(vib)   ...       0.00 
freq.    2954.60  E(vib)   ...       0.00 
freq.    2955.19  E(vib)   ...       0.00 
freq.    2956.64  E(vib)   ...       0.00 
freq.    2958.00  E(vib)   ...       0.00 
freq.    2958.33  E(vib)   ...       0.00 
freq.    2961.01  E(vib)   ...       0.00 
freq.    2961.26  E(vib)   ...       0.00 
freq.    2964.08  E(vib)   ...       0.00 
freq.    2972.36  E(vib)   ...       0.00 
freq.    2974.68  E(vib)   ...       0.00 
freq.    2975.47  E(vib)   ...       0.00 
freq.    2977.45  E(vib)   ...       0.00 
freq.    2981.05  E(vib)   ...       0.00 
freq.    2981.43  E(vib)   ...       0.00 
freq.    2984.57  E(vib)   ...       0.00 
freq.    2984.78  E(vib)   ...       0.00 
freq.    2988.25  E(vib)   ...       0.00 
freq.    2989.14  E(vib)   ...       0.00 
freq.    2990.05  E(vib)   ...       0.00 
freq.    2995.48  E(vib)   ...       0.00 
freq.    2996.49  E(vib)   ...       0.00 
freq.    2996.51  E(vib)   ...       0.00 
freq.    2997.00  E(vib)   ...       0.00 
freq.    3007.27  E(vib)   ...       0.00 
freq.    3018.38  E(vib)   ...       0.00 
freq.    3019.87  E(vib)   ...       0.00 
freq.    3020.02  E(vib)   ...       0.00 
freq.    3022.84  E(vib)   ...       0.00 
freq.    3026.71  E(vib)   ...       0.00 
freq.    3027.26  E(vib)   ...       0.00 
freq.    3028.49  E(vib)   ...       0.00 
freq.    3030.97  E(vib)   ...       0.00 
freq.    3036.75  E(vib)   ...       0.00 
freq.    3039.84  E(vib)   ...       0.00 
freq.    3040.73  E(vib)   ...       0.00 
freq.    3046.21  E(vib)   ...       0.00 
freq.    3048.50  E(vib)   ...       0.00 
freq.    3049.40  E(vib)   ...       0.00 
freq.    3052.89  E(vib)   ...       0.00 
freq.    3053.84  E(vib)   ...       0.00 
freq.    3056.28  E(vib)   ...       0.00 
freq.    3063.83  E(vib)   ...       0.00 
freq.    3068.26  E(vib)   ...       0.00 
freq.    3069.23  E(vib)   ...       0.00 
freq.    3073.74  E(vib)   ...       0.00 
freq.    3199.66  E(vib)   ...       0.00 
freq.    3331.44  E(vib)   ...       0.00 
freq.    3368.82  E(vib)   ...       0.00 
freq.    3449.20  E(vib)   ...       0.00 
freq.    3493.45  E(vib)   ...       0.00 
freq.    3531.50  E(vib)   ...       0.00 

------------
INNER ENERGY
------------

The inner energy is: U= E(el) + E(ZPE) + E(vib) + E(rot) + E(trans)
    E(el)   - is the total energy from the electronic structure calculation
              = E(kin-el) + E(nuc-el) + E(el-el) + E(nuc-nuc)
    E(ZPE)  - the the zero temperature vibrational energy from the frequency calculation
    E(vib)  - the the finite temperature correction to E(ZPE) due to population
              of excited vibrational states
    E(rot)  - is the rotational thermal energy
    E(trans)- is the translational thermal energy

Summary of contributions to the inner energy U:
Electronic energy                ...  -2380.07200241 Eh
Zero point energy                ...      0.97816535 Eh     613.81 kcal/mol
Thermal vibrational correction   ...      0.05461086 Eh      34.27 kcal/mol
Thermal rotational correction    ...      0.00141627 Eh       0.89 kcal/mol
Thermal translational correction ...      0.00141627 Eh       0.89 kcal/mol
-----------------------------------------------------------------------
Total thermal energy                  -2379.03639365 Eh


Summary of corrections to the electronic energy:
(perhaps to be used in another calculation)
Total thermal correction                  0.05744340 Eh      36.05 kcal/mol
Non-thermal (ZPE) correction              0.97816535 Eh     613.81 kcal/mol
-----------------------------------------------------------------------
Total correction                          1.03560875 Eh     649.85 kcal/mol


--------
ENTHALPY
--------

The enthalpy is H = U + kB*T
                kB is Boltzmann's constant
Total free energy                 ...  -2379.03639365 Eh 
Thermal Enthalpy correction       ...      0.00094421 Eh       0.59 kcal/mol
-----------------------------------------------------------------------
Total Enthalpy                    ...  -2379.03544944 Eh


Note: Only C1 symmetry has been detected, increase convergence thresholds 
      if your molecule has a higher symmetry. Symmetry factor of 1.0 is   
      used for the rotational entropy correction. 
 

Note: Rotational entropy computed according to Herzberg 
Infrared and Raman Spectra, Chapter V,1, Van Nostrand Reinhold, 1945 
Point Group:  C1, Symmetry Number:   1  
Rotational constants in cm-1:     0.003021     0.000816     0.000772 

Vibrational entropy computed according to the QRRHO of S. Grimme
Chem.Eur.J. 2012 18 9955


-------
ENTROPY
-------

The entropy contributions are T*S = T*(S(el)+S(vib)+S(rot)+S(trans))
     S(el)   - electronic entropy
     S(vib)  - vibrational entropy
     S(rot)  - rotational entropy
     S(trans)- translational entropy
The entropies will be listed as mutliplied by the temperature to get
units of energy

Electronic entropy                ...      0.00000000 Eh      0.00 kcal/mol
Vibrational entropy               ...      0.10009865 Eh     62.81 kcal/mol
Rotational entropy                ...      0.01898994 Eh     11.92 kcal/mol
Translational entropy             ...      0.02166895 Eh     13.60 kcal/mol
-----------------------------------------------------------------------
Final entropy term                ...      0.14075754 Eh     88.33 kcal/mol

In case the symmetry of your molecule has not been determined correctly
or in case you have a reason to use a different symmetry number we print 
out the resulting rotational entropy values for sn=1,12 :
 --------------------------------------------------------
|  sn= 1 | S(rot)=       0.01898994 Eh     11.92 kcal/mol|
|  sn= 2 | S(rot)=       0.01833549 Eh     11.51 kcal/mol|
|  sn= 3 | S(rot)=       0.01795265 Eh     11.27 kcal/mol|
|  sn= 4 | S(rot)=       0.01768103 Eh     11.09 kcal/mol|
|  sn= 5 | S(rot)=       0.01747034 Eh     10.96 kcal/mol|
|  sn= 6 | S(rot)=       0.01729820 Eh     10.85 kcal/mol|
|  sn= 7 | S(rot)=       0.01715265 Eh     10.76 kcal/mol|
|  sn= 8 | S(rot)=       0.01702657 Eh     10.68 kcal/mol|
|  sn= 9 | S(rot)=       0.01691536 Eh     10.61 kcal/mol|
|  sn=10 | S(rot)=       0.01681589 Eh     10.55 kcal/mol|
|  sn=11 | S(rot)=       0.01672590 Eh     10.50 kcal/mol|
|  sn=12 | S(rot)=       0.01664374 Eh     10.44 kcal/mol|
 --------------------------------------------------------


-------------------
GIBBS FREE ENERGY
-------------------

The Gibbs free energy is G = H - T*S

Total enthalpy                    ...  -2379.03544944 Eh 
Total entropy correction          ...     -0.14075754 Eh    -88.33 kcal/mol
-----------------------------------------------------------------------
Final Gibbs free energy         ...  -2379.17620699 Eh

For completeness - the Gibbs free energy minus the electronic energy
G-E(el)                           ...      0.89579542 Eh    562.12 kcal/mol

--------------------------------------------------------------------------
WARNING: No preset parameters were found for the device that Open MPI
detected:

  Local host:            eu-g1-046-1
  Device name:           mlx5_0
  Device vendor ID:      0x02c9
  Device vendor part ID: 4123

Default device parameters will be used, which may result in lower
performance.  You can edit any of the files specified by the
btl_openib_device_param_files MCA parameter to set values for your
device.

NOTE: You can turn off this warning by setting the MCA parameter
      btl_openib_warn_no_device_params_found to 0.
--------------------------------------------------------------------------
--------------------------------------------------------------------------
WARNING: There was an error initializing an OpenFabrics device.

  Local host:   eu-g1-046-1
  Local device: mlx5_0
--------------------------------------------------------------------------

Timings for individual modules:

Sum of individual times         ...    36683.021 sec (= 611.384 min)
GTO integral calculation        ...       13.038 sec (=   0.217 min)   0.0 %
SCF iterations                  ...      456.288 sec (=   7.605 min)   1.2 %
SCF Gradient evaluation         ...       80.147 sec (=   1.336 min)   0.2 %
Geometry relaxation             ...        4.166 sec (=   0.069 min)   0.0 %
Analytical frequency calculation...    36129.383 sec (= 602.156 min)  98.5 %
                             ****ORCA TERMINATED NORMALLY****
TOTAL RUN TIME: 0 days 10 hours 11 minutes 40 seconds 963 msec
