
                                 *****************
                                 * O   R   C   A *
                                 *****************

           --- An Ab Initio, DFT and Semiempirical electronic structure package ---

                  #######################################################
                  #                        -***-                        #
                  #          Department of theory and spectroscopy      #
                  #               Directorship: Frank Neese             #
                  #        Max Planck Institute fuer Kohlenforschung    #
                  #                Kaiser Wilhelm Platz 1               #
                  #                 D-45470 Muelheim/Ruhr               #
                  #                      Germany                        #
                  #                                                     #
                  #                  All rights reserved                #
                  #                        -***-                        #
                  #######################################################


                         Program Version 4.2.0 -  RELEASE  -


 With contributions from (in alphabetic order):
   Daniel Aravena         : Magnetic Suceptibility
   Michael Atanasov       : Ab Initio Ligand Field Theory (pilot matlab implementation)
   Alexander A. Auer      : GIAO ZORA, VPT2
   Ute Becker             : Parallelization
   Giovanni Bistoni       : ED, misc. LED, open-shell LED, HFLED
   Martin Brehm           : Molecular dynamics
   Dmytro Bykov           : SCF Hessian
   Vijay G. Chilkuri      : MRCI spin determinant printing, contributions to CSF-ICE
   Dipayan Datta          : RHF DLPNO-CCSD density
   Achintya Kumar Dutta   : EOM-CC, STEOM-CC
   Dmitry Ganyushin       : Spin-Orbit,Spin-Spin,Magnetic field MRCI
   Miquel Garcia          : C-PCM Hessian, Gaussian charge scheme
   Yang Guo               : DLPNO-NEVPT2, CIM, IAO-localization
   Andreas Hansen         : Spin unrestricted coupled pair/coupled cluster methods
   Benjamin Helmich-Paris : CASSCF linear response (MC-RPA)
   Lee Huntington         : MR-EOM, pCC
   Robert Izsak           : Overlap fitted RIJCOSX, COSX-SCS-MP3, EOM
   Christian Kollmar      : KDIIS, OOCD, Brueckner-CCSD(T), CCSD density
   Simone Kossmann        : Meta GGA functionals, TD-DFT gradient, OOMP2, MP2 Hessian
   Martin Krupicka        : AUTO-CI
   Lucas Lang             : DCDCAS
   Dagmar Lenk            : GEPOL surface, SMD
   Dimitrios Liakos       : Extrapolation schemes; Compound Job, initial MDCI parallelization
   Dimitrios Manganas     : Further ROCIS development; embedding schemes
   Dimitrios Pantazis     : SARC Basis sets
   Taras Petrenko         : DFT Hessian,TD-DFT gradient, ASA, ECA, R-Raman, ABS, FL, XAS/XES, NRVS
   Peter Pinski           : DLPNO-MP2, DLPNO-MP2 Gradient
   Christoph Reimann      : Effective Core Potentials
   Marius Retegan         : Local ZFS, SOC
   Christoph Riplinger    : Optimizer, TS searches, QM/MM, DLPNO-CCSD(T), (RO)-DLPNO pert. Triples
   Tobias Risthaus        : Range-separated hybrids, TD-DFT gradient, RPA, STAB
   Michael Roemelt        : Original ROCIS implementation
   Masaaki Saitow         : Open-shell DLPNO-CCSD energy and density
   Barbara Sandhoefer     : DKH picture change effects
   Avijit Sen             : IP-ROCIS
   Kantharuban Sivalingam : CASSCF convergence, NEVPT2, FIC-MRCI
   Bernardo de Souza      : ESD, SOC TD-DFT
   Georgi Stoychev        : AutoAux, RI-MP2 NMR
   Willem Van den Heuvel  : Paramagnetic NMR
   Boris Wezisla          : Elementary symmetry handling
   Frank Wennmohs         : Technical directorship


 We gratefully acknowledge several colleagues who have allowed us to
 interface, adapt or use parts of their codes:
   Stefan Grimme, W. Hujo, H. Kruse,             : VdW corrections, initial TS optimization,
                  C. Bannwarth                     DFT functionals, gCP, sTDA/sTD-DF
   Ed Valeev, F. Pavosevic, A. Kumar             : LibInt (2-el integral package), F12 methods
   Garnet Chan, S. Sharma, J. Yang, R. Olivares  : DMRG
   Ulf Ekstrom                                   : XCFun DFT Library
   Mihaly Kallay                                 : mrcc  (arbitrary order and MRCC methods)
   Andreas Klamt, Michael Diedenhofen            : otool_cosmo (COSMO solvation model)
   Jiri Pittner, Ondrej Demel                    : Mk-CCSD
   Frank Weinhold                                : gennbo (NPA and NBO analysis)
   Christopher J. Cramer and Donald G. Truhlar   : smd solvation model
   Lars Goerigk                                  : TD-DFT with DH, B97 family of functionals
   V. Asgeirsson, H. Jonsson                     : NEB implementation
   FAccTs GmbH                                   : IRC, NEB, NEB-TS, Multilevel, MM, QM/MM, CI optimization
   S Lehtola, MJT Oliveira, MAL Marques          : LibXC Library


 Your calculation uses the libint2 library for the computation of 2-el integrals
 For citations please refer to: http://libint.valeyev.net

 Your ORCA version has been built with support for libXC version: 4.2.3
 For citations please refer to: https://tddft.org/programs/libxc/

 This ORCA versions uses:
   CBLAS   interface :  Fast vector & matrix operations
   LAPACKE interface :  Fast linear algebra routines
   SCALAPACK package :  Parallel linear algebra routines




***************************************
The coordinates will be read from file: 40.xyz
***************************************


Your calculation utilizes the atom-pairwise dispersion correction
with the Becke-Johnson damping scheme (D3BJ)
Cite in your paper:
S.Grimme, S.Ehrlich, L.Goerigk, J Comput Chem, (2011), 32, 1456–1465 
S.Grimme, J.Antony, S.Ehrlich and H.Krieg, J.Chem.Phys., 132, (2010), 154104 
   

----- Orbital basis set information -----
Your calculation utilizes the basis: def2-TZVP
   F. Weigend and R. Ahlrichs, Phys. Chem. Chem. Phys. 7, 3297 (2005).

----- AuxJ basis set information -----
Your calculation utilizes the auxiliary basis: def2/J
   F. Weigend, Phys. Chem. Chem. Phys. 8, 1057 (2006).

================================================================================
                                        WARNINGS
                       Please study these warnings very carefully!
================================================================================


WARNING: Geometry Optimization
  ===> : Switching off AutoStart
         For restart on a previous wavefunction, please use MOREAD

INFO   : the flag for use of LIBINT has been found!

================================================================================
                                       INPUT FILE
================================================================================
NAME = 40.inp
|  1> !RI BP86 def2-tzvp def2/J D3BJ VeryTightSCF VeryTightOpt Grid5 FinalGrid6 freq
|  2> %maxcore 4000
|  3> %pal nprocs 24
|  4> end
|  5> * xyzfile 0 1 40.xyz 
|  6> 
|  7>                          ****END OF INPUT****
================================================================================

                       *****************************
                       * Geometry Optimization Run *
                       *****************************

Geometry optimization settings:
Update method            Update   .... BFGS
Choice of coordinates    CoordSys .... Z-matrix Internals
Initial Hessian          InHess   .... Almoef's Model

Convergence Tolerances:
Energy Change            TolE     ....  2.0000e-07 Eh
Max. Gradient            TolMAXG  ....  3.0000e-05 Eh/bohr
RMS Gradient             TolRMSG  ....  8.0000e-06 Eh/bohr
Max. Displacement        TolMAXD  ....  2.0000e-04 bohr
RMS Displacement         TolRMSD  ....  1.0000e-04 bohr
Strict Convergence                ....  False
------------------------------------------------------------------------------
                        ORCA OPTIMIZATION COORDINATE SETUP
------------------------------------------------------------------------------

The optimization will be done in new redundant internal coordinates
Making redundant internal coordinates   ...  (new redundants) done
Evaluating the initial hessian          ...  (Almloef) done
Evaluating the coordinates              ...  done
Calculating the B-matrix                .... done
Calculating the G-matrix                .... done
Diagonalizing the G-matrix              .... done
Small eigenvalue found = 3.586e-04
Small eigenvalue found = 7.278e-04
Small eigenvalue found = 2.100e-03
Small eigenvalue found = 4.576e-03
Small eigenvalue found = 5.442e-03
Small eigenvalue found = 5.504e-03
Small eigenvalue found = 6.129e-03
Small eigenvalue found = 7.008e-03
Small eigenvalue found = 7.432e-03
Small eigenvalue found = 8.601e-03
Small eigenvalue found = 9.651e-03
Small eigenvalue found = 1.156e-02
Small eigenvalue found = 1.385e-02
Small eigenvalue found = 1.837e-02
Small eigenvalue found = 2.005e-02
Small eigenvalue found = 2.152e-02
Small eigenvalue found = 2.456e-02
Small eigenvalue found = 2.490e-02
Small eigenvalue found = 2.900e-02
The first mode is                       ....  325
The number of degrees of freedom        ....  339

    -----------------------------------------------------------------
                    Redundant Internal Coordinates


    -----------------------------------------------------------------
         Definition                    Initial Value    Approx d2E/dq
    -----------------------------------------------------------------
      1. B(C   1,O   0)                  1.2399         0.971425   
      2. B(C   2,C   1)                  1.5273         0.377348   
      3. B(C   3,C   2)                  1.5427         0.356596   
      4. B(C   4,C   3)                  1.5344         0.367597   
      5. B(C   5,C   4)                  1.5326         0.370026   
      6. B(N   6,C   2)                  1.4686         0.419259   
      7. B(N   6,C   5)                  1.4743         0.410544   
      8. B(C   7,N   6)                  1.3626         0.618957   
      9. B(O   8,C   7)                  1.2339         0.993110   
     10. B(N   9,C   1)                  1.3582         0.628986   
     11. B(C  10,N   9)                  1.4599         0.432945   
     12. B(C  11,C  10)                  1.5501         0.346965   
     13. B(N  12,C  11)                  1.3396         0.673442   
     14. B(C  13,N  12)                  1.4691         0.418545   
     15. B(C  14,C  13)                  1.5473         0.350541   
     16. B(N  15,C  14)                  1.3550         0.636442   
     17. B(C  16,N  15)                  1.4550         0.440747   
     18. B(C  17,C  16)                  1.5211         0.385984   
     19. B(C  18,C  17)                  1.5667         0.326450   
     20. B(C  19,C  18)                  1.5229         0.383494   
     21. B(N  20,C  19)                  1.3538         0.639101   
     22. B(C  21,N  20)                  1.4578         0.436243   
     23. B(C  22,C  21)                  1.5470         0.351007   
     24. B(N  23,C  22)                  1.3527         0.641866   
     25. B(C  24,C   7)                  1.5383         0.362396   
     26. B(C  24,N  23)                  1.4631         0.427839   
     27. B(C  25,C  24)                  1.5255         0.379798   
     28. B(O  26,C  22)                  1.2428         0.960864   
     29. B(C  27,C  21)                  1.5302         0.373282   
     30. B(C  28,C  27)                  1.5346         0.367356   
     31. B(C  29,C  28)                  1.5324         0.370351   
     32. B(C  30,C  28)                  1.5331         0.369328   
     33. B(O  31,C  19)                  1.2422         0.963025   
     34. B(C  32,C  18)                  1.5405         0.359472   
     35. B(C  33,C  32)                  1.5137         0.396618   
     36. B(C  34,C  33)                  1.5246         0.381053   
     37. B(C  35,C  34)                  1.5301         0.373486   
     38. B(C  36,C  35)                  1.5301         0.373495   
     39. B(C  37,C  36)                  1.5302         0.373334   
     40. B(C  38,C  37)                  1.5303         0.373165   
     41. B(C  39,C  38)                  1.5302         0.373353   
     42. B(C  40,C  39)                  1.5310         0.372226   
     43. B(C  41,C  40)                  1.5298         0.373786   
     44. B(O  42,C  32)                  1.2179         1.053147   
     45. B(O  43,C  17)                  1.4473         0.453341   
     46. B(O  44,C  14)                  1.2316         1.001334   
     47. B(C  45,C  13)                  1.5469         0.351151   
     48. B(C  46,C  45)                  1.5278         0.376610   
     49. B(O  47,C  11)                  1.2548         0.919539   
     50. B(C  48,C  10)                  1.5316         0.371404   
     51. B(C  49,C  48)                  1.5305         0.372885   
     52. B(C  50,C  48)                  1.5328         0.369770   
     53. B(H  51,C   2)                  1.1003         0.346779   
     54. B(H  52,C   3)                  1.0958         0.352444   
     55. B(H  53,C   3)                  1.1003         0.346726   
     56. B(H  54,C   4)                  1.0974         0.350501   
     57. B(H  55,C   4)                  1.1003         0.346759   
     58. B(H  56,C   5)                  1.1015         0.345150   
     59. B(H  57,C   5)                  1.0978         0.349966   
     60. B(H  58,N   9)                  1.0256         0.408676   
     61. B(H  59,C  10)                  1.1018         0.344856   
     62. B(H  60,N  12)                  1.0299         0.402177   
     63. B(H  61,C  13)                  1.0974         0.350454   
     64. B(H  62,N  15)                  1.0247         0.409892   
     65. B(H  63,C  16)                  1.1036         0.342531   
     66. B(H  64,C  16)                  1.0990         0.348399   
     67. B(H  65,C  17)                  1.1009         0.345951   
     68. B(H  66,C  18)                  1.1028         0.343619   
     69. B(H  67,O  47)                  1.8280         0.021436   
     70. B(H  67,N  20)                  1.0312         0.400319   
     71. B(H  68,C  21)                  1.1012         0.345578   
     72. B(H  69,N  23)                  1.0301         0.401978   
     73. B(H  70,C  24)                  1.0982         0.349448   
     74. B(H  71,C  25)                  1.0981         0.349502   
     75. B(H  72,C  25)                  1.0982         0.349392   
     76. B(H  73,H  64)                  3.3676         0.000016   
     77. B(H  73,C  25)                  1.0970         0.350919   
     78. B(H  74,C  27)                  1.1018         0.344861   
     79. B(H  75,C  27)                  1.0984         0.349168   
     80. B(H  76,C  28)                  1.1041         0.341868   
     81. B(H  77,C  29)                  1.1004         0.346658   
     82. B(H  78,C  29)                  1.1016         0.345125   
     83. B(H  79,C  29)                  1.0997         0.347556   
     84. B(H  80,C  30)                  1.0990         0.348397   
     85. B(H  81,C  30)                  1.0998         0.347303   
     86. B(H  82,C  30)                  1.1022         0.344336   
     87. B(H  83,C  33)                  1.1050         0.340783   
     88. B(H  84,C  33)                  1.1052         0.340529   
     89. B(H  85,C  34)                  1.1019         0.344755   
     90. B(H  86,C  34)                  1.1008         0.346050   
     91. B(H  87,H  81)                  3.9584         0.000002   
     92. B(H  87,C  35)                  1.1044         0.341500   
     93. B(H  88,C  35)                  1.1047         0.341149   
     94. B(H  89,C  36)                  1.1041         0.341865   
     95. B(H  90,C  36)                  1.1040         0.341996   
     96. B(H  91,C  37)                  1.1044         0.341528   
     97. B(H  92,C  37)                  1.1045         0.341460   
     98. B(H  93,C  38)                  1.1043         0.341612   
     99. B(H  94,C  38)                  1.1043         0.341645   
    100. B(H  95,C  39)                  1.1046         0.341306   
    101. B(H  96,C  39)                  1.1046         0.341279   
    102. B(H  97,C  40)                  1.1034         0.342801   
    103. B(H  98,C  40)                  1.1034         0.342814   
    104. B(H  99,C  41)                  1.0994         0.347826   
    105. B(H 100,C  41)                  1.1008         0.346139   
    106. B(H 101,C  41)                  1.1008         0.346148   
    107. B(H 102,O  43)                  0.9798         0.483541   
    108. B(H 103,C  45)                  1.1000         0.347053   
    109. B(H 104,C  45)                  1.1015         0.345158   
    110. B(H 105,C  46)                  1.0990         0.348422   
    111. B(H 106,C  46)                  1.0978         0.349925   
    112. B(H 107,C  46)                  1.0993         0.348013   
    113. B(H 108,C  48)                  1.0998         0.347350   
    114. B(H 109,C  49)                  1.0975         0.350377   
    115. B(H 110,H  77)                  3.1555         0.000035   
    116. B(H 110,C  49)                  1.0993         0.347984   
    117. B(H 111,C  49)                  1.1010         0.345811   
    118. B(H 112,C  50)                  1.0979         0.349821   
    119. B(H 113,C  50)                  1.1013         0.345436   
    120. B(H 114,C  50)                  1.0989         0.348475   
    121. A(O   0,C   1,N   9)          123.1182         0.465947   
    122. A(C   2,C   1,N   9)          116.4338         0.395845   
    123. A(O   0,C   1,C   2)          120.3585         0.427567   
    124. A(C   1,C   2,H  51)          105.5829         0.322851   
    125. A(N   6,C   2,H  51)          110.7657         0.326522   
    126. A(C   1,C   2,N   6)          112.7701         0.368929   
    127. A(C   1,C   2,C   3)          112.6967         0.361097   
    128. A(C   3,C   2,H  51)          111.8440         0.319876   
    129. A(C   3,C   2,N   6)          103.3508         0.365368   
    130. A(C   4,C   3,H  53)          110.1545         0.321461   
    131. A(C   4,C   3,H  52)          113.8883         0.322324   
    132. A(C   2,C   3,C   4)          103.4774         0.359489   
    133. A(C   2,C   3,H  53)          109.4481         0.319868   
    134. A(C   2,C   3,H  52)          111.7218         0.320725   
    135. A(H  52,C   3,H  53)          108.0674         0.288147   
    136. A(H  54,C   4,H  55)          108.0407         0.287902   
    137. A(C   3,C   4,H  55)          110.2026         0.321466   
    138. A(C   3,C   4,C   5)          103.2924         0.361762   
    139. A(C   3,C   4,H  54)          113.0103         0.322032   
    140. A(C   5,C   4,H  55)          110.0505         0.321813   
    141. A(C   5,C   4,H  54)          112.2031         0.322379   
    142. A(H  56,C   5,H  57)          108.6799         0.287624   
    143. A(C   4,C   5,N   6)          102.7821         0.366368   
    144. A(C   4,C   5,H  56)          112.2544         0.321568   
    145. A(N   6,C   5,H  57)          110.9473         0.325885   
    146. A(N   6,C   5,H  56)          109.9590         0.325143   
    147. A(C   4,C   5,H  57)          112.1354         0.322299   
    148. A(C   5,N   6,C   7)          128.2497         0.398057   
    149. A(C   2,N   6,C   7)          119.0114         0.399530   
    150. A(C   2,N   6,C   5)          112.6831         0.371974   
    151. A(O   8,C   7,C  24)          120.6522         0.426163   
    152. A(N   6,C   7,O   8)          121.7289         0.466459   
    153. A(N   6,C   7,C  24)          117.5267         0.391945   
    154. A(C   1,N   9,C  10)          119.8060         0.402936   
    155. A(C  10,N   9,H  58)          118.5214         0.334423   
    156. A(C   1,N   9,H  58)          119.7040         0.356072   
    157. A(C  48,C  10,H  59)          109.0495         0.321719   
    158. A(C  11,C  10,H  59)          107.4277         0.318161   
    159. A(N   9,C  10,C  11)          109.1317         0.365664   
    160. A(N   9,C  10,C  48)          113.2909         0.369960   
    161. A(N   9,C  10,H  59)          105.7007         0.327954   
    162. A(C  11,C  10,C  48)          111.8962         0.358445   
    163. A(N  12,C  11,O  47)          124.4477         0.467092   
    164. A(C  10,C  11,O  47)          121.9430         0.417093   
    165. A(C  10,C  11,N  12)          113.6082         0.394760   
    166. A(C  13,N  12,H  60)          117.3128         0.331668   
    167. A(C  11,N  12,C  13)          128.3806         0.405394   
    168. A(C  11,N  12,H  60)          114.3016         0.359250   
    169. A(C  14,C  13,C  45)          109.8010         0.355666   
    170. A(N  12,C  13,H  61)          105.3314         0.326997   
    171. A(C  14,C  13,H  61)          103.8413         0.319532   
    172. A(N  12,C  13,C  14)          118.4854         0.364192   
    173. A(C  45,C  13,H  61)          108.8496         0.319623   
    174. A(N  12,C  13,C  45)          109.9323         0.364301   
    175. A(C  13,C  14,N  15)          116.5455         0.391575   
    176. A(N  15,C  14,O  44)          123.6460         0.469556   
    177. A(C  13,C  14,O  44)          119.4138         0.424260   
    178. A(C  14,N  15,H  62)          116.4487         0.356965   
    179. A(C  16,N  15,H  62)          121.5431         0.335582   
    180. A(C  14,N  15,C  16)          120.4643         0.405049   
    181. A(H  63,C  16,H  64)          106.6855         0.287081   
    182. A(C  17,C  16,H  64)          108.4151         0.324300   
    183. A(N  15,C  16,H  63)          109.3667         0.328555   
    184. A(C  17,C  16,H  63)          107.9780         0.323397   
    185. A(N  15,C  16,C  17)          114.3818         0.373567   
    186. A(N  15,C  16,H  64)          109.7220         0.329478   
    187. A(O  43,C  17,H  65)          108.6500         0.330630   
    188. A(C  18,C  17,H  65)          106.5768         0.315184   
    189. A(C  16,C  17,H  65)          106.5934         0.323925   
    190. A(C  16,C  17,C  18)          114.1870         0.357080   
    191. A(C  18,C  17,O  43)          111.9928         0.364732   
    192. A(C  16,C  17,O  43)          108.5629         0.375388   
    193. A(C  19,C  18,H  66)          109.5340         0.323222   
    194. A(C  17,C  18,H  66)          110.8314         0.314838   
    195. A(C  17,C  18,C  32)          112.5852         0.352797   
    196. A(C  17,C  18,C  19)          107.5192         0.356688   
    197. A(C  19,C  18,C  32)          111.5319         0.362590   
    198. A(C  32,C  18,H  66)          104.8434         0.319818   
    199. A(C  18,C  19,N  20)          116.0000         0.398083   
    200. A(N  20,C  19,O  31)          123.7432         0.466567   
    201. A(C  18,C  19,O  31)          119.9662         0.428139   
    202. A(C  19,N  20,H  67)          119.5481         0.355787   
    203. A(C  19,N  20,C  21)          120.9800         0.404613   
    204. A(C  21,N  20,H  67)          117.8987         0.333697   
    205. A(C  27,C  21,H  68)          109.5998         0.322095   
    206. A(C  22,C  21,H  68)          106.9296         0.318872   
    207. A(N  20,C  21,H  68)          104.6891         0.328478   
    208. A(N  20,C  21,C  22)          108.9609         0.366868   
    209. A(C  22,C  21,C  27)          112.1484         0.359461   
    210. A(N  20,C  21,C  27)          114.0244         0.370764   
    211. A(C  21,C  22,N  23)          115.1436         0.392248   
    212. A(C  21,C  22,O  26)          122.0378         0.421244   
    213. A(N  23,C  22,O  26)          122.7735         0.466744   
    214. A(C  22,N  23,C  24)          121.4700         0.403533   
    215. A(C  24,N  23,H  69)          117.0088         0.332851   
    216. A(C  22,N  23,H  69)          120.6153         0.356298   
    217. A(C  25,C  24,H  70)          110.6609         0.323601   
    218. A(N  23,C  24,H  70)          106.7382         0.328028   
    219. A(C   7,C  24,H  70)          110.2307         0.321123   
    220. A(N  23,C  24,C  25)          109.9300         0.370627   
    221. A(C   7,C  24,N  23)          109.0639         0.367653   
    222. A(C   7,C  24,C  25)          110.1469         0.362492   
    223. A(H  71,C  25,H  73)          109.1255         0.288311   
    224. A(C  24,C  25,H  73)          110.0251         0.323824   
    225. A(H  71,C  25,H  72)          108.5739         0.288114   
    226. A(C  24,C  25,H  72)          110.0792         0.323592   
    227. A(C  24,C  25,H  71)          110.5138         0.323609   
    228. A(H  72,C  25,H  73)          108.4775         0.288297   
    229. A(C  28,C  27,H  75)          109.7228         0.321796   
    230. A(C  21,C  27,C  28)          114.4044         0.362263   
    231. A(H  74,C  27,H  75)          105.3179         0.287484   
    232. A(C  21,C  27,H  75)          109.4450         0.322641   
    233. A(C  28,C  27,H  74)          109.8552         0.321143   
    234. A(C  21,C  27,H  74)          107.6861         0.321986   
    235. A(C  29,C  28,C  30)          111.1778         0.362106   
    236. A(C  27,C  28,C  30)          112.3381         0.361605   
    237. A(C  27,C  28,C  29)          109.7488         0.361775   
    238. A(C  30,C  28,H  76)          107.9568         0.320967   
    239. A(C  29,C  28,H  76)          107.8739         0.321112   
    240. A(C  27,C  28,H  76)          107.5620         0.320686   
    241. A(C  28,C  29,H  79)          111.1613         0.321980   
    242. A(H  78,C  29,H  79)          107.6641         0.287310   
    243. A(H  77,C  29,H  79)          107.9673         0.287510   
    244. A(H  77,C  29,H  78)          107.6910         0.287194   
    245. A(C  28,C  29,H  78)          110.8474         0.321611   
    246. A(C  28,C  29,H  77)          111.3472         0.321844   
    247. A(H  81,C  30,H  82)          107.5292         0.287175   
    248. A(H  80,C  30,H  82)          107.9399         0.287316   
    249. A(C  28,C  30,H  82)          110.5217         0.321345   
    250. A(H  80,C  30,H  81)          107.7922         0.287702   
    251. A(C  28,C  30,H  81)          110.7667         0.321796   
    252. A(C  28,C  30,H  80)          112.1179         0.321962   
    253. A(C  33,C  32,O  42)          123.1536         0.437722   
    254. A(C  18,C  32,O  42)          121.4191         0.430046   
    255. A(C  18,C  32,C  33)          115.3998         0.364682   
    256. A(C  32,C  33,C  34)          114.7529         0.368344   
    257. A(C  34,C  33,H  84)          111.4732         0.322406   
    258. A(H  83,C  33,H  84)          104.8070         0.285831   
    259. A(C  32,C  33,H  84)          108.0917         0.324531   
    260. A(C  34,C  33,H  83)          110.7529         0.322445   
    261. A(C  32,C  33,H  83)          106.3676         0.324570   
    262. A(C  33,C  34,C  35)          112.4112         0.364570   
    263. A(H  85,C  34,H  86)          105.7202         0.287068   
    264. A(C  35,C  34,H  86)          110.0275         0.322196   
    265. A(C  33,C  34,H  86)          109.0096         0.323257   
    266. A(C  35,C  34,H  85)          109.9951         0.321998   
    267. A(C  33,C  34,H  85)          109.4528         0.323058   
    268. A(C  34,C  35,C  36)          113.2521         0.363323   
    269. A(H  87,C  35,H  88)          105.8793         0.286006   
    270. A(C  36,C  35,H  88)          109.2706         0.321446   
    271. A(C  34,C  35,H  88)          109.5652         0.321444   
    272. A(C  36,C  35,H  87)          109.2609         0.321500   
    273. A(C  34,C  35,H  87)          109.3475         0.321498   
    274. A(C  35,C  36,C  37)          113.4595         0.363298   
    275. A(H  89,C  36,H  90)          105.8989         0.286164   
    276. A(C  37,C  36,H  90)          109.3404         0.321553   
    277. A(C  35,C  36,H  90)          109.1998         0.321576   
    278. A(C  37,C  36,H  89)          109.3610         0.321533   
    279. A(C  35,C  36,H  89)          109.3038         0.321556   
    280. A(C  36,C  37,C  38)          113.5110         0.363243   
    281. A(H  91,C  37,H  92)          105.9005         0.286050   
    282. A(C  38,C  37,H  92)          109.2900         0.321447   
    283. A(C  36,C  37,H  92)          109.3190         0.321471   
    284. A(C  38,C  37,H  91)          109.2666         0.321458   
    285. A(C  36,C  37,H  91)          109.2728         0.321481   
    286. A(C  37,C  38,C  39)          113.5450         0.363246   
    287. A(H  93,C  38,H  94)          105.8856         0.286085   
    288. A(C  39,C  38,H  94)          109.2886         0.321502   
    289. A(C  37,C  38,H  94)          109.2481         0.321476   
    290. A(C  39,C  38,H  93)          109.3029         0.321497   
    291. A(C  37,C  38,H  93)          109.2865         0.321471   
    292. A(C  38,C  39,C  40)          113.5890         0.363090   
    293. A(H  95,C  39,H  96)          105.8619         0.285997   
    294. A(C  40,C  39,H  96)          109.2360         0.321287   
    295. A(C  38,C  39,H  96)          109.3246         0.321446   
    296. A(C  40,C  39,H  95)          109.2321         0.321291   
    297. A(C  38,C  39,H  95)          109.3083         0.321450   
    298. A(C  39,C  40,C  41)          113.1364         0.363162   
    299. A(H  97,C  40,H  98)          105.9311         0.286393   
    300. A(C  41,C  40,H  98)          109.6339         0.321743   
    301. A(C  39,C  40,H  98)          109.1173         0.321523   
    302. A(C  41,C  40,H  97)          109.6396         0.321741   
    303. A(C  39,C  40,H  97)          109.1270         0.321521   
    304. A(H 100,C  41,H 101)          107.4416         0.287260   
    305. A(H  99,C  41,H 101)          107.6856         0.287478   
    306. A(C  40,C  41,H 101)          111.0862         0.322253   
    307. A(H  99,C  41,H 100)          107.6871         0.287477   
    308. A(C  40,C  41,H 100)          111.0925         0.322252   
    309. A(C  40,C  41,H  99)          111.6555         0.322509   
    310. A(C  17,O  43,H 102)          105.5004         0.346617   
    311. A(C  13,C  45,C  46)          113.9388         0.360030   
    312. A(C  46,C  45,H 104)          110.1017         0.322500   
    313. A(C  13,C  45,H 104)          106.9223         0.318830   
    314. A(C  46,C  45,H 103)          110.3914         0.322789   
    315. A(C  13,C  45,H 103)          108.4469         0.319115   
    316. A(H 103,C  45,H 104)          106.7351         0.287250   
    317. A(H 106,C  46,H 107)          107.0778         0.287991   
    318. A(H 105,C  46,H 107)          108.1527         0.287797   
    319. A(C  45,C  46,H 107)          111.3539         0.322935   
    320. A(H 105,C  46,H 106)          108.1331         0.288043   
    321. A(C  45,C  46,H 106)          111.8029         0.323226   
    322. A(C  45,C  46,H 105)          110.1673         0.322998   
    323. A(C  50,C  48,H 108)          107.6548         0.321866   
    324. A(C  49,C  48,H 108)          108.8068         0.322309   
    325. A(C  10,C  48,H 108)          107.2889         0.322099   
    326. A(C  49,C  48,C  50)          111.2763         0.362602   
    327. A(C  10,C  48,C  50)          109.6941         0.362356   
    328. A(C  10,C  48,C  49)          111.9413         0.362875   
    329. A(H 110,C  49,H 111)          107.7614         0.287455   
    330. A(H 109,C  49,H 111)          108.2143         0.287763   
    331. A(C  48,C  49,H 111)          111.0374         0.322074   
    332. A(H 109,C  49,H 110)          107.6507         0.288045   
    333. A(C  48,C  49,H 110)          109.9927         0.322405   
    334. A(C  48,C  49,H 109)          112.0264         0.322768   
    335. A(H 113,C  50,H 114)          107.7227         0.287469   
    336. A(H 112,C  50,H 114)          107.7918         0.288037   
    337. A(C  48,C  50,H 114)          110.4265         0.322037   
    338. A(H 112,C  50,H 113)          108.4621         0.287643   
    339. A(C  48,C  50,H 113)          110.7179         0.321575   
    340. A(C  48,C  50,H 112)          111.5850         0.322240   
    341. D(H  51,C   2,C   1,N   9)   -156.9382         0.010635   
    342. D(C   3,C   2,C   1,N   9)     80.6944         0.010635   
    343. D(N   6,C   2,C   1,N   9)    -35.8573         0.010635   
    344. D(N   6,C   2,C   1,O   0)    147.4764         0.010635   
    345. D(C   3,C   2,C   1,O   0)    -95.9718         0.010635   
    346. D(H  51,C   2,C   1,O   0)     26.3955         0.010635   
    347. D(C   4,C   3,C   2,N   6)    -28.1224         0.010216   
    348. D(H  53,C   3,C   2,H  51)   -151.5206         0.010216   
    349. D(H  53,C   3,C   2,C   1)    -32.7461         0.010216   
    350. D(C   4,C   3,C   2,H  51)     91.0682         0.010216   
    351. D(H  53,C   3,C   2,N   6)     89.2887         0.010216   
    352. D(H  52,C   3,C   2,H  51)    -31.8698         0.010216   
    353. D(C   4,C   3,C   2,C   1)   -150.1573         0.010216   
    354. D(H  52,C   3,C   2,C   1)     86.9047         0.010216   
    355. D(H  52,C   3,C   2,N   6)   -151.0605         0.010216   
    356. D(H  55,C   4,C   3,H  53)    163.6653         0.010811   
    357. D(H  55,C   4,C   3,H  52)     42.0731         0.010811   
    358. D(H  54,C   4,C   3,H  52)    -78.9108         0.010811   
    359. D(H  55,C   4,C   3,C   2)    -79.4192         0.010811   
    360. D(H  54,C   4,C   3,H  53)     42.6814         0.010811   
    361. D(C   5,C   4,C   3,C   2)     38.1175         0.010811   
    362. D(H  54,C   4,C   3,C   2)    159.5969         0.010811   
    363. D(C   5,C   4,C   3,H  53)    -78.7980         0.010811   
    364. D(C   5,C   4,C   3,H  52)    159.6097         0.010811   
    365. D(N   6,C   5,C   4,C   3)    -32.9014         0.010945   
    366. D(H  57,C   5,C   4,C   3)   -152.1136         0.010945   
    367. D(H  56,C   5,C   4,H  55)   -157.1572         0.010945   
    368. D(H  56,C   5,C   4,C   3)     85.1995         0.010945   
    369. D(H  57,C   5,C   4,H  54)     85.8638         0.010945   
    370. D(H  56,C   5,C   4,H  54)    -36.8231         0.010945   
    371. D(H  57,C   5,C   4,H  55)    -34.4704         0.010945   
    372. D(N   6,C   5,C   4,H  54)   -154.9240         0.010945   
    373. D(N   6,C   5,C   4,H  55)     84.7419         0.010945   
    374. D(C   5,N   6,C   2,C   3)      7.6791         0.014989   
    375. D(C   7,N   6,C   5,H  57)    -46.8442         0.014378   
    376. D(C   7,N   6,C   5,H  56)     73.4129         0.014378   
    377. D(C   7,N   6,C   5,C   4)   -166.8813         0.014378   
    378. D(C   2,N   6,C   5,H  57)    135.9328         0.014378   
    379. D(C   2,N   6,C   5,H  56)   -103.8101         0.014378   
    380. D(C   7,N   6,C   2,H  51)     70.2405         0.014989   
    381. D(C   2,N   6,C   5,C   4)     15.8957         0.014378   
    382. D(C   7,N   6,C   2,C   3)   -169.8274         0.014989   
    383. D(C   5,N   6,C   2,C   1)    129.6647         0.014989   
    384. D(C   7,N   6,C   2,C   1)    -47.8417         0.014989   
    385. D(C   5,N   6,C   2,H  51)   -112.2530         0.014989   
    386. D(C  24,C   7,N   6,C   5)     -6.4679         0.031014   
    387. D(C  24,C   7,N   6,C   2)    170.6021         0.031014   
    388. D(O   8,C   7,N   6,C   5)    177.0038         0.031014   
    389. D(O   8,C   7,N   6,C   2)     -5.9262         0.031014   
    390. D(H  58,N   9,C   1,O   0)   -170.8043         0.032109   
    391. D(C  10,N   9,C   1,C   2)    176.4373         0.032109   
    392. D(H  58,N   9,C   1,C   2)     12.6304         0.032109   
    393. D(C  10,N   9,C   1,O   0)     -6.9974         0.032109   
    394. D(H  59,C  10,N   9,C   1)     36.3196         0.015981   
    395. D(C  48,C  10,N   9,H  58)    -40.3349         0.015981   
    396. D(C  48,C  10,N   9,C   1)    155.6682         0.015981   
    397. D(C  11,C  10,N   9,C   1)    -78.9458         0.015981   
    398. D(H  59,C  10,N   9,H  58)   -159.6835         0.015981   
    399. D(C  11,C  10,N   9,H  58)     85.0512         0.015981   
    400. D(O  47,C  11,C  10,N   9)   -104.9866         0.009111   
    401. D(N  12,C  11,C  10,H  59)    -39.5059         0.009111   
    402. D(N  12,C  11,C  10,C  48)   -159.1660         0.009111   
    403. D(N  12,C  11,C  10,N   9)     74.6430         0.009111   
    404. D(O  47,C  11,C  10,H  59)    140.8646         0.009111   
    405. D(O  47,C  11,C  10,C  48)     21.2045         0.009111   
    406. D(H  60,N  12,C  11,O  47)    170.9960         0.037250   
    407. D(H  60,N  12,C  11,C  10)     -8.6228         0.037250   
    408. D(C  13,N  12,C  11,O  47)     -8.1592         0.037250   
    409. D(C  13,N  12,C  11,C  10)    172.2220         0.037250   
    410. D(H  61,C  13,N  12,C  11)   -177.4074         0.014938   
    411. D(H  61,C  13,N  12,H  60)      3.4591         0.014938   
    412. D(C  45,C  13,N  12,H  60)    120.5738         0.014938   
    413. D(C  45,C  13,N  12,C  11)    -60.2927         0.014938   
    414. D(C  14,C  13,N  12,C  11)     67.0618         0.014938   
    415. D(C  14,C  13,N  12,H  60)   -112.0716         0.014938   
    416. D(O  44,C  14,C  13,C  45)    -93.2660         0.009282   
    417. D(O  44,C  14,C  13,N  12)    139.3174         0.009282   
    418. D(N  15,C  14,C  13,H  61)   -163.9579         0.009282   
    419. D(N  15,C  14,C  13,C  45)     79.7870         0.009282   
    420. D(O  44,C  14,C  13,H  61)     22.9891         0.009282   
    421. D(N  15,C  14,C  13,N  12)    -47.6297         0.009282   
    422. D(H  62,N  15,C  14,O  44)    176.6279         0.032938   
    423. D(H  62,N  15,C  14,C  13)      3.8989         0.032938   
    424. D(C  16,N  15,C  14,O  44)     10.5812         0.032938   
    425. D(C  16,N  15,C  14,C  13)   -162.1477         0.032938   
    426. D(H  64,C  16,N  15,H  62)    137.5671         0.016565   
    427. D(H  64,C  16,N  15,C  14)    -57.1071         0.016565   
    428. D(H  63,C  16,N  15,H  62)   -105.7333         0.016565   
    429. D(H  63,C  16,N  15,C  14)     59.5925         0.016565   
    430. D(C  17,C  16,N  15,C  14)   -179.1749         0.016565   
    431. D(C  17,C  16,N  15,H  62)     15.4993         0.016565   
    432. D(H  65,C  17,C  16,H  64)     74.5193         0.011856   
    433. D(H  65,C  17,C  16,H  63)    -40.7066         0.011856   
    434. D(H  65,C  17,C  16,N  15)   -162.7017         0.011856   
    435. D(O  43,C  17,C  16,H  64)    -42.3569         0.011856   
    436. D(O  43,C  17,C  16,H  63)   -157.5828         0.011856   
    437. D(O  43,C  17,C  16,N  15)     80.4221         0.011856   
    438. D(C  18,C  17,C  16,H  64)   -168.0816         0.011856   
    439. D(C  18,C  17,C  16,H  63)     76.6925         0.011856   
    440. D(C  18,C  17,C  16,N  15)    -45.3025         0.011856   
    441. D(H  66,C  18,C  17,H  65)    128.8515         0.008698   
    442. D(H  66,C  18,C  17,O  43)   -112.4590         0.008698   
    443. D(H  66,C  18,C  17,C  16)     11.4428         0.008698   
    444. D(C  32,C  18,C  17,O  43)    130.4677         0.008698   
    445. D(C  32,C  18,C  17,C  16)   -105.6305         0.008698   
    446. D(C  32,C  18,C  17,H  65)     11.7782         0.008698   
    447. D(C  19,C  18,C  17,H  65)   -111.4615         0.008698   
    448. D(C  19,C  18,C  17,O  43)      7.2281         0.008698   
    449. D(C  19,C  18,C  17,C  16)    131.1299         0.008698   
    450. D(O  31,C  19,C  18,H  66)   -169.6531         0.010962   
    451. D(O  31,C  19,C  18,C  32)    -54.0459         0.010962   
    452. D(O  31,C  19,C  18,C  17)     69.8371         0.010962   
    453. D(N  20,C  19,C  18,H  66)     16.3072         0.010962   
    454. D(N  20,C  19,C  18,C  17)   -104.2026         0.010962   
    455. D(N  20,C  19,C  18,C  32)    131.9144         0.010962   
    456. D(H  67,N  20,C  19,O  31)   -176.2366         0.033237   
    457. D(H  67,N  20,C  19,C  18)     -2.4473         0.033237   
    458. D(C  21,N  20,C  19,O  31)    -10.8373         0.033237   
    459. D(C  21,N  20,C  19,C  18)    162.9521         0.033237   
    460. D(H  68,C  21,N  20,H  67)    170.7927         0.016226   
    461. D(H  68,C  21,N  20,C  19)      5.1598         0.016226   
    462. D(C  27,C  21,N  20,H  67)    -69.4373         0.016226   
    463. D(C  27,C  21,N  20,C  19)    124.9298         0.016226   
    464. D(C  22,C  21,N  20,H  67)     56.6902         0.016226   
    465. D(C  22,C  21,N  20,C  19)   -108.9426         0.016226   
    466. D(N  23,C  22,C  21,C  27)    179.9181         0.009305   
    467. D(N  23,C  22,C  21,N  20)     52.7163         0.009305   
    468. D(O  26,C  22,C  21,H  68)    117.7009         0.009305   
    469. D(O  26,C  22,C  21,C  27)     -2.4631         0.009305   
    470. D(O  26,C  22,C  21,N  20)   -129.6650         0.009305   
    471. D(N  23,C  22,C  21,H  68)    -59.9178         0.009305   
    472. D(H  69,N  23,C  22,O  26)    164.0198         0.033550   
    473. D(H  69,N  23,C  22,C  21)    -18.3810         0.033550   
    474. D(C  24,N  23,C  22,O  26)     -4.7605         0.033550   
    475. D(C  24,N  23,C  22,C  21)    172.8387         0.033550   
    476. D(H  70,C  24,N  23,H  69)    142.9109         0.015606   
    477. D(H  70,C  24,N  23,C  22)    -47.9222         0.015606   
    478. D(C  25,C  24,N  23,H  69)     22.8471         0.015606   
    479. D(C  25,C  24,N  23,C  22)   -167.9860         0.015606   
    480. D(C   7,C  24,N  23,H  69)    -98.0122         0.015606   
    481. D(C   7,C  24,N  23,C  22)     71.1548         0.015606   
    482. D(H  70,C  24,C   7,O   8)    179.7127         0.009865   
    483. D(H  70,C  24,C   7,N   6)      3.1452         0.009865   
    484. D(C  25,C  24,C   7,O   8)    -57.8925         0.009865   
    485. D(C  25,C  24,C   7,N   6)    125.5400         0.009865   
    486. D(N  23,C  24,C   7,O   8)     62.8340         0.009865   
    487. D(N  23,C  24,C   7,N   6)   -113.7335         0.009865   
    488. D(H  73,C  25,C  24,H  70)    179.1675         0.011497   
    489. D(H  73,C  25,C  24,N  23)    -63.1785         0.011497   
    490. D(H  73,C  25,C  24,C   7)     57.0267         0.011497   
    491. D(H  72,C  25,C  24,H  70)     59.6702         0.011497   
    492. D(H  72,C  25,C  24,N  23)    177.3242         0.011497   
    493. D(H  72,C  25,C  24,C   7)    -62.4706         0.011497   
    494. D(H  71,C  25,C  24,H  70)    -60.2552         0.011497   
    495. D(H  71,C  25,C  24,N  23)     57.3988         0.011497   
    496. D(H  71,C  25,C  24,C   7)    177.6040         0.011497   
    497. D(H  75,C  27,C  21,H  68)   -166.7391         0.011127   
    498. D(H  75,C  27,C  21,C  22)    -48.1404         0.011127   
    499. D(H  75,C  27,C  21,N  20)     76.2977         0.011127   
    500. D(H  74,C  27,C  21,H  68)    -52.7459         0.011127   
    501. D(H  74,C  27,C  21,C  22)     65.8527         0.011127   
    502. D(H  74,C  27,C  21,N  20)   -169.7092         0.011127   
    503. D(C  28,C  27,C  21,H  68)     69.6759         0.011127   
    504. D(C  28,C  27,C  21,C  22)   -171.7254         0.011127   
    505. D(C  28,C  27,C  21,N  20)    -47.2873         0.011127   
    506. D(H  76,C  28,C  27,H  75)    -66.1780         0.010798   
    507. D(H  76,C  28,C  27,H  74)    178.4919         0.010798   
    508. D(H  76,C  28,C  27,C  21)     57.2578         0.010798   
    509. D(C  30,C  28,C  27,H  75)    175.1591         0.010798   
    510. D(C  30,C  28,C  27,H  74)     59.8290         0.010798   
    511. D(C  30,C  28,C  27,C  21)    -61.4051         0.010798   
    512. D(C  29,C  28,C  27,H  75)     50.9300         0.010798   
    513. D(C  29,C  28,C  27,H  74)    -64.4001         0.010798   
    514. D(C  29,C  28,C  27,C  21)    174.3659         0.010798   
    515. D(H  79,C  29,C  28,C  30)     57.6788         0.010963   
    516. D(H  79,C  29,C  28,C  27)   -177.4200         0.010963   
    517. D(H  78,C  29,C  28,H  76)    179.7844         0.010963   
    518. D(H  78,C  29,C  28,C  30)    -62.0294         0.010963   
    519. D(H  78,C  29,C  28,C  27)     62.8718         0.010963   
    520. D(H  77,C  29,C  28,H  76)     59.9193         0.010963   
    521. D(H  77,C  29,C  28,C  30)    178.1055         0.010963   
    522. D(H  79,C  29,C  28,H  76)    -60.5075         0.010963   
    523. D(H  77,C  29,C  28,C  27)    -56.9933         0.010963   
    524. D(H  82,C  30,C  28,H  76)   -178.9111         0.010907   
    525. D(H  82,C  30,C  28,C  29)     62.9528         0.010907   
    526. D(H  82,C  30,C  28,C  27)    -60.4806         0.010907   
    527. D(H  81,C  30,C  28,H  76)     62.0184         0.010907   
    528. D(H  81,C  30,C  28,C  29)    -56.1177         0.010907   
    529. D(H  81,C  30,C  28,C  27)   -179.5511         0.010907   
    530. D(H  80,C  30,C  28,H  76)    -58.4372         0.010907   
    531. D(H  80,C  30,C  28,C  29)   -176.5733         0.010907   
    532. D(H  80,C  30,C  28,C  27)     59.9933         0.010907   
    533. D(O  42,C  32,C  18,H  66)   -107.1958         0.009719   
    534. D(O  42,C  32,C  18,C  19)    134.3519         0.009719   
    535. D(O  42,C  32,C  18,C  17)     13.3809         0.009719   
    536. D(C  33,C  32,C  18,H  66)     70.9566         0.009719   
    537. D(C  33,C  32,C  18,C  19)    -47.4956         0.009719   
    538. D(C  33,C  32,C  18,C  17)   -168.4667         0.009719   
    539. D(H  84,C  33,C  32,O  42)    132.2868         0.011683   
    540. D(H  84,C  33,C  32,C  18)    -45.8299         0.011683   
    541. D(H  83,C  33,C  32,O  42)   -115.6171         0.011683   
    542. D(H  83,C  33,C  32,C  18)     66.2662         0.011683   
    543. D(C  34,C  33,C  32,O  42)      7.2086         0.011683   
    544. D(C  34,C  33,C  32,C  18)   -170.9081         0.011683   
    545. D(H  86,C  34,C  33,H  84)   -179.0574         0.011569   
    546. D(H  86,C  34,C  33,H  83)     64.6639         0.011569   
    547. D(H  86,C  34,C  33,C  32)    -55.7704         0.011569   
    548. D(H  85,C  34,C  33,H  84)    -63.8690         0.011569   
    549. D(H  85,C  34,C  33,H  83)    179.8523         0.011569   
    550. D(H  85,C  34,C  33,C  32)     59.4180         0.011569   
    551. D(C  35,C  34,C  33,H  84)     58.6735         0.011569   
    552. D(C  35,C  34,C  33,H  83)    -57.6053         0.011569   
    553. D(C  35,C  34,C  33,C  32)   -178.0395         0.011569   
    554. D(H  88,C  35,C  34,H  86)   -179.9462         0.011139   
    555. D(H  88,C  35,C  34,H  85)     63.9809         0.011139   
    556. D(H  88,C  35,C  34,C  33)    -58.2550         0.011139   
    557. D(H  87,C  35,C  34,H  86)    -64.3168         0.011139   
    558. D(H  87,C  35,C  34,H  85)    179.6103         0.011139   
    559. D(H  87,C  35,C  34,C  33)     57.3744         0.011139   
    560. D(C  36,C  35,C  34,H  86)     57.7828         0.011139   
    561. D(C  36,C  35,C  34,H  85)    -58.2901         0.011139   
    562. D(C  36,C  35,C  34,C  33)    179.4740         0.011139   
    563. D(H  90,C  36,C  35,H  87)     64.6329         0.011139   
    564. D(H  90,C  36,C  35,C  34)    -57.5150         0.011139   
    565. D(H  89,C  36,C  35,H  88)    -64.5249         0.011139   
    566. D(H  89,C  36,C  35,H  87)   -179.9421         0.011139   
    567. D(H  89,C  36,C  35,C  34)     57.9100         0.011139   
    568. D(C  37,C  36,C  35,H  88)     57.8140         0.011139   
    569. D(C  37,C  36,C  35,H  87)    -57.6031         0.011139   
    570. D(H  90,C  36,C  35,H  88)   -179.9500         0.011139   
    571. D(C  37,C  36,C  35,C  34)   -179.7511         0.011139   
    572. D(H  92,C  37,C  36,H  90)    179.8248         0.011130   
    573. D(H  92,C  37,C  36,H  89)     64.2900         0.011130   
    574. D(H  92,C  37,C  36,C  35)    -58.0173         0.011130   
    575. D(H  91,C  37,C  36,H  90)    -64.6992         0.011130   
    576. D(H  91,C  37,C  36,H  89)    179.7659         0.011130   
    577. D(H  91,C  37,C  36,C  35)     57.4587         0.011130   
    578. D(C  38,C  37,C  36,H  90)     57.5307         0.011130   
    579. D(C  38,C  37,C  36,H  89)    -58.0041         0.011130   
    580. D(C  38,C  37,C  36,C  35)    179.6886         0.011130   
    581. D(H  94,C  38,C  37,H  92)   -179.9532         0.011121   
    582. D(H  94,C  38,C  37,H  91)     64.5904         0.011121   
    583. D(H  94,C  38,C  37,C  36)    -57.6430         0.011121   
    584. D(H  93,C  38,C  37,H  92)    -64.5268         0.011121   
    585. D(H  93,C  38,C  37,H  91)   -179.9832         0.011121   
    586. D(H  93,C  38,C  37,C  36)     57.7834         0.011121   
    587. D(C  39,C  38,C  37,H  92)     57.7834         0.011121   
    588. D(C  39,C  38,C  37,H  91)    -57.6730         0.011121   
    589. D(C  39,C  38,C  37,C  36)   -179.9064         0.011121   
    590. D(H  95,C  39,C  38,H  94)    -64.6139         0.011131   
    591. D(H  95,C  39,C  38,H  93)    179.9282         0.011131   
    592. D(H  95,C  39,C  38,C  37)     57.6271         0.011131   
    593. D(C  40,C  39,C  38,H  94)     57.6513         0.011131   
    594. D(C  40,C  39,C  38,H  93)    -57.8065         0.011131   
    595. D(C  40,C  39,C  38,C  37)    179.8923         0.011131   
    596. D(H  96,C  39,C  38,H  94)    179.9335         0.011131   
    597. D(H  96,C  39,C  38,H  93)     64.4757         0.011131   
    598. D(H  96,C  39,C  38,C  37)    -57.8255         0.011131   
    599. D(H  98,C  40,C  39,H  95)     64.6825         0.011068   
    600. D(H  98,C  40,C  39,C  38)    -57.6249         0.011068   
    601. D(H  97,C  40,C  39,H  96)    -64.6352         0.011068   
    602. D(H  97,C  40,C  39,H  95)   -179.9966         0.011068   
    603. D(H  97,C  40,C  39,C  38)     57.6960         0.011068   
    604. D(C  41,C  40,C  39,H  96)     57.7115         0.011068   
    605. D(C  41,C  40,C  39,H  95)    -57.6499         0.011068   
    606. D(H  98,C  40,C  39,H  96)   -179.9561         0.011068   
    607. D(C  41,C  40,C  39,C  38)   -179.9573         0.011068   
    608. D(H 101,C  41,C  40,H  98)    -62.2799         0.011156   
    609. D(H 101,C  41,C  40,H  97)   -178.1758         0.011156   
    610. D(H 101,C  41,C  40,C  39)     59.7638         0.011156   
    611. D(H 100,C  41,C  40,H  98)    178.1794         0.011156   
    612. D(H 100,C  41,C  40,H  97)     62.2835         0.011156   
    613. D(H 100,C  41,C  40,C  39)    -59.7768         0.011156   
    614. D(H  99,C  41,C  40,H  98)     57.9466         0.011156   
    615. D(H  99,C  41,C  40,H  97)    -57.9492         0.011156   
    616. D(H  99,C  41,C  40,C  39)    179.9904         0.011156   
    617. D(H 102,O  43,C  17,H  65)     56.0887         0.016187   
    618. D(H 102,O  43,C  17,C  18)    -61.3665         0.016187   
    619. D(H 102,O  43,C  17,C  16)    171.6380         0.016187   
    620. D(H 104,C  45,C  13,H  61)     62.5456         0.009929   
    621. D(H 104,C  45,C  13,C  14)    175.5993         0.009929   
    622. D(H 104,C  45,C  13,N  12)    -52.3514         0.009929   
    623. D(H 103,C  45,C  13,H  61)    177.3025         0.009929   
    624. D(H 103,C  45,C  13,C  14)    -69.6438         0.009929   
    625. D(H 103,C  45,C  13,N  12)     62.4055         0.009929   
    626. D(C  46,C  45,C  13,H  61)    -59.3332         0.009929   
    627. D(C  46,C  45,C  13,C  14)     53.7205         0.009929   
    628. D(C  46,C  45,C  13,N  12)   -174.2302         0.009929   
    629. D(H 107,C  46,C  45,H 104)    -63.0314         0.011315   
    630. D(H 107,C  46,C  45,H 103)    179.3768         0.011315   
    631. D(H 107,C  46,C  45,C  13)     57.0749         0.011315   
    632. D(H 106,C  46,C  45,H 104)    177.2323         0.011315   
    633. D(H 106,C  46,C  45,H 103)     59.6405         0.011315   
    634. D(H 106,C  46,C  45,C  13)    -62.6614         0.011315   
    635. D(H 105,C  46,C  45,H 104)     56.9659         0.011315   
    636. D(H 105,C  46,C  45,H 103)    -60.6259         0.011315   
    637. D(H 105,C  46,C  45,C  13)    177.0722         0.011315   
    638. D(H 108,C  48,C  10,H  59)   -168.0404         0.011022   
    639. D(H 108,C  48,C  10,C  11)    -49.3374         0.011022   
    640. D(H 108,C  48,C  10,N   9)     74.5511         0.011022   
    641. D(C  50,C  48,C  10,H  59)    -51.3752         0.011022   
    642. D(C  50,C  48,C  10,C  11)     67.3278         0.011022   
    643. D(C  50,C  48,C  10,N   9)   -168.7837         0.011022   
    644. D(C  49,C  48,C  10,H  59)     72.6596         0.011022   
    645. D(C  49,C  48,C  10,C  11)   -168.6374         0.011022   
    646. D(C  49,C  48,C  10,N   9)    -44.7489         0.011022   
    647. D(H 111,C  49,C  48,C  50)     66.2843         0.011105   
    648. D(H 111,C  49,C  48,C  10)    -56.8604         0.011105   
    649. D(H 110,C  49,C  48,H 108)     65.5458         0.011105   
    650. D(H 110,C  49,C  48,C  50)    -52.9072         0.011105   
    651. D(H 110,C  49,C  48,C  10)   -176.0519         0.011105   
    652. D(H 109,C  49,C  48,H 108)    -54.1406         0.011105   
    653. D(H 109,C  49,C  48,C  50)   -172.5937         0.011105   
    654. D(H 111,C  49,C  48,H 108)   -175.2626         0.011105   
    655. D(H 109,C  49,C  48,C  10)     64.2616         0.011105   
    656. D(H 114,C  50,C  48,H 108)    -59.8280         0.010931   
    657. D(H 114,C  50,C  48,C  49)     59.3153         0.010931   
    658. D(H 114,C  50,C  48,C  10)   -176.2627         0.010931   
    659. D(H 113,C  50,C  48,H 108)   -179.0474         0.010931   
    660. D(H 113,C  50,C  48,C  49)    -59.9041         0.010931   
    661. D(H 113,C  50,C  48,C  10)     64.5179         0.010931   
    662. D(H 112,C  50,C  48,H 108)     60.0393         0.010931   
    663. D(H 112,C  50,C  48,C  49)    179.1826         0.010931   
    664. D(H 112,C  50,C  48,C  10)    -56.3954         0.010931   
    -----------------------------------------------------------------

Number of atoms                         .... 115
Number of degrees of freedom            .... 664

         *************************************************************
         *                GEOMETRY OPTIMIZATION CYCLE   1            *
         *************************************************************
---------------------------------
CARTESIAN COORDINATES (ANGSTROEM)
---------------------------------
  O      5.737842   -2.079253    1.906865
  C      5.272571   -0.989948    2.273195
  C      6.204126    0.166468    2.630185
  C      6.480013    0.262750    4.144920
  C      6.716225    1.761929    4.370805
  C      5.698373    2.423871    3.435568
  N      5.630874    1.479069    2.305792
  C      5.073200    1.671322    1.077542
  O      5.132569    0.810124    0.195949
  N      3.943519   -0.771973    2.448586
  C      2.982001   -1.798419    2.057363
  C      2.778952   -1.745386    0.521520
  N      3.804805   -2.254843   -0.173161
  C      3.891186   -2.510076   -1.617297
  C      3.894832   -1.300026   -2.581650
  N      2.949060   -0.353334   -2.368952
  C      2.613659    0.602148   -3.413726
  C      1.548929    1.614749   -3.020344
  C      0.312526    0.993495   -2.285555
  C      0.053710    1.827861   -1.038169
  N      0.441443    1.276229    0.135817
  C      0.593240    2.092064    1.334362
  C      2.098524    2.222386    1.666371
  N      2.876455    2.654464    0.647632
  C      4.289719    2.975186    0.848694
  C      4.835363    3.708589   -0.372596
  O      2.545682    1.989516    2.802359
  C     -0.220941    1.597476    2.531878
  C     -1.682273    1.258551    2.208546
  C     -2.356347    0.645300    3.440485
  C     -2.463275    2.474939    1.697796
  O     -0.380959    2.986562   -1.145893
  C     -0.935391    0.920322   -3.185784
  C     -2.230260    0.589609   -2.474974
  C     -3.410704    0.306878   -3.397489
  C     -4.701029    0.026422   -2.624505
  C     -5.901710   -0.247433   -3.532495
  C     -7.196157   -0.522596   -2.764297
  C     -8.399451   -0.789205   -3.671389
  C     -9.694814   -1.062226   -2.903997
  C    -10.899886   -1.326517   -3.810566
  C    -12.189247   -1.597112   -3.032907
  O     -0.860018    1.085317   -4.390075
  O      2.174064    2.660887   -2.239616
  O      4.647491   -1.305752   -3.556499
  C      2.794547   -3.515065   -2.041709
  C      2.887375   -3.953738   -3.502227
  O      1.744117   -1.258611    0.005086
  C      1.653131   -1.702837    2.812827
  C      1.862515   -1.474766    4.311687
  C      0.819482   -2.962588    2.553034
  H      7.126398   -0.009000    2.056427
  H      7.323457   -0.369481    4.444539
  H      5.590460   -0.068912    4.701123
  H      6.577375    2.065321    5.416204
  H      7.738612    2.035114    4.069633
  H      4.705669    2.523108    3.902564
  H      6.029303    3.415013    3.099079
  H      3.602357    0.180843    2.614451
  H      3.461553   -2.761778    2.293748
  H      4.633272   -2.477980    0.396562
  H      4.874512   -2.972034   -1.771994
  H      2.347805   -0.484828   -1.549619
  H      2.254545    0.059030   -4.304808
  H      3.516457    1.148895   -3.720005
  H      1.170351    2.052740   -3.956746
  H      0.513096   -0.051282   -1.995250
  H      0.847276    0.328295    0.142803
  H      0.242592    3.092771    1.037238
  H      2.541728    2.605455   -0.325283
  H      4.345430    3.613251    1.740744
  H      4.252864    4.619014   -0.566797
  H      5.882888    3.992625   -0.204975
  H      4.788544    3.057092   -1.253979
  H     -0.180820    2.377450    3.309007
  H      0.273615    0.721900    2.973744
  H     -1.678604    0.496408    1.409637
  H     -1.816714   -0.247943    3.789332
  H     -2.382917    1.366598    4.272628
  H     -3.392870    0.351128    3.220672
  H     -2.026969    2.890730    0.778807
  H     -3.507502    2.205356    1.481963
  H     -2.476743    3.272608    2.458293
  H     -2.448427    1.445554   -1.811043
  H     -2.039618   -0.257157   -1.790769
  H     -3.169624   -0.547107   -4.050691
  H     -3.553631    1.166176   -4.070552
  H     -4.928679    0.885351   -1.968611
  H     -4.548886   -0.836071   -1.951188
  H     -5.675264   -1.106724   -4.187842
  H     -6.052139    0.614781   -4.205448
  H     -7.419011    0.335882   -2.106207
  H     -7.046237   -1.387146   -2.093531
  H     -8.177073   -1.647788   -4.329391
  H     -8.548202    0.075241   -4.342307
  H     -9.916641   -0.204060   -2.244857
  H     -9.547043   -1.927587   -2.233561
  H    -10.676493   -2.183975   -4.468105
  H    -11.045214   -0.461411   -4.479851
  H    -13.037903   -1.783307   -3.706617
  H    -12.081021   -2.476934   -2.380312
  H    -12.452311   -0.741509   -2.392278
  H      1.486886    3.350231   -2.127679
  H      1.811866   -3.064297   -1.838610
  H      2.886047   -4.388958   -1.377391
  H      2.114733   -4.703583   -3.722454
  H      2.750634   -3.109830   -4.190914
  H      3.868278   -4.396945   -3.725484
  H      1.101891   -0.846552    2.397497
  H      2.344189   -0.510480    4.517942
  H      0.894053   -1.481617    4.831811
  H      2.484533   -2.270793    4.749505
  H      0.653956   -3.123116    1.479637
  H      1.319661   -3.852750    2.965746
  H     -0.164230   -2.877765    3.035494

----------------------------
CARTESIAN COORDINATES (A.U.)
----------------------------
  NO LB      ZA    FRAG     MASS         X           Y           Z
   0 O     8.0000    0    15.999   10.842949   -3.929219    3.603452
   1 C     6.0000    0    12.011    9.963715   -1.870731    4.295717
   2 C     6.0000    0    12.011   11.724100    0.314579    4.970329
   3 C     6.0000    0    12.011   12.245450    0.496526    7.832763
   4 C     6.0000    0    12.011   12.691826    3.329563    8.259624
   5 C     6.0000    0    12.011   10.768364    4.580453    6.492282
   6 N     7.0000    0    14.007   10.640810    2.795036    4.357316
   7 C     6.0000    0    12.011    9.586959    3.158341    2.036260
   8 O     8.0000    0    15.999    9.699149    1.530912    0.370290
   9 N     7.0000    0    14.007    7.452171   -1.458818    4.627157
  10 C     6.0000    0    12.011    5.635165   -3.398520    3.887853
  11 C     6.0000    0    12.011    5.251457   -3.298301    0.985530
  12 N     7.0000    0    14.007    7.190039   -4.261035   -0.327227
  13 C     6.0000    0    12.011    7.353276   -4.743356   -3.056249
  14 C     6.0000    0    12.011    7.360165   -2.456693   -4.878611
  15 N     7.0000    0    14.007    5.572915   -0.667704   -4.476670
  16 C     6.0000    0    12.011    4.939099    1.137895   -6.451008
  17 C     6.0000    0    12.011    2.927052    3.051434   -5.707622
  18 C     6.0000    0    12.011    0.590589    1.877433   -4.319072
  19 C     6.0000    0    12.011    0.101497    3.454157   -1.961856
  20 N     7.0000    0    14.007    0.834207    2.411724    0.256656
  21 C     6.0000    0    12.011    1.121062    3.953428    2.521578
  22 C     6.0000    0    12.011    3.965635    4.199700    3.148985
  23 N     7.0000    0    14.007    5.435712    5.016210    1.223848
  24 C     6.0000    0    12.011    8.106394    5.622286    1.603800
  25 C     6.0000    0    12.011    9.137513    7.008217   -0.704105
  26 O     8.0000    0    15.999    4.810642    3.759641    5.295691
  27 C     6.0000    0    12.011   -0.417518    3.018792    4.784555
  28 C     6.0000    0    12.011   -3.179034    2.378316    4.173548
  29 C     6.0000    0    12.011   -4.452851    1.219441    6.501574
  30 C     6.0000    0    12.011   -4.654916    4.676957    3.208370
  31 O     8.0000    0    15.999   -0.719909    5.643783   -2.165423
  32 C     6.0000    0    12.011   -1.767633    1.739157   -6.020260
  33 C     6.0000    0    12.011   -4.214580    1.114199   -4.677023
  34 C     6.0000    0    12.011   -6.445297    0.579916   -6.420324
  35 C     6.0000    0    12.011   -8.883656    0.049929   -4.959595
  36 C     6.0000    0    12.011  -11.152615   -0.467581   -6.675449
  37 C     6.0000    0    12.011  -13.598767   -0.987563   -5.223764
  38 C     6.0000    0    12.011  -15.872663   -1.491382   -6.937920
  39 C     6.0000    0    12.011  -18.320544   -2.007316   -5.487760
  40 C     6.0000    0    12.011  -20.597799   -2.506754   -7.200927
  41 C     6.0000    0    12.011  -23.034339   -3.018105   -5.731364
  42 O     8.0000    0    15.999   -1.625198    2.050952   -8.296039
  43 O     8.0000    0    15.999    4.108386    5.028348   -4.232260
  44 O     8.0000    0    15.999    8.782485   -2.467514   -6.720809
  45 C     6.0000    0    12.011    5.280928   -6.642509   -3.858271
  46 C     6.0000    0    12.011    5.456349   -7.471483   -6.618250
  47 O     8.0000    0    15.999    3.295904   -2.378429    0.009611
  48 C     6.0000    0    12.011    3.123964   -3.217895    5.315473
  49 C     6.0000    0    12.011    3.519644   -2.786904    8.147908
  50 C     6.0000    0    12.011    1.548597   -5.598479    4.824534
  51 H     1.0000    0     1.008   13.466941   -0.017008    3.886083
  52 H     1.0000    0     1.008   13.839328   -0.698219    8.398961
  53 H     1.0000    0     1.008   10.564439   -0.130224    8.883834
  54 H     1.0000    0     1.008   12.429437    3.902892   10.235143
  55 H     1.0000    0     1.008   14.623857    3.845807    7.690492
  56 H     1.0000    0     1.008    8.892425    4.767983    7.374778
  57 H     1.0000    0     1.008   11.393731    6.453439    5.856411
  58 H     1.0000    0     1.008    6.807468    0.341744    4.940596
  59 H     1.0000    0     1.008    6.541388   -5.219004    4.334555
  60 H     1.0000    0     1.008    8.755615   -4.682704    0.749393
  61 H     1.0000    0     1.008    9.211494   -5.616330   -3.348584
  62 H     1.0000    0     1.008    4.436709   -0.916193   -2.928356
  63 H     1.0000    0     1.008    4.260472    0.111551   -8.134909
  64 H     1.0000    0     1.008    6.645141    2.171098   -7.029791
  65 H     1.0000    0     1.008    2.211643    3.879116   -7.477166
  66 H     1.0000    0     1.008    0.969611   -0.096909   -3.770477
  67 H     1.0000    0     1.008    1.601120    0.620387    0.269858
  68 H     1.0000    0     1.008    0.458433    5.844491    1.960096
  69 H     1.0000    0     1.008    4.803170    4.923596   -0.614695
  70 H     1.0000    0     1.008    8.211673    6.828056    3.289530
  71 H     1.0000    0     1.008    8.036749    8.728671   -1.071092
  72 H     1.0000    0     1.008   11.117048    7.544968   -0.387346
  73 H     1.0000    0     1.008    9.049036    5.777067   -2.369678
  74 H     1.0000    0     1.008   -0.341700    4.492729    6.253117
  75 H     1.0000    0     1.008    0.517057    1.364193    5.619561
  76 H     1.0000    0     1.008   -3.172102    0.938075    2.663827
  77 H     1.0000    0     1.008   -3.433092   -0.468544    7.160800
  78 H     1.0000    0     1.008   -4.503060    2.582497    8.074098
  79 H     1.0000    0     1.008   -6.411595    0.663536    6.086188
  80 H     1.0000    0     1.008   -3.830417    5.462688    1.471731
  81 H     1.0000    0     1.008   -6.628219    4.167519    2.800505
  82 H     1.0000    0     1.008   -4.680366    6.184333    4.645500
  83 H     1.0000    0     1.008   -4.626856    2.731702   -3.422375
  84 H     1.0000    0     1.008   -3.854320   -0.485957   -3.384062
  85 H     1.0000    0     1.008   -5.989722   -1.033883   -7.654696
  86 H     1.0000    0     1.008   -6.715389    2.203753   -7.692229
  87 H     1.0000    0     1.008   -9.313853    1.673071   -3.720137
  88 H     1.0000    0     1.008   -8.596148   -1.579946   -3.687210
  89 H     1.0000    0     1.008  -10.724694   -2.091405   -7.913875
  90 H     1.0000    0     1.008  -11.436885    1.161768   -7.947145
  91 H     1.0000    0     1.008  -14.019899    0.634725   -3.980155
  92 H     1.0000    0     1.008  -13.315459   -2.621327   -3.956201
  93 H     1.0000    0     1.008  -15.452429   -3.113868   -8.181364
  94 H     1.0000    0     1.008  -16.153762    0.142185   -8.205771
  95 H     1.0000    0     1.008  -18.739735   -0.385618   -4.242165
  96 H     1.0000    0     1.008  -18.041298   -3.642611   -4.220819
  97 H     1.0000    0     1.008  -20.175648   -4.127114   -8.443495
  98 H     1.0000    0     1.008  -20.872429   -0.871940   -8.465691
  99 H     1.0000    0     1.008  -24.638066   -3.369961   -7.004490
 100 H     1.0000    0     1.008  -22.829820   -4.680727   -4.498139
 101 H     1.0000    0     1.008  -23.531457   -1.401248   -4.520750
 102 H     1.0000    0     1.008    2.809808    6.331020   -4.020731
 103 H     1.0000    0     1.008    3.423931   -5.790682   -3.474470
 104 H     1.0000    0     1.008    5.453838   -8.293930   -2.602892
 105 H     1.0000    0     1.008    3.996266   -8.888484   -7.034418
 106 H     1.0000    0     1.008    5.197944   -5.876726   -7.919680
 107 H     1.0000    0     1.008    7.309986   -8.309022   -7.040145
 108 H     1.0000    0     1.008    2.082273   -1.599751    4.530613
 109 H     1.0000    0     1.008    4.429875   -0.964668    8.537673
 110 H     1.0000    0     1.008    1.689514   -2.799850    9.130800
 111 H     1.0000    0     1.008    4.695087   -4.291177    8.975264
 112 H     1.0000    0     1.008    1.235798   -5.901834    2.796110
 113 H     1.0000    0     1.008    2.493797   -7.280642    5.604447
 114 H     1.0000    0     1.008   -0.310350   -5.438188    5.736253

--------------------------------
INTERNAL COORDINATES (ANGSTROEM)
--------------------------------
 O      0   0   0     0.000000000000     0.00000000     0.00000000
 C      1   0   0     1.239862984733     0.00000000     0.00000000
 C      2   1   0     1.527264007813   120.35848343     0.00000000
 C      3   2   1     1.542661459333   112.69674426   264.02815291
 C      4   3   2     1.534391278862   103.47741783   209.84274995
 C      5   4   3     1.532598490827   103.29243629    38.11746628
 N      3   2   1     1.468595143559   112.77011409   147.47639068
 C      7   3   2     1.362556064699   119.01143957   312.15826498
 O      8   7   3     1.233853373947   121.72888174   354.07384995
 N      2   1   3     1.358180642756   123.11821957   183.56447408
 C     10   2   1     1.459850686825   119.80600440   353.00258341
 C     11  10   2     1.550115020936   109.13169069   281.05423042
 N     12  11  10     1.339590727655   113.60818057    74.64296894
 C     13  12  11     1.469059070022   128.38062317   172.22201942
 C     14  13  12     1.547323800885   118.48541959    67.06183031
 N     15  14  13     1.354972853613   116.54554436   312.37034360
 C     16  15  14     1.454988955748   120.46430192   197.85226700
 C     17  16  15     1.521104703501   114.38175269   180.82507753
 C     18  17  16     1.566705385629   114.18703738   314.69745650
 C     19  18  17     1.522866752038   107.51921139   131.12987056
 N     20  19  18     1.353838253696   116.00004569   255.79738528
 C     21  20  19     1.457785458116   120.98000187   162.95209905
 C     22  21  20     1.546961939104   108.96091509   251.05737282
 N     23  22  21     1.352662934152   115.14356086    52.71628919
 C     24  23  22     1.463080457129   121.47001284   172.83870475
 C     25  24  23     1.525502490650   109.92999249   192.01401530
 O     23  22  21     1.242838624485   122.03779909   230.33503670
 C     22  21  20     1.530213340773   114.02439843   124.92983403
 C     28  22  21     1.534569544234   114.40438015   312.71266806
 C     29  28  22     1.532359385428   109.74879562   174.36585656
 C     29  28  22     1.533111847976   112.33810477   298.59489503
 O     20  19  18     1.242227139541   119.96624090    69.83705960
 C     19  18  17     1.540475434344   112.58516716   254.36954045
 C     33  19  18     1.513706619592   115.39979918   191.53327529
 C     34  33  19     1.524604827960   114.75286459   189.09188865
 C     35  34  33     1.530064727497   112.41115604   181.96045148
 C     36  35  34     1.530058448289   113.25213294   179.47398047
 C     37  36  35     1.530175777975   113.45949995   180.24893248
 C     38  37  36     1.530298518436   113.51104419   179.68861557
 C     39  38  37     1.530161777653   113.54495099   180.09364074
 C     40  39  38     1.530984832998   113.58902819   179.89233430
 C     41  40  39     1.529845759655   113.13635631   180.04272262
 O     33  19  18     1.217875573216   121.41914858    13.38085672
 O     18  17  16     1.447319934077   108.56290243    80.42211587
 O     15  14  13     1.231608620949   119.41378435   139.31739146
 C     14  13  12     1.546850027895   109.93225384   299.70725078
 C     46  14  13     1.527797392646   113.93880148   185.76977917
 O     12  11  10     1.254805186808   121.94296625   255.01343483
 C     11  10   2     1.531586515357   113.29086380   155.66820023
 C     49  11  10     1.530503368306   111.94133753   315.25110301
 C     49  11  10     1.532786525346   109.69410808   191.21632256
 H      3   2   1     1.100260464362   105.58293299    26.39546379
 H      4   3   2     1.095849659531   111.72184911    86.90471146
 H      4   3   2     1.100302417860   109.44805531   327.25390283
 H      5   4   3     1.097354408314   113.01034842   159.59691166
 H      5   4   3     1.100276787872   110.20256582   280.58080280
 H      6   5   4     1.101542490271   112.25438959    85.19953696
 H      6   5   4     1.097770799912   112.13536359   207.88635092
 H     10   2   1     1.025554237819   119.70401906   189.19571981
 H     11  10   2     1.101774777287   105.70066146    36.31957680
 H     13  12  11     1.029918190114   114.30160330   351.37720830
 H     14  13  12     1.097391053987   105.33144692   182.59256100
 H     16  15  14     1.024745392712   116.44874048     3.89891790
 H     17  16  15     1.103615651219   109.36673779    59.59248201
 H     17  16  15     1.098992407015   109.72198857   302.89288939
 H     18  17  16     1.100911746279   106.59339553   197.29834679
 H     19  18  17     1.102752259063   110.83140787    11.44283988
 H     21  20  19     1.031178620469   119.54812017   357.55274436
 H     22  21  20     1.101204886320   104.68913379     5.15980724
 H     24  23  22     1.030052263796   120.61534653   341.61900133
 H     25  24  23     1.098173388310   106.73821552   312.07782957
 H     26  25  24     1.098131635750   110.51383444    57.39879489
 H     26  25  24     1.098217639916   110.07924352   177.32422841
 H     26  25  24     1.097030488026   110.02514381   296.82148183
 H     28  22  21     1.101770790665   107.68610512   190.29082183
 H     28  22  21     1.098391645723   109.44502553    76.29771263
 H     29  28  22     1.104143063035   107.56203404    57.25784093
 H     30  29  28     1.100355396322   111.34722312   303.00669146
 H     30  29  28     1.101562227054   110.84743636    62.87181258
 H     30  29  28     1.099651542232   111.16131624   182.57997003
 H     31  29  28     1.098993539052   112.11792316    59.99330221
 H     31  29  28     1.099849590823   110.76671378   180.44891635
 H     31  29  28     1.102185055505   110.52166092   299.51943429
 H     34  33  19     1.105008786763   106.36760982    66.26617882
 H     34  33  19     1.105211869893   108.09171504   314.17006775
 H     35  34  33     1.101854136832   109.45280335    59.41801549
 H     35  34  33     1.100833568540   109.00959034   304.22958862
 H     36  35  34     1.104436562589   109.34752403    57.37440013
 H     36  35  34     1.104716061369   109.56518766   301.74497318
 H     37  36  35     1.104145667772   109.30382386    57.90998178
 H     37  36  35     1.104041506329   109.19976301   302.48495205
 H     38  37  36     1.104413838672   109.27279141    57.45867547
 H     38  37  36     1.104468281768   109.31904088   301.98274494
 H     39  38  37     1.104347496884   109.28654801    57.78341099
 H     39  38  37     1.104321074100   109.24813825   302.35704356
 H     40  39  38     1.104590946709   109.30831354    57.62709403
 H     40  39  38     1.104612873148   109.32457571   302.17454423
 H     41  40  39     1.103401566616   109.12699853    57.69601991
 H     41  40  39     1.103390837577   109.11731150   302.37511103
 H     42  41  40     1.099440396035   111.65551870   179.99039721
 H     42  41  40     1.100763312163   111.09249790   300.22315305
 H     42  41  40     1.100756816591   111.08623472    59.76383672
 H     44  18  17     0.979764722189   105.50038929   171.63802287
 H     46  14  13     1.100045990509   108.44693058    62.40548878
 H     46  14  13     1.101535825057   106.92232788   307.64860072
 H     47  46  14     1.098973711088   110.16727781   177.07220616
 H     47  46  14     1.097802489608   111.80294779   297.33862179
 H     47  46  14     1.099293495573   111.35388620    57.07489070
 H     49  11  10     1.099812572785   107.28893910    74.55112491
 H     50  49  11     1.097450678647   112.02644981    64.26159625
 H     50  49  11     1.099316088236   109.99267722   183.94807211
 H     50  49  11     1.101021988596   111.03736458   303.13960070
 H     51  49  11     1.097883210361   111.58499441   303.60456865
 H     51  49  11     1.101316963875   110.71794695    64.51788378
 H     51  49  11     1.098932831733   110.42649523   183.73729042

---------------------------
INTERNAL COORDINATES (A.U.)
---------------------------
 O      0   0   0     0.000000000000     0.00000000     0.00000000
 C      1   0   0     2.343001484732     0.00000000     0.00000000
 C      2   1   0     2.886110708962   120.35848343     0.00000000
 C      3   2   1     2.915207675494   112.69674426   264.02815291
 C      4   3   2     2.899579299327   103.47741783   209.84274995
 C      5   4   3     2.896191420923   103.29243629    38.11746628
 N      3   2   1     2.775242622933   112.77011409   147.47639068
 C      7   3   2     2.574857804394   119.01143957   312.15826498
 O      8   7   3     2.331644966174   121.72888174   354.07384995
 N      2   1   3     2.566589455202   123.11821957   183.56447408
 C     10   2   1     2.758717994516   119.80600440   353.00258341
 C     11  10   2     2.929292865647   109.13169069   281.05423042
 N     12  11  10     2.531459606808   113.60818057    74.64296894
 C     13  12  11     2.776119316895   128.38062317   172.22201942
 C     14  13  12     2.924018224171   118.48541959    67.06183031
 N     15  14  13     2.560527612226   116.54554436   312.37034360
 C     16  15  14     2.749530654244   120.46430192   197.85226700
 C     17  16  15     2.874471310637   114.38175269   180.82507753
 C     18  17  16     2.960644111379   114.18703738   314.69745650
 C     19  18  17     2.877801099805   107.51921139   131.12987056
 N     20  19  18     2.558383529113   116.00004569   255.79738528
 C     21  20  19     2.754815277852   120.98000187   162.95209905
 C     22  21  20     2.923334404506   108.96091509   251.05737282
 N     23  22  21     2.556162497053   115.14356086    52.71628919
 C     24  23  22     2.764821375866   121.47001284   172.83870475
 C     25  24  23     2.882781923943   109.92999249   192.01401530
 O     23  22  21     2.348624628936   122.03779909   230.33503670
 C     22  21  20     2.891684140533   114.02439843   124.92983403
 C     28  22  21     2.899916172059   114.40438015   312.71266806
 C     29  28  22     2.895739577203   109.74879562   174.36585656
 C     29  28  22     2.897161525345   112.33810477   298.59489503
 O     20  19  18     2.347469089858   119.96624090    69.83705960
 C     19  18  17     2.911076686943   112.58516716   254.36954045
 C     33  19  18     2.860490958133   115.39979918   191.53327529
 C     34  33  19     2.881085587298   114.75286459   189.09188865
 C     35  34  33     2.891403302143   112.41115604   181.96045148
 C     36  35  34     2.891391436159   113.25213294   179.47398047
 C     37  36  35     2.891613157132   113.45949995   180.24893248
 C     38  37  36     2.891845102989   113.51104419   179.68861557
 C     39  38  37     2.891586700359   113.54495099   180.09364074
 C     40  39  38     2.893142049553   113.58902819   179.89233430
 C     41  40  39     2.890989512889   113.13635631   180.04272262
 O     33  19  18     2.301451298570   121.41914858    13.38085672
 O     18  17  16     2.735038303571   108.56290243    80.42211587
 O     15  14  13     2.327402997770   119.41378435   139.31739146
 C     14  13  12     2.923122922970   109.93225384   299.70725078
 C     46  14  13     2.887118660221   113.93880148   185.76977917
 O     12  11  10     2.371238154491   121.94296625   255.01343483
 C     11  10   2     2.894279064431   113.29086380   155.66820023
 C     49  11  10     2.892232213142   111.94133753   315.25110301
 C     49  11  10     2.896546754669   109.69410808   191.21632256
 H      3   2   1     2.079190953626   105.58293299    26.39546379
 H      4   3   2     2.070855740464   111.72184911    86.90471146
 H      4   3   2     2.079270234246   109.44805531   327.25390283
 H      5   4   3     2.073699303564   113.01034842   159.59691166
 H      5   4   3     2.079221800588   110.20256582   280.58080280
 H      6   5   4     2.081613631490   112.25438959    85.19953696
 H      6   5   4     2.074486169650   112.13536359   207.88635092
 H     10   2   1     1.938016644961   119.70401906   189.19571981
[...]
freq.      88.61  E(vib)   ...       0.47 
freq.      93.18  E(vib)   ...       0.47 
freq.      96.56  E(vib)   ...       0.47 
freq.      97.45  E(vib)   ...       0.46 
freq.     105.37  E(vib)   ...       0.45 
freq.     111.61  E(vib)   ...       0.45 
freq.     115.88  E(vib)   ...       0.44 
freq.     122.92  E(vib)   ...       0.43 
freq.     124.00  E(vib)   ...       0.43 
freq.     126.36  E(vib)   ...       0.43 
freq.     132.60  E(vib)   ...       0.42 
freq.     134.86  E(vib)   ...       0.42 
freq.     139.93  E(vib)   ...       0.41 
freq.     151.80  E(vib)   ...       0.40 
freq.     153.68  E(vib)   ...       0.40 
freq.     155.00  E(vib)   ...       0.40 
freq.     160.42  E(vib)   ...       0.39 
freq.     163.86  E(vib)   ...       0.39 
freq.     174.54  E(vib)   ...       0.38 
freq.     182.39  E(vib)   ...       0.37 
freq.     191.88  E(vib)   ...       0.36 
freq.     203.99  E(vib)   ...       0.35 
freq.     206.59  E(vib)   ...       0.35 
freq.     207.69  E(vib)   ...       0.34 
freq.     213.02  E(vib)   ...       0.34 
freq.     215.39  E(vib)   ...       0.34 
freq.     217.05  E(vib)   ...       0.34 
freq.     225.64  E(vib)   ...       0.33 
freq.     226.55  E(vib)   ...       0.33 
freq.     232.79  E(vib)   ...       0.32 
freq.     235.27  E(vib)   ...       0.32 
freq.     237.15  E(vib)   ...       0.32 
freq.     242.16  E(vib)   ...       0.31 
freq.     248.14  E(vib)   ...       0.31 
freq.     253.47  E(vib)   ...       0.30 
freq.     256.91  E(vib)   ...       0.30 
freq.     260.36  E(vib)   ...       0.30 
freq.     276.30  E(vib)   ...       0.28 
freq.     280.69  E(vib)   ...       0.28 
freq.     285.89  E(vib)   ...       0.27 
freq.     288.79  E(vib)   ...       0.27 
freq.     297.83  E(vib)   ...       0.27 
freq.     309.88  E(vib)   ...       0.26 
freq.     319.45  E(vib)   ...       0.25 
freq.     327.44  E(vib)   ...       0.24 
freq.     331.43  E(vib)   ...       0.24 
freq.     342.51  E(vib)   ...       0.23 
freq.     346.71  E(vib)   ...       0.23 
freq.     355.84  E(vib)   ...       0.22 
freq.     363.64  E(vib)   ...       0.22 
freq.     386.82  E(vib)   ...       0.20 
freq.     386.98  E(vib)   ...       0.20 
freq.     396.77  E(vib)   ...       0.20 
freq.     398.35  E(vib)   ...       0.20 
freq.     404.83  E(vib)   ...       0.19 
freq.     409.72  E(vib)   ...       0.19 
freq.     419.94  E(vib)   ...       0.18 
freq.     446.34  E(vib)   ...       0.17 
freq.     448.81  E(vib)   ...       0.17 
freq.     452.96  E(vib)   ...       0.16 
freq.     456.32  E(vib)   ...       0.16 
freq.     461.58  E(vib)   ...       0.16 
freq.     474.76  E(vib)   ...       0.15 
freq.     497.26  E(vib)   ...       0.14 
freq.     516.26  E(vib)   ...       0.13 
freq.     530.75  E(vib)   ...       0.13 
freq.     546.07  E(vib)   ...       0.12 
freq.     564.59  E(vib)   ...       0.11 
freq.     583.51  E(vib)   ...       0.11 
freq.     585.05  E(vib)   ...       0.11 
freq.     595.69  E(vib)   ...       0.10 
freq.     609.54  E(vib)   ...       0.10 
freq.     636.02  E(vib)   ...       0.09 
freq.     640.78  E(vib)   ...       0.09 
freq.     666.26  E(vib)   ...       0.08 
freq.     670.58  E(vib)   ...       0.08 
freq.     686.96  E(vib)   ...       0.07 
freq.     700.01  E(vib)   ...       0.07 
freq.     701.97  E(vib)   ...       0.07 
freq.     711.66  E(vib)   ...       0.07 
freq.     715.33  E(vib)   ...       0.07 
freq.     721.83  E(vib)   ...       0.07 
freq.     727.17  E(vib)   ...       0.06 
freq.     734.02  E(vib)   ...       0.06 
freq.     739.18  E(vib)   ...       0.06 
freq.     741.95  E(vib)   ...       0.06 
freq.     754.34  E(vib)   ...       0.06 
freq.     760.68  E(vib)   ...       0.06 
freq.     768.97  E(vib)   ...       0.06 
freq.     771.56  E(vib)   ...       0.05 
freq.     786.74  E(vib)   ...       0.05 
freq.     788.10  E(vib)   ...       0.05 
freq.     794.19  E(vib)   ...       0.05 
freq.     802.83  E(vib)   ...       0.05 
freq.     807.37  E(vib)   ...       0.05 
freq.     827.00  E(vib)   ...       0.04 
freq.     836.25  E(vib)   ...       0.04 
freq.     840.93  E(vib)   ...       0.04 
freq.     848.90  E(vib)   ...       0.04 
freq.     851.43  E(vib)   ...       0.04 
freq.     857.17  E(vib)   ...       0.04 
freq.     859.50  E(vib)   ...       0.04 
freq.     877.22  E(vib)   ...       0.04 
freq.     878.37  E(vib)   ...       0.04 
freq.     883.53  E(vib)   ...       0.04 
freq.     885.60  E(vib)   ...       0.04 
freq.     896.72  E(vib)   ...       0.03 
freq.     905.00  E(vib)   ...       0.03 
freq.     905.12  E(vib)   ...       0.03 
freq.     910.00  E(vib)   ...       0.03 
freq.     911.90  E(vib)   ...       0.03 
freq.     921.64  E(vib)   ...       0.03 
freq.     932.09  E(vib)   ...       0.03 
freq.     934.19  E(vib)   ...       0.03 
freq.     939.47  E(vib)   ...       0.03 
freq.     942.22  E(vib)   ...       0.03 
freq.     945.34  E(vib)   ...       0.03 
freq.     948.26  E(vib)   ...       0.03 
freq.     953.00  E(vib)   ...       0.03 
freq.     967.35  E(vib)   ...       0.03 
freq.     970.06  E(vib)   ...       0.03 
freq.     979.21  E(vib)   ...       0.03 
freq.     981.16  E(vib)   ...       0.02 
freq.     989.72  E(vib)   ...       0.02 
freq.     993.84  E(vib)   ...       0.02 
freq.    1002.25  E(vib)   ...       0.02 
freq.    1019.80  E(vib)   ...       0.02 
freq.    1020.47  E(vib)   ...       0.02 
freq.    1022.12  E(vib)   ...       0.02 
freq.    1024.54  E(vib)   ...       0.02 
freq.    1026.22  E(vib)   ...       0.02 
freq.    1031.99  E(vib)   ...       0.02 
freq.    1043.96  E(vib)   ...       0.02 
freq.    1049.13  E(vib)   ...       0.02 
freq.    1050.75  E(vib)   ...       0.02 
freq.    1051.77  E(vib)   ...       0.02 
freq.    1060.38  E(vib)   ...       0.02 
freq.    1069.78  E(vib)   ...       0.02 
freq.    1072.95  E(vib)   ...       0.02 
freq.    1078.56  E(vib)   ...       0.02 
freq.    1086.30  E(vib)   ...       0.02 
freq.    1087.52  E(vib)   ...       0.02 
freq.    1093.98  E(vib)   ...       0.02 
freq.    1098.07  E(vib)   ...       0.02 
freq.    1102.12  E(vib)   ...       0.02 
freq.    1116.10  E(vib)   ...       0.01 
freq.    1117.56  E(vib)   ...       0.01 
freq.    1119.34  E(vib)   ...       0.01 
freq.    1129.52  E(vib)   ...       0.01 
freq.    1133.27  E(vib)   ...       0.01 
freq.    1137.43  E(vib)   ...       0.01 
freq.    1141.75  E(vib)   ...       0.01 
freq.    1151.40  E(vib)   ...       0.01 
freq.    1162.04  E(vib)   ...       0.01 
freq.    1166.31  E(vib)   ...       0.01 
freq.    1169.10  E(vib)   ...       0.01 
freq.    1170.26  E(vib)   ...       0.01 
freq.    1177.87  E(vib)   ...       0.01 
freq.    1190.69  E(vib)   ...       0.01 
freq.    1193.39  E(vib)   ...       0.01 
freq.    1201.99  E(vib)   ...       0.01 
freq.    1209.11  E(vib)   ...       0.01 
freq.    1217.99  E(vib)   ...       0.01 
freq.    1224.52  E(vib)   ...       0.01 
freq.    1227.50  E(vib)   ...       0.01 
freq.    1228.10  E(vib)   ...       0.01 
freq.    1234.43  E(vib)   ...       0.01 
freq.    1238.35  E(vib)   ...       0.01 
freq.    1240.08  E(vib)   ...       0.01 
freq.    1241.44  E(vib)   ...       0.01 
freq.    1247.09  E(vib)   ...       0.01 
freq.    1254.93  E(vib)   ...       0.01 
freq.    1255.75  E(vib)   ...       0.01 
freq.    1257.55  E(vib)   ...       0.01 
freq.    1268.99  E(vib)   ...       0.01 
freq.    1272.57  E(vib)   ...       0.01 
freq.    1274.34  E(vib)   ...       0.01 
freq.    1275.17  E(vib)   ...       0.01 
freq.    1278.96  E(vib)   ...       0.01 
freq.    1282.94  E(vib)   ...       0.01 
freq.    1284.35  E(vib)   ...       0.01 
freq.    1287.59  E(vib)   ...       0.01 
freq.    1288.46  E(vib)   ...       0.01 
freq.    1291.60  E(vib)   ...       0.01 
freq.    1294.74  E(vib)   ...       0.01 
freq.    1295.81  E(vib)   ...       0.01 
freq.    1296.19  E(vib)   ...       0.01 
freq.    1296.89  E(vib)   ...       0.01 
freq.    1300.84  E(vib)   ...       0.01 
freq.    1304.92  E(vib)   ...       0.01 
freq.    1306.95  E(vib)   ...       0.01 
freq.    1308.85  E(vib)   ...       0.01 
freq.    1311.83  E(vib)   ...       0.01 
freq.    1316.35  E(vib)   ...       0.01 
freq.    1320.85  E(vib)   ...       0.01 
freq.    1322.33  E(vib)   ...       0.01 
freq.    1328.56  E(vib)   ...       0.01 
freq.    1330.04  E(vib)   ...       0.01 
freq.    1335.61  E(vib)   ...       0.01 
freq.    1337.38  E(vib)   ...       0.01 
freq.    1341.15  E(vib)   ...       0.01 
freq.    1342.38  E(vib)   ...       0.01 
freq.    1347.29  E(vib)   ...       0.01 
freq.    1348.68  E(vib)   ...       0.01 
freq.    1350.92  E(vib)   ...       0.01 
freq.    1351.90  E(vib)   ...       0.01 
freq.    1352.79  E(vib)   ...       0.01 
freq.    1352.91  E(vib)   ...       0.01 
freq.    1360.21  E(vib)   ...       0.01 
freq.    1363.78  E(vib)   ...       0.01 
freq.    1373.32  E(vib)   ...       0.01 
freq.    1373.61  E(vib)   ...       0.01 
freq.    1374.76  E(vib)   ...       0.01 
freq.    1396.75  E(vib)   ...       0.00 
freq.    1397.41  E(vib)   ...       0.00 
freq.    1404.23  E(vib)   ...       0.00 
freq.    1431.06  E(vib)   ...       0.00 
freq.    1433.41  E(vib)   ...       0.00 
freq.    1433.77  E(vib)   ...       0.00 
freq.    1436.75  E(vib)   ...       0.00 
freq.    1437.23  E(vib)   ...       0.00 
freq.    1439.34  E(vib)   ...       0.00 
freq.    1441.38  E(vib)   ...       0.00 
freq.    1442.59  E(vib)   ...       0.00 
freq.    1442.91  E(vib)   ...       0.00 
freq.    1444.05  E(vib)   ...       0.00 
freq.    1445.86  E(vib)   ...       0.00 
freq.    1446.22  E(vib)   ...       0.00 
freq.    1447.06  E(vib)   ...       0.00 
freq.    1448.06  E(vib)   ...       0.00 
freq.    1448.57  E(vib)   ...       0.00 
freq.    1449.80  E(vib)   ...       0.00 
freq.    1451.01  E(vib)   ...       0.00 
freq.    1453.14  E(vib)   ...       0.00 
freq.    1453.36  E(vib)   ...       0.00 
freq.    1454.82  E(vib)   ...       0.00 
freq.    1455.47  E(vib)   ...       0.00 
freq.    1457.91  E(vib)   ...       0.00 
freq.    1460.37  E(vib)   ...       0.00 
freq.    1464.89  E(vib)   ...       0.00 
freq.    1465.03  E(vib)   ...       0.00 
freq.    1467.70  E(vib)   ...       0.00 
freq.    1479.58  E(vib)   ...       0.00 
freq.    1492.76  E(vib)   ...       0.00 
freq.    1511.31  E(vib)   ...       0.00 
freq.    1525.09  E(vib)   ...       0.00 
freq.    1540.70  E(vib)   ...       0.00 
freq.    1553.99  E(vib)   ...       0.00 
freq.    1615.06  E(vib)   ...       0.00 
freq.    1633.16  E(vib)   ...       0.00 
freq.    1641.14  E(vib)   ...       0.00 
freq.    1647.94  E(vib)   ...       0.00 
freq.    1657.70  E(vib)   ...       0.00 
freq.    1685.87  E(vib)   ...       0.00 
freq.    1722.19  E(vib)   ...       0.00 
freq.    2924.61  E(vib)   ...       0.00 
freq.    2925.43  E(vib)   ...       0.00 
freq.    2926.23  E(vib)   ...       0.00 
freq.    2932.48  E(vib)   ...       0.00 
freq.    2936.04  E(vib)   ...       0.00 
freq.    2937.95  E(vib)   ...       0.00 
freq.    2939.97  E(vib)   ...       0.00 
freq.    2942.20  E(vib)   ...       0.00 
freq.    2944.66  E(vib)   ...       0.00 
freq.    2946.15  E(vib)   ...       0.00 
freq.    2948.27  E(vib)   ...       0.00 
freq.    2950.13  E(vib)   ...       0.00 
freq.    2953.14  E(vib)   ...       0.00 
freq.    2953.49  E(vib)   ...       0.00 
freq.    2956.65  E(vib)   ...       0.00 
freq.    2959.99  E(vib)   ...       0.00 
freq.    2962.26  E(vib)   ...       0.00 
freq.    2962.59  E(vib)   ...       0.00 
freq.    2964.37  E(vib)   ...       0.00 
freq.    2964.83  E(vib)   ...       0.00 
freq.    2966.68  E(vib)   ...       0.00 
freq.    2968.10  E(vib)   ...       0.00 
freq.    2969.55  E(vib)   ...       0.00 
freq.    2970.81  E(vib)   ...       0.00 
freq.    2972.66  E(vib)   ...       0.00 
freq.    2975.45  E(vib)   ...       0.00 
freq.    2977.67  E(vib)   ...       0.00 
freq.    2979.00  E(vib)   ...       0.00 
freq.    2980.68  E(vib)   ...       0.00 
freq.    2981.36  E(vib)   ...       0.00 
freq.    2983.55  E(vib)   ...       0.00 
freq.    2984.30  E(vib)   ...       0.00 
freq.    2987.98  E(vib)   ...       0.00 
freq.    2992.24  E(vib)   ...       0.00 
freq.    2996.70  E(vib)   ...       0.00 
freq.    3002.22  E(vib)   ...       0.00 
freq.    3006.04  E(vib)   ...       0.00 
freq.    3008.10  E(vib)   ...       0.00 
freq.    3013.47  E(vib)   ...       0.00 
freq.    3013.84  E(vib)   ...       0.00 
freq.    3017.53  E(vib)   ...       0.00 
freq.    3019.94  E(vib)   ...       0.00 
freq.    3021.36  E(vib)   ...       0.00 
freq.    3024.57  E(vib)   ...       0.00 
freq.    3026.47  E(vib)   ...       0.00 
freq.    3027.52  E(vib)   ...       0.00 
freq.    3028.15  E(vib)   ...       0.00 
freq.    3028.90  E(vib)   ...       0.00 
freq.    3032.00  E(vib)   ...       0.00 
freq.    3035.19  E(vib)   ...       0.00 
freq.    3039.10  E(vib)   ...       0.00 
freq.    3041.32  E(vib)   ...       0.00 
freq.    3047.65  E(vib)   ...       0.00 
freq.    3048.22  E(vib)   ...       0.00 
freq.    3049.52  E(vib)   ...       0.00 
freq.    3051.51  E(vib)   ...       0.00 
freq.    3057.17  E(vib)   ...       0.00 
freq.    3068.92  E(vib)   ...       0.00 
freq.    3241.14  E(vib)   ...       0.00 
freq.    3268.34  E(vib)   ...       0.00 
freq.    3273.14  E(vib)   ...       0.00 
freq.    3323.62  E(vib)   ...       0.00 
freq.    3349.98  E(vib)   ...       0.00 
freq.    3573.27  E(vib)   ...       0.00 

------------
INNER ENERGY
------------

The inner energy is: U= E(el) + E(ZPE) + E(vib) + E(rot) + E(trans)
    E(el)   - is the total energy from the electronic structure calculation
              = E(kin-el) + E(nuc-el) + E(el-el) + E(nuc-nuc)
    E(ZPE)  - the the zero temperature vibrational energy from the frequency calculation
    E(vib)  - the the finite temperature correction to E(ZPE) due to population
              of excited vibrational states
    E(rot)  - is the rotational thermal energy
    E(trans)- is the translational thermal energy

Summary of contributions to the inner energy U:
Electronic energy                ...  -2380.08749429 Eh
Zero point energy                ...      0.97792981 Eh     613.66 kcal/mol
Thermal vibrational correction   ...      0.05564884 Eh      34.92 kcal/mol
Thermal rotational correction    ...      0.00141627 Eh       0.89 kcal/mol
Thermal translational correction ...      0.00141627 Eh       0.89 kcal/mol
-----------------------------------------------------------------------
Total thermal energy                  -2379.05108309 Eh


Summary of corrections to the electronic energy:
(perhaps to be used in another calculation)
Total thermal correction                  0.05848139 Eh      36.70 kcal/mol
Non-thermal (ZPE) correction              0.97792981 Eh     613.66 kcal/mol
-----------------------------------------------------------------------
Total correction                          1.03641120 Eh     650.36 kcal/mol


--------
ENTHALPY
--------

The enthalpy is H = U + kB*T
                kB is Boltzmann's constant
Total free energy                 ...  -2379.05108309 Eh 
Thermal Enthalpy correction       ...      0.00094421 Eh       0.59 kcal/mol
-----------------------------------------------------------------------
Total Enthalpy                    ...  -2379.05013888 Eh


Note: Only C1 symmetry has been detected, increase convergence thresholds 
      if your molecule has a higher symmetry. Symmetry factor of 1.0 is   
      used for the rotational entropy correction. 
 

Note: Rotational entropy computed according to Herzberg 
Infrared and Raman Spectra, Chapter V,1, Van Nostrand Reinhold, 1945 
Point Group:  C1, Symmetry Number:   1  
Rotational constants in cm-1:     0.002885     0.000885     0.000836 

Vibrational entropy computed according to the QRRHO of S. Grimme
Chem.Eur.J. 2012 18 9955


-------
ENTROPY
-------

The entropy contributions are T*S = T*(S(el)+S(vib)+S(rot)+S(trans))
     S(el)   - electronic entropy
     S(vib)  - vibrational entropy
     S(rot)  - rotational entropy
     S(trans)- translational entropy
The entropies will be listed as mutliplied by the temperature to get
units of energy

Electronic entropy                ...      0.00000000 Eh      0.00 kcal/mol
Vibrational entropy               ...      0.10379689 Eh     65.13 kcal/mol
Rotational entropy                ...      0.01893606 Eh     11.88 kcal/mol
Translational entropy             ...      0.02166895 Eh     13.60 kcal/mol
-----------------------------------------------------------------------
Final entropy term                ...      0.14440190 Eh     90.61 kcal/mol

In case the symmetry of your molecule has not been determined correctly
or in case you have a reason to use a different symmetry number we print 
out the resulting rotational entropy values for sn=1,12 :
 --------------------------------------------------------
|  sn= 1 | S(rot)=       0.01893606 Eh     11.88 kcal/mol|
|  sn= 2 | S(rot)=       0.01828160 Eh     11.47 kcal/mol|
|  sn= 3 | S(rot)=       0.01789877 Eh     11.23 kcal/mol|
|  sn= 4 | S(rot)=       0.01762715 Eh     11.06 kcal/mol|
|  sn= 5 | S(rot)=       0.01741646 Eh     10.93 kcal/mol|
|  sn= 6 | S(rot)=       0.01724431 Eh     10.82 kcal/mol|
|  sn= 7 | S(rot)=       0.01709877 Eh     10.73 kcal/mol|
|  sn= 8 | S(rot)=       0.01697269 Eh     10.65 kcal/mol|
|  sn= 9 | S(rot)=       0.01686148 Eh     10.58 kcal/mol|
|  sn=10 | S(rot)=       0.01676200 Eh     10.52 kcal/mol|
|  sn=11 | S(rot)=       0.01667201 Eh     10.46 kcal/mol|
|  sn=12 | S(rot)=       0.01658986 Eh     10.41 kcal/mol|
 --------------------------------------------------------


-------------------
GIBBS FREE ENERGY
-------------------

The Gibbs free energy is G = H - T*S

Total enthalpy                    ...  -2379.05013888 Eh 
Total entropy correction          ...     -0.14440190 Eh    -90.61 kcal/mol
-----------------------------------------------------------------------
Final Gibbs free energy         ...  -2379.19454078 Eh

For completeness - the Gibbs free energy minus the electronic energy
G-E(el)                           ...      0.89295351 Eh    560.34 kcal/mol

--------------------------------------------------------------------------
WARNING: No preset parameters were found for the device that Open MPI
detected:

  Local host:            eu-g1-045-3
  Device name:           mlx5_0
  Device vendor ID:      0x02c9
  Device vendor part ID: 4123

Default device parameters will be used, which may result in lower
performance.  You can edit any of the files specified by the
btl_openib_device_param_files MCA parameter to set values for your
device.

NOTE: You can turn off this warning by setting the MCA parameter
      btl_openib_warn_no_device_params_found to 0.
--------------------------------------------------------------------------
--------------------------------------------------------------------------
WARNING: There was an error initializing an OpenFabrics device.

  Local host:   eu-g1-045-3
  Local device: mlx5_0
--------------------------------------------------------------------------

Timings for individual modules:

Sum of individual times         ...    32311.435 sec (= 538.524 min)
GTO integral calculation        ...       12.076 sec (=   0.201 min)   0.0 %
SCF iterations                  ...      428.377 sec (=   7.140 min)   1.3 %
SCF Gradient evaluation         ...       74.480 sec (=   1.241 min)   0.2 %
Geometry relaxation             ...        3.788 sec (=   0.063 min)   0.0 %
Analytical frequency calculation...    31792.714 sec (= 529.879 min)  98.4 %
                             ****ORCA TERMINATED NORMALLY****
TOTAL RUN TIME: 0 days 8 hours 58 minutes 48 seconds 449 msec
