
                                 *****************
                                 * O   R   C   A *
                                 *****************

           --- An Ab Initio, DFT and Semiempirical electronic structure package ---

                  #######################################################
                  #                        -***-                        #
                  #          Department of theory and spectroscopy      #
                  #               Directorship: Frank Neese             #
                  #        Max Planck Institute fuer Kohlenforschung    #
                  #                Kaiser Wilhelm Platz 1               #
                  #                 D-45470 Muelheim/Ruhr               #
                  #                      Germany                        #
                  #                                                     #
                  #                  All rights reserved                #
                  #                        -***-                        #
                  #######################################################


                         Program Version 4.2.0 -  RELEASE  -


 With contributions from (in alphabetic order):
   Daniel Aravena         : Magnetic Suceptibility
   Michael Atanasov       : Ab Initio Ligand Field Theory (pilot matlab implementation)
   Alexander A. Auer      : GIAO ZORA, VPT2
   Ute Becker             : Parallelization
   Giovanni Bistoni       : ED, misc. LED, open-shell LED, HFLED
   Martin Brehm           : Molecular dynamics
   Dmytro Bykov           : SCF Hessian
   Vijay G. Chilkuri      : MRCI spin determinant printing, contributions to CSF-ICE
   Dipayan Datta          : RHF DLPNO-CCSD density
   Achintya Kumar Dutta   : EOM-CC, STEOM-CC
   Dmitry Ganyushin       : Spin-Orbit,Spin-Spin,Magnetic field MRCI
   Miquel Garcia          : C-PCM Hessian, Gaussian charge scheme
   Yang Guo               : DLPNO-NEVPT2, CIM, IAO-localization
   Andreas Hansen         : Spin unrestricted coupled pair/coupled cluster methods
   Benjamin Helmich-Paris : CASSCF linear response (MC-RPA)
   Lee Huntington         : MR-EOM, pCC
   Robert Izsak           : Overlap fitted RIJCOSX, COSX-SCS-MP3, EOM
   Christian Kollmar      : KDIIS, OOCD, Brueckner-CCSD(T), CCSD density
   Simone Kossmann        : Meta GGA functionals, TD-DFT gradient, OOMP2, MP2 Hessian
   Martin Krupicka        : AUTO-CI
   Lucas Lang             : DCDCAS
   Dagmar Lenk            : GEPOL surface, SMD
   Dimitrios Liakos       : Extrapolation schemes; Compound Job, initial MDCI parallelization
   Dimitrios Manganas     : Further ROCIS development; embedding schemes
   Dimitrios Pantazis     : SARC Basis sets
   Taras Petrenko         : DFT Hessian,TD-DFT gradient, ASA, ECA, R-Raman, ABS, FL, XAS/XES, NRVS
   Peter Pinski           : DLPNO-MP2, DLPNO-MP2 Gradient
   Christoph Reimann      : Effective Core Potentials
   Marius Retegan         : Local ZFS, SOC
   Christoph Riplinger    : Optimizer, TS searches, QM/MM, DLPNO-CCSD(T), (RO)-DLPNO pert. Triples
   Tobias Risthaus        : Range-separated hybrids, TD-DFT gradient, RPA, STAB
   Michael Roemelt        : Original ROCIS implementation
   Masaaki Saitow         : Open-shell DLPNO-CCSD energy and density
   Barbara Sandhoefer     : DKH picture change effects
   Avijit Sen             : IP-ROCIS
   Kantharuban Sivalingam : CASSCF convergence, NEVPT2, FIC-MRCI
   Bernardo de Souza      : ESD, SOC TD-DFT
   Georgi Stoychev        : AutoAux, RI-MP2 NMR
   Willem Van den Heuvel  : Paramagnetic NMR
   Boris Wezisla          : Elementary symmetry handling
   Frank Wennmohs         : Technical directorship


 We gratefully acknowledge several colleagues who have allowed us to
 interface, adapt or use parts of their codes:
   Stefan Grimme, W. Hujo, H. Kruse,             : VdW corrections, initial TS optimization,
                  C. Bannwarth                     DFT functionals, gCP, sTDA/sTD-DF
   Ed Valeev, F. Pavosevic, A. Kumar             : LibInt (2-el integral package), F12 methods
   Garnet Chan, S. Sharma, J. Yang, R. Olivares  : DMRG
   Ulf Ekstrom                                   : XCFun DFT Library
   Mihaly Kallay                                 : mrcc  (arbitrary order and MRCC methods)
   Andreas Klamt, Michael Diedenhofen            : otool_cosmo (COSMO solvation model)
   Jiri Pittner, Ondrej Demel                    : Mk-CCSD
   Frank Weinhold                                : gennbo (NPA and NBO analysis)
   Christopher J. Cramer and Donald G. Truhlar   : smd solvation model
   Lars Goerigk                                  : TD-DFT with DH, B97 family of functionals
   V. Asgeirsson, H. Jonsson                     : NEB implementation
   FAccTs GmbH                                   : IRC, NEB, NEB-TS, Multilevel, MM, QM/MM, CI optimization
   S Lehtola, MJT Oliveira, MAL Marques          : LibXC Library


 Your calculation uses the libint2 library for the computation of 2-el integrals
 For citations please refer to: http://libint.valeyev.net

 Your ORCA version has been built with support for libXC version: 4.2.3
 For citations please refer to: https://tddft.org/programs/libxc/

 This ORCA versions uses:
   CBLAS   interface :  Fast vector & matrix operations
   LAPACKE interface :  Fast linear algebra routines
   SCALAPACK package :  Parallel linear algebra routines




***************************************
The coordinates will be read from file: 42.xyz
***************************************


Your calculation utilizes the atom-pairwise dispersion correction
with the Becke-Johnson damping scheme (D3BJ)
Cite in your paper:
S.Grimme, S.Ehrlich, L.Goerigk, J Comput Chem, (2011), 32, 1456–1465 
S.Grimme, J.Antony, S.Ehrlich and H.Krieg, J.Chem.Phys., 132, (2010), 154104 
   

----- Orbital basis set information -----
Your calculation utilizes the basis: def2-TZVP
   F. Weigend and R. Ahlrichs, Phys. Chem. Chem. Phys. 7, 3297 (2005).

----- AuxJ basis set information -----
Your calculation utilizes the auxiliary basis: def2/J
   F. Weigend, Phys. Chem. Chem. Phys. 8, 1057 (2006).

================================================================================
                                        WARNINGS
                       Please study these warnings very carefully!
================================================================================


WARNING: Geometry Optimization
  ===> : Switching off AutoStart
         For restart on a previous wavefunction, please use MOREAD

INFO   : the flag for use of LIBINT has been found!

================================================================================
                                       INPUT FILE
================================================================================
NAME = 42.inp
|  1> !RI BP86 def2-tzvp def2/J D3BJ TIGHTSCF TightOpt Grid5 FinalGrid6 freq
|  2> %maxcore 4000
|  3> %pal nprocs 24
|  4> end
|  5> * xyzfile 0 1 42.xyz 
|  6> 
|  7>                          ****END OF INPUT****
================================================================================

                       *****************************
                       * Geometry Optimization Run *
                       *****************************

Geometry optimization settings:
Update method            Update   .... BFGS
Choice of coordinates    CoordSys .... Z-matrix Internals
Initial Hessian          InHess   .... Almoef's Model

Convergence Tolerances:
Energy Change            TolE     ....  1.0000e-06 Eh
Max. Gradient            TolMAXG  ....  1.0000e-04 Eh/bohr
RMS Gradient             TolRMSG  ....  3.0000e-05 Eh/bohr
Max. Displacement        TolMAXD  ....  1.0000e-03 bohr
RMS Displacement         TolRMSD  ....  6.0000e-04 bohr
Strict Convergence                ....  False
------------------------------------------------------------------------------
                        ORCA OPTIMIZATION COORDINATE SETUP
------------------------------------------------------------------------------

The optimization will be done in new redundant internal coordinates
Making redundant internal coordinates   ...  (new redundants) done
Evaluating the initial hessian          ...  (Almloef) done
Evaluating the coordinates              ...  done
Calculating the B-matrix                .... done
Calculating the G-matrix                .... done
Diagonalizing the G-matrix              .... done
Small eigenvalue found = 2.479e-04
Small eigenvalue found = 6.311e-04
Small eigenvalue found = 2.379e-03
Small eigenvalue found = 2.873e-03
Small eigenvalue found = 3.802e-03
Small eigenvalue found = 4.574e-03
Small eigenvalue found = 5.894e-03
Small eigenvalue found = 6.336e-03
Small eigenvalue found = 7.558e-03
Small eigenvalue found = 9.007e-03
Small eigenvalue found = 9.825e-03
Small eigenvalue found = 1.145e-02
Small eigenvalue found = 1.296e-02
Small eigenvalue found = 1.592e-02
Small eigenvalue found = 1.683e-02
Small eigenvalue found = 2.033e-02
Small eigenvalue found = 2.371e-02
Small eigenvalue found = 2.666e-02
Small eigenvalue found = 2.857e-02
The first mode is                       ....  326
The number of degrees of freedom        ....  339

    -----------------------------------------------------------------
                    Redundant Internal Coordinates


    -----------------------------------------------------------------
         Definition                    Initial Value    Approx d2E/dq
    -----------------------------------------------------------------
      1. B(C   1,O   0)                  1.2368         0.982263   
      2. B(C   2,C   1)                  1.5271         0.377544   
      3. B(C   3,C   2)                  1.5428         0.356472   
      4. B(C   4,C   3)                  1.5337         0.368556   
      5. B(C   5,C   4)                  1.5315         0.371464   
      6. B(N   6,C   2)                  1.4641         0.426317   
      7. B(N   6,C   5)                  1.4783         0.404508   
      8. B(C   7,N   6)                  1.3573         0.631053   
      9. B(O   8,C   7)                  1.2462         0.949083   
     10. B(N   9,C   1)                  1.3553         0.635592   
     11. B(C  10,N   9)                  1.4621         0.429415   
     12. B(C  11,C  10)                  1.5539         0.342145   
     13. B(N  12,C  11)                  1.3642         0.615323   
     14. B(C  13,N  12)                  1.4615         0.430285   
     15. B(C  14,C  13)                  1.5470         0.350945   
     16. B(N  15,C  14)                  1.3684         0.605765   
     17. B(C  16,N  15)                  1.4512         0.446922   
     18. B(C  17,C  16)                  1.5459         0.352438   
     19. B(C  18,C  17)                  1.5602         0.334284   
     20. B(C  19,C  18)                  1.5397         0.360455   
     21. B(N  20,C  19)                  1.3527         0.641766   
     22. B(C  21,N  20)                  1.4572         0.437214   
     23. B(C  22,C  21)                  1.5441         0.354703   
     24. B(N  23,C  22)                  1.3582         0.628885   
     25. B(C  24,N  23)                  1.4529         0.444076   
     26. B(C  24,C   7)                  1.5449         0.353662   
     27. B(C  25,C  24)                  1.5272         0.377501   
     28. B(O  26,C  22)                  1.2337         0.993574   
     29. B(C  27,C  21)                  1.5391         0.361330   
     30. B(C  28,C  27)                  1.5342         0.367824   
     31. B(C  29,C  28)                  1.5326         0.370088   
     32. B(C  30,C  28)                  1.5327         0.369843   
     33. B(O  31,O   0)                  4.4055         0.000008   
     34. B(O  31,C  19)                  1.2364         0.983776   
     35. B(C  32,C  18)                  1.5270         0.377744   
     36. B(C  33,C  32)                  1.5133         0.397253   
     37. B(C  34,C  33)                  1.5247         0.380894   
     38. B(C  35,C  34)                  1.5300         0.373546   
     39. B(C  36,C  35)                  1.5302         0.373313   
     40. B(C  37,C  36)                  1.5302         0.373351   
     41. B(C  38,C  37)                  1.5303         0.373142   
     42. B(C  39,C  38)                  1.5302         0.373344   
     43. B(C  40,C  39)                  1.5310         0.372215   
     44. B(C  41,C  40)                  1.5298         0.373791   
     45. B(O  42,C  32)                  1.2268         1.019054   
     46. B(O  43,C  17)                  1.4329         0.477921   
     47. B(O  44,C  14)                  1.2296         1.008817   
     48. B(C  45,C  13)                  1.5330         0.369453   
     49. B(C  46,C  45)                  1.5272         0.377386   
     50. B(O  47,C  11)                  1.2286         1.012551   
     51. B(C  48,C  10)                  1.5504         0.346547   
     52. B(C  49,C  48)                  1.5337         0.368490   
     53. B(C  50,C  48)                  1.5310         0.372175   
     54. B(H  51,C   2)                  1.1019         0.344740   
     55. B(H  52,C   3)                  1.0997         0.347484   
     56. B(H  53,C   3)                  1.0977         0.350073   
     57. B(H  54,C   4)                  1.0979         0.349834   
     58. B(H  55,C   4)                  1.0971         0.350791   
     59. B(H  56,C   5)                  1.0949         0.353622   
     60. B(H  57,C   5)                  1.1010         0.345778   
     61. B(H  58,N   9)                  1.0141         0.426219   
     62. B(H  59,C  10)                  1.1033         0.342917   
     63. B(H  60,N  12)                  1.0208         0.415810   
     64. B(H  61,C  13)                  1.1041         0.341924   
     65. B(H  62,N  15)                  1.0244         0.410385   
     66. B(H  63,H  56)                  3.5301         0.000009   
     67. B(H  63,C  16)                  1.0969         0.351107   
     68. B(H  64,C  16)                  1.1018         0.344760   
     69. B(H  65,C  17)                  1.1020         0.344588   
     70. B(H  66,C  18)                  1.1010         0.345855   
     71. B(H  67,N  20)                  1.0278         0.405356   
     72. B(H  68,C  21)                  1.1010         0.345786   
     73. B(H  69,N  23)                  1.0275         0.405818   
     74. B(H  70,C  24)                  1.1040         0.342073   
     75. B(H  71,C  25)                  1.0976         0.350223   
     76. B(H  72,H  60)                  4.4856         0.000000   
     77. B(H  72,C  25)                  1.0964         0.351723   
     78. B(H  73,C  25)                  1.0983         0.349318   
     79. B(H  74,C  27)                  1.1003         0.346666   
     80. B(H  75,C  27)                  1.0980         0.349619   
     81. B(H  76,C  28)                  1.1039         0.342158   
     82. B(H  77,C  29)                  1.0996         0.347595   
     83. B(H  78,C  29)                  1.0998         0.347410   
     84. B(H  79,C  29)                  1.1018         0.344826   
     85. B(H  80,H  56)                  4.7754         0.000000   
     86. B(H  80,C  30)                  1.0998         0.347410   
     87. B(H  81,C  30)                  1.1016         0.345079   
     88. B(H  82,C  30)                  1.0999         0.347230   
     89. B(H  83,C  33)                  1.1074         0.337855   
     90. B(H  84,C  33)                  1.1044         0.341550   
     91. B(H  85,C  34)                  1.1018         0.344836   
     92. B(H  86,C  34)                  1.1008         0.346093   
     93. B(H  87,C  35)                  1.1046         0.341252   
     94. B(H  88,C  35)                  1.1043         0.341686   
     95. B(H  89,C  36)                  1.1040         0.341997   
     96. B(H  90,C  36)                  1.1041         0.341874   
     97. B(H  91,C  37)                  1.1044         0.341526   
     98. B(H  92,C  37)                  1.1043         0.341691   
     99. B(H  93,C  38)                  1.1043         0.341658   
    100. B(H  94,C  38)                  1.1044         0.341567   
    101. B(H  95,C  39)                  1.1046         0.341307   
    102. B(H  96,C  39)                  1.1045         0.341386   
    103. B(H  97,C  40)                  1.1034         0.342818   
    104. B(H  98,C  40)                  1.1034         0.342770   
    105. B(H  99,C  41)                  1.0994         0.347828   
    106. B(H 100,C  41)                  1.1007         0.346181   
    107. B(H 101,C  41)                  1.1008         0.346147   
    108. B(H 102,H  73)                  2.6017         0.000267   
    109. B(H 102,O  43)                  0.9832         0.477478   
    110. B(H 103,C  45)                  1.0984         0.349180   
    111. B(H 104,C  45)                  1.0975         0.350290   
    112. B(H 105,C  46)                  1.0987         0.348726   
    113. B(H 106,C  46)                  1.1014         0.345276   
    114. B(H 107,C  46)                  1.0998         0.347414   
    115. B(H 108,C  48)                  1.0998         0.347406   
    116. B(H 109,C  49)                  1.0958         0.352493   
    117. B(H 110,C  49)                  1.1029         0.343373   
    118. B(H 111,C  49)                  1.0993         0.347975   
    119. B(H 112,C  50)                  1.0978         0.349870   
    120. B(H 113,C  50)                  1.0990         0.348380   
    121. B(H 114,C  50)                  1.1023         0.344224   
    122. A(O   0,C   1,N   9)          122.5933         0.467789   
    123. A(C   2,C   1,N   9)          115.2821         0.396607   
    124. A(O   0,C   1,C   2)          122.1182         0.428458   
    125. A(C   1,C   2,H  51)          108.9316         0.322567   
    126. A(N   6,C   2,H  51)          108.8877         0.327103   
    127. A(C   1,C   2,N   6)          111.0035         0.370021   
    128. A(C   1,C   2,C   3)          112.2232         0.361107   
    129. A(C   3,C   2,H  51)          112.0781         0.319550   
    130. A(C   3,C   2,N   6)          103.6049         0.366392   
    131. A(C   4,C   3,H  53)          113.2972         0.322105   
    132. A(C   4,C   3,H  52)          110.9333         0.321714   
    133. A(C   2,C   3,C   4)          103.6077         0.359627   
    134. A(C   2,C   3,H  53)          112.0590         0.320353   
    135. A(C   2,C   3,H  52)          108.9097         0.319964   
    136. A(H  52,C   3,H  53)          107.9637         0.287941   
    137. A(H  54,C   4,H  55)          108.5316         0.288337   
    138. A(C   3,C   4,H  55)          112.8420         0.322213   
    139. A(C   3,C   4,C   5)          104.0851         0.362162   
    140. A(C   3,C   4,H  54)          109.9386         0.322069   
    141. A(C   5,C   4,H  55)          112.1317         0.322628   
    142. A(C   5,C   4,H  54)          109.2207         0.322484   
    143. A(H  56,C   5,H  57)          108.8754         0.288174   
    144. A(C   4,C   5,N   6)          103.1274         0.365683   
    145. A(C   4,C   5,H  56)          111.1590         0.323054   
    146. A(N   6,C   5,H  57)          110.6589         0.324450   
    147. A(N   6,C   5,H  56)          110.0300         0.325648   
    148. A(C   4,C   5,H  57)          112.8907         0.321868   
    149. A(C   5,N   6,C   7)          128.9816         0.398375   
    150. A(C   2,N   6,C   7)          118.1938         0.402074   
    151. A(C   2,N   6,C   5)          112.8192         0.372095   
    152. A(O   8,C   7,C  24)          121.2183         0.420883   
    153. A(N   6,C   7,O   8)          120.5108         0.464245   
    154. A(N   6,C   7,C  24)          118.0065         0.391600   
    155. A(C   1,N   9,C  10)          122.6574         0.403096   
    156. A(C  10,N   9,H  58)          119.1130         0.336310   
    157. A(C   1,N   9,H  58)          118.1728         0.359263   
    158. A(C  48,C  10,H  59)          107.9183         0.317807   
    159. A(C  11,C  10,H  59)          106.2151         0.317145   
    160. A(N   9,C  10,C  11)          110.6401         0.364279   
    161. A(N   9,C  10,C  48)          114.4552         0.365077   
    162. A(N   9,C  10,H  59)          105.3726         0.327208   
    163. A(C  11,C  10,C  48)          111.6670         0.353415   
    164. A(N  12,C  11,O  47)          123.0138         0.467614   
    165. A(C  10,C  11,O  47)          121.7201         0.423267   
    166. A(C  10,C  11,N  12)          115.2089         0.387630   
    167. A(C  13,N  12,H  60)          116.9882         0.335042   
    168. A(C  11,N  12,C  13)          121.4778         0.400944   
    169. A(C  11,N  12,H  60)          119.4897         0.355791   
    170. A(C  14,C  13,C  45)          111.8557         0.358820   
    171. A(N  12,C  13,H  61)          104.7480         0.327160   
    172. A(C  14,C  13,H  61)          104.4539         0.318310   
    173. A(N  12,C  13,C  14)          113.1299         0.365993   
    174. A(C  45,C  13,H  61)          108.0016         0.320993   
    175. A(N  12,C  13,C  45)          113.8041         0.369234   
    176. A(C  13,C  14,N  15)          114.7587         0.388289   
    177. A(N  15,C  14,O  44)          122.7630         0.465959   
    178. A(C  13,C  14,O  44)          121.9949         0.424913   
    179. A(C  14,N  15,H  62)          119.8893         0.354058   
    180. A(C  16,N  15,H  62)          115.6160         0.336427   
    181. A(C  14,N  15,C  16)          122.2821         0.402521   
    182. A(H  63,C  16,H  64)          109.4195         0.287720   
    183. A(C  17,C  16,H  64)          108.3383         0.318960   
    184. A(N  15,C  16,H  63)          107.0085         0.330659   
    185. A(C  17,C  16,H  63)          109.7481         0.319911   
    186. A(N  15,C  16,C  17)          110.9691         0.368650   
    187. A(N  15,C  16,H  64)          111.3418         0.329664   
    188. A(O  43,C  17,H  65)          108.2107         0.333317   
    189. A(C  18,C  17,H  65)          109.5818         0.316198   
    190. A(C  16,C  17,H  65)          108.4936         0.318934   
    191. A(C  16,C  17,C  18)          110.8461         0.353033   
    192. A(C  18,C  17,O  43)          108.7545         0.369549   
    193. A(C  16,C  17,O  43)          110.9080         0.372927   
    194. A(C  19,C  18,H  66)          106.5813         0.320300   
    195. A(C  17,C  18,H  66)          106.2975         0.316387   
    196. A(C  17,C  18,C  32)          108.2094         0.357210   
    197. A(C  17,C  18,C  19)          108.3756         0.354381   
    198. A(C  19,C  18,C  32)          118.6534         0.361825   
    199. A(C  32,C  18,H  66)          108.0831         0.322765   
    200. A(C  18,C  19,N  20)          115.0972         0.394066   
    201. A(N  20,C  19,O  31)          125.0124         0.468751   
    202. A(C  18,C  19,O  31)          119.7735         0.425035   
    203. A(C  19,N  20,H  67)          114.7567         0.356796   
    204. A(C  19,N  20,C  21)          125.3663         0.405069   
    205. A(C  21,N  20,H  67)          119.8317         0.334514   
    206. A(C  27,C  21,H  68)          108.1339         0.320416   
    207. A(C  22,C  21,H  68)          104.5554         0.319449   
    208. A(N  20,C  21,H  68)          105.5126         0.328631   
    209. A(N  20,C  21,C  22)          113.7102         0.367667   
    210. A(C  22,C  21,C  27)          110.0786         0.358114   
    211. A(N  20,C  21,C  27)          114.1374         0.368837   
    212. A(C  21,C  22,N  23)          116.0290         0.391566   
    213. A(C  21,C  22,O  26)          120.0944         0.424565   
    214. A(N  23,C  22,O  26)          123.8765         0.467861   
    215. A(C  22,N  23,C  24)          121.8036         0.404733   
    216. A(C  24,N  23,H  69)          118.0248         0.335445   
    217. A(C  22,N  23,H  69)          119.9510         0.355638   
    218. A(C  25,C  24,H  70)          109.7755         0.322150   
    219. A(N  23,C  24,H  70)          104.7547         0.328891   
    220. A(C   7,C  24,H  70)          106.3876         0.318733   
    221. A(N  23,C  24,C  25)          111.1735         0.372622   
    222. A(C   7,C  24,N  23)          113.3444         0.368465   
    223. A(C   7,C  24,C  25)          111.0608         0.360613   
    224. A(H  71,C  25,H  73)          108.5295         0.288198   
    225. A(C  24,C  25,H  73)          111.2261         0.323259   
    226. A(H  71,C  25,H  72)          109.3116         0.288507   
    227. A(C  24,C  25,H  72)          110.8912         0.323623   
    228. A(C  24,C  25,H  71)          109.0988         0.323396   
    229. A(H  72,C  25,H  73)          107.7312         0.288390   
    230. A(C  28,C  27,H  75)          109.1009         0.321931   
    231. A(C  21,C  27,C  28)          114.3819         0.360335   
    232. A(H  74,C  27,H  75)          107.4586         0.287777   
    233. A(C  21,C  27,H  75)          108.7984         0.320994   
    234. A(C  28,C  27,H  74)          110.2170         0.321485   
    235. A(C  21,C  27,H  74)          106.6453         0.320549   
    236. A(C  29,C  28,C  30)          110.9586         0.362148   
    237. A(C  27,C  28,C  30)          109.5218         0.361769   
    238. A(C  27,C  28,C  29)          112.5219         0.361810   
    239. A(C  30,C  28,H  76)          107.7514         0.321084   
    240. A(C  29,C  28,H  76)          108.0848         0.321119   
    241. A(C  27,C  28,H  76)          107.8289         0.320797   
    242. A(C  28,C  29,H  79)          110.7959         0.321527   
    243. A(H  78,C  29,H  79)          107.6952         0.287253   
    244. A(H  77,C  29,H  79)          107.8997         0.287277   
    245. A(H  77,C  29,H  78)          107.1767         0.287612   
    246. A(C  28,C  29,H  78)          110.8837         0.321921   
    247. A(C  28,C  29,H  77)          112.1938         0.321949   
    248. A(H  81,C  30,H  82)          107.7259         0.287262   
    249. A(H  80,C  30,H  82)          108.0036         0.287565   
    250. A(C  28,C  30,H  82)          111.2391         0.321859   
    251. A(H  80,C  30,H  81)          107.8129         0.287286   
    252. A(C  28,C  30,H  81)          110.7846         0.321531   
    253. A(C  28,C  30,H  80)          111.1247         0.321886   
    254. A(C  33,C  32,O  42)          121.5876         0.435260   
    255. A(C  18,C  32,O  42)          123.4743         0.431336   
    256. A(C  18,C  32,C  33)          114.9234         0.367894   
    257. A(C  32,C  33,C  34)          114.8268         0.368419   
    258. A(C  34,C  33,H  84)          111.3916         0.322542   
    259. A(H  83,C  33,H  84)          104.4558         0.285580   
    260. A(C  32,C  33,H  84)          108.5001         0.324776   
    261. A(C  34,C  33,H  83)          110.8890         0.321968   
    262. A(C  32,C  33,H  83)          106.1411         0.324196   
    263. A(C  33,C  34,C  35)          112.5891         0.364554   
    264. A(H  85,C  34,H  86)          105.7543         0.287084   
    265. A(C  35,C  34,H  86)          110.1398         0.322211   
    266. A(C  33,C  34,H  86)          109.2098         0.323242   
    267. A(C  35,C  34,H  85)          109.8907         0.322019   
    268. A(C  33,C  34,H  85)          109.0214         0.323049   
    269. A(C  34,C  35,C  36)          113.1348         0.363303   
    270. A(H  87,C  35,H  88)          105.9342         0.286043   
    271. A(C  36,C  35,H  88)          109.2498         0.321503   
    272. A(C  34,C  35,H  88)          109.5303         0.321536   
    273. A(C  36,C  35,H  87)          109.2729         0.321436   
    274. A(C  34,C  35,H  87)          109.4652         0.321469   
    275. A(C  35,C  36,C  37)          113.4324         0.363271   
    276. A(H  89,C  36,H  90)          105.9262         0.286165   
    277. A(C  37,C  36,H  90)          109.3682         0.321537   
    278. A(C  35,C  36,H  90)          109.2727         0.321532   
    279. A(C  37,C  36,H  89)          109.3429         0.321556   
    280. A(C  35,C  36,H  89)          109.2248         0.321551   
    281. A(C  36,C  37,C  38)          113.4819         0.363242   
    282. A(H  91,C  37,H  92)          105.9136         0.286080   
    283. A(C  38,C  37,H  92)          109.2872         0.321479   
    284. A(C  36,C  37,H  92)          109.2893         0.321509   
    285. A(C  38,C  37,H  91)          109.2830         0.321454   
    286. A(C  36,C  37,H  91)          109.3080         0.321483   
    287. A(C  37,C  38,C  39)          113.5211         0.363241   
    288. A(H  93,C  38,H  94)          105.8982         0.286081   
    289. A(C  39,C  38,H  94)          109.2975         0.321489   
    290. A(C  37,C  38,H  94)          109.2826         0.321460   
    291. A(C  39,C  38,H  93)          109.2951         0.321503   
    292. A(C  37,C  38,H  93)          109.2648         0.321474   
    293. A(C  38,C  39,C  40)          113.5785         0.363087   
    294. A(H  95,C  39,H  96)          105.8660         0.286011   
    295. A(C  40,C  39,H  96)          109.2385         0.321302   
    296. A(C  38,C  39,H  96)          109.3121         0.321461   
    297. A(C  40,C  39,H  95)          109.2374         0.321290   
    298. A(C  38,C  39,H  95)          109.3204         0.321449   
    299. A(C  39,C  40,C  41)          113.1272         0.363161   
    300. A(H  97,C  40,H  98)          105.9382         0.286389   
    301. A(C  41,C  40,H  98)          109.6371         0.321737   
    302. A(C  39,C  40,H  98)          109.1268         0.321515   
    303. A(C  41,C  40,H  97)          109.6372         0.321744   
    304. A(C  39,C  40,H  97)          109.1198         0.321522   
    305. A(H 100,C  41,H 101)          107.4429         0.287265   
    306. A(H  99,C  41,H 101)          107.6876         0.287478   
    307. A(C  40,C  41,H 101)          111.0905         0.322254   
    308. A(H  99,C  41,H 100)          107.6862         0.287483   
    309. A(C  40,C  41,H 100)          111.0894         0.322259   
    310. A(C  40,C  41,H  99)          111.6521         0.322510   
    311. A(C  17,O  43,H 102)          103.9680         0.348970   
    312. A(C  13,C  45,C  46)          112.4738         0.363293   
    313. A(C  46,C  45,H 104)          110.8291         0.323390   
    314. A(C  13,C  45,H 104)          108.6269         0.322266   
    315. A(C  46,C  45,H 103)          110.9577         0.323222   
    316. A(C  13,C  45,H 103)          106.8320         0.322098   
    317. A(H 103,C  45,H 104)          106.8782         0.288188   
    318. A(H 106,C  46,H 107)          107.6100         0.287312   
    319. A(H 105,C  46,H 107)          107.6366         0.287759   
    320. A(C  45,C  46,H 107)          111.3988         0.322953   
    321. A(H 105,C  46,H 106)          107.7051         0.287481   
    322. A(C  45,C  46,H 106)          111.4904         0.322627   
    323. A(C  45,C  46,H 105)          110.8173         0.323153   
    324. A(C  50,C  48,H 108)          108.9293         0.322217   
    325. A(C  49,C  48,H 108)          108.6599         0.321692   
    326. A(C  10,C  48,H 108)          107.0660         0.318481   
    327. A(C  49,C  48,C  50)          110.4339         0.362270   
    328. A(C  10,C  48,C  50)          111.9009         0.358498   
    329. A(C  10,C  48,C  49)          109.7383         0.357892   
    330. A(H 110,C  49,H 111)          107.5691         0.287136   
    331. A(H 109,C  49,H 111)          108.2736         0.288315   
    332. A(C  48,C  49,H 111)          110.3493         0.321779   
    333. A(H 109,C  49,H 110)          108.9003         0.287715   
    334. A(C  48,C  49,H 110)          110.5649         0.321078   
    335. A(C  48,C  49,H 109)          111.0818         0.322459   
    336. A(H 113,C  50,H 114)          107.4289         0.287299   
    337. A(H 112,C  50,H 114)          108.1146         0.287491   
    338. A(C  48,C  50,H 114)          111.5017         0.321732   
    339. A(H 112,C  50,H 113)          107.5964         0.288031   
    340. A(C  48,C  50,H 113)          109.7308         0.322365   
    341. A(C  48,C  50,H 112)          112.2728         0.322590   
    342. D(H  51,C   2,C   1,N   9)     16.4061         0.010645   
    343. D(C   3,C   2,C   1,N   9)   -108.3013         0.010645   
    344. D(N   6,C   2,C   1,N   9)    136.2916         0.010645   
    345. D(N   6,C   2,C   1,O   0)    -44.6095         0.010645   
    346. D(C   3,C   2,C   1,O   0)     70.7977         0.010645   
    347. D(H  51,C   2,C   1,O   0)   -164.4950         0.010645   
    348. D(C   4,C   3,C   2,N   6)     28.1451         0.010209   
    349. D(H  53,C   3,C   2,H  51)    -92.1337         0.010209   
    350. D(H  53,C   3,C   2,C   1)     30.8175         0.010209   
    351. D(C   4,C   3,C   2,H  51)    145.3761         0.010209   
    352. D(H  53,C   3,C   2,N   6)    150.6353         0.010209   
    353. D(H  52,C   3,C   2,H  51)     27.2447         0.010209   
    354. D(C   4,C   3,C   2,C   1)    -91.6727         0.010209   
    355. D(H  52,C   3,C   2,C   1)    150.1959         0.010209   
    356. D(H  52,C   3,C   2,N   6)    -89.9863         0.010209   
    357. D(H  55,C   4,C   3,H  53)     80.3757         0.010864   
    358. D(H  55,C   4,C   3,H  52)    -41.2417         0.010864   
    359. D(H  54,C   4,C   3,H  52)   -162.5515         0.010864   
    360. D(H  55,C   4,C   3,C   2)   -157.9596         0.010864   
    361. D(H  54,C   4,C   3,H  53)    -40.9342         0.010864   
    362. D(C   5,C   4,C   3,C   2)    -36.1462         0.010864   
    363. D(H  54,C   4,C   3,C   2)     80.7306         0.010864   
    364. D(C   5,C   4,C   3,H  53)   -157.8109         0.010864   
    365. D(C   5,C   4,C   3,H  52)     80.5717         0.010864   
    366. D(N   6,C   5,C   4,C   3)     29.7303         0.011025   
    367. D(H  57,C   5,C   4,C   3)    -89.7225         0.011025   
    368. D(H  56,C   5,C   4,H  55)    -90.1214         0.011025   
    369. D(H  56,C   5,C   4,C   3)    147.5955         0.011025   
    370. D(H  57,C   5,C   4,H  54)    152.9023         0.011025   
    371. D(H  56,C   5,C   4,H  54)     30.2203         0.011025   
    372. D(H  57,C   5,C   4,H  55)     32.5606         0.011025   
    373. D(N   6,C   5,C   4,H  54)    -87.6449         0.011025   
    374. D(N   6,C   5,C   4,H  55)    152.0133         0.011025   
    375. D(C   5,N   6,C   2,C   3)     -9.9111         0.015495   
    376. D(C   7,N   6,C   5,H  57)    -72.3122         0.013964   
    377. D(C   7,N   6,C   5,H  56)     48.0498         0.013964   
    378. D(C   7,N   6,C   5,C   4)    166.7043         0.013964   
    379. D(C   2,N   6,C   5,H  57)    108.5561         0.013964   
    380. D(C   2,N   6,C   5,H  56)   -131.0819         0.013964   
    381. D(C   7,N   6,C   2,H  51)     51.4134         0.015495   
    382. D(C   2,N   6,C   5,C   4)    -12.4274         0.013964   
    383. D(C   7,N   6,C   2,C   3)    170.8547         0.015495   
    384. D(C   5,N   6,C   2,C   1)    110.7359         0.015495   
    385. D(C   7,N   6,C   2,C   1)    -68.4983         0.015495   
    386. D(C   5,N   6,C   2,H  51)   -129.3524         0.015495   
    387. D(C  24,C   7,N   6,C   5)     17.3787         0.032338   
    388. D(C  24,C   7,N   6,C   2)   -163.5293         0.032338   
    389. D(O   8,C   7,N   6,C   5)   -168.4562         0.032338   
    390. D(O   8,C   7,N   6,C   2)     10.6357         0.032338   
    391. D(H  58,N   9,C   1,O   0)    177.6035         0.032843   
    392. D(C  10,N   9,C   1,C   2)    179.4666         0.032843   
    393. D(H  58,N   9,C   1,C   2)     -3.3023         0.032843   
    394. D(C  10,N   9,C   1,O   0)      0.3725         0.032843   
    395. D(H  59,C  10,N   9,C   1)    170.4546         0.015721   
    396. D(C  48,C  10,N   9,H  58)    111.6442         0.015721   
    397. D(C  48,C  10,N   9,C   1)    -71.1498         0.015721   
    398. D(C  11,C  10,N   9,C   1)     56.0593         0.015721   
    399. D(H  59,C  10,N   9,H  58)     -6.7514         0.015721   
    400. D(C  11,C  10,N   9,H  58)   -121.1467         0.015721   
    401. D(O  47,C  11,C  10,N   9)   -148.6875         0.008884   
    402. D(N  12,C  11,C  10,H  59)    -79.8779         0.008884   
    403. D(N  12,C  11,C  10,C  48)    162.7156         0.008884   
    404. D(N  12,C  11,C  10,N   9)     33.9853         0.008884   
    405. D(O  47,C  11,C  10,H  59)     97.4493         0.008884   
    406. D(O  47,C  11,C  10,C  48)    -19.9572         0.008884   
    407. D(H  60,N  12,C  11,O  47)    166.7390         0.030623   
    408. D(H  60,N  12,C  11,C  10)    -15.9724         0.030623   
    409. D(C  13,N  12,C  11,O  47)      3.4895         0.030623   
    410. D(C  13,N  12,C  11,C  10)   -179.2219         0.030623   
    411. D(H  61,C  13,N  12,C  11)    177.4143         0.015785   
    412. D(H  61,C  13,N  12,H  60)     13.7654         0.015785   
    413. D(C  45,C  13,N  12,H  60)    131.5021         0.015785   
    414. D(C  45,C  13,N  12,C  11)    -64.8490         0.015785   
    415. D(C  14,C  13,N  12,C  11)     64.2662         0.015785   
    416. D(C  14,C  13,N  12,H  60)    -99.3827         0.015785   
    417. D(O  44,C  14,C  13,C  45)    -30.3319         0.009302   
    418. D(O  44,C  14,C  13,N  12)   -160.4383         0.009302   
    419. D(N  15,C  14,C  13,H  61)    -85.9918         0.009302   
    420. D(N  15,C  14,C  13,C  45)    157.4411         0.009302   
    421. D(O  44,C  14,C  13,H  61)     86.2352         0.009302   
    422. D(N  15,C  14,C  13,N  12)     27.3347         0.009302   
    423. D(H  62,N  15,C  14,O  44)    166.6620         0.029609   
    424. D(H  62,N  15,C  14,C  13)    -21.1778         0.029609   
    425. D(C  16,N  15,C  14,O  44)      4.3083         0.029609   
    426. D(C  16,N  15,C  14,C  13)    176.4685         0.029609   
    427. D(H  64,C  16,N  15,H  62)   -108.3872         0.017036   
    428. D(H  64,C  16,N  15,C  14)     54.6670         0.017036   
    429. D(H  63,C  16,N  15,H  62)     11.1381         0.017036   
    430. D(H  63,C  16,N  15,C  14)    174.1923         0.017036   
    431. D(C  17,C  16,N  15,C  14)    -66.0962         0.017036   
    432. D(C  17,C  16,N  15,H  62)    130.8495         0.017036   
    433. D(H  65,C  17,C  16,H  64)    -38.7579         0.009997   
    434. D(H  65,C  17,C  16,H  63)   -158.1742         0.009997   
    435. D(H  65,C  17,C  16,N  15)     83.7643         0.009997   
    436. D(O  43,C  17,C  16,H  64)   -157.4780         0.009997   
    437. D(O  43,C  17,C  16,H  63)     83.1056         0.009997   
    438. D(O  43,C  17,C  16,N  15)    -34.9559         0.009997   
    439. D(C  18,C  17,C  16,H  64)     81.6078         0.009997   
    440. D(C  18,C  17,C  16,H  63)    -37.8086         0.009997   
    441. D(C  18,C  17,C  16,N  15)   -155.8701         0.009997   
    442. D(H  66,C  18,C  17,H  65)     82.7446         0.009077   
    443. D(H  66,C  18,C  17,O  43)   -159.1510         0.009077   
    444. D(H  66,C  18,C  17,C  16)    -36.9717         0.009077   
    445. D(C  32,C  18,C  17,O  43)     84.9606         0.009077   
    446. D(C  32,C  18,C  17,C  16)   -152.8601         0.009077   
    447. D(C  32,C  18,C  17,H  65)    -33.1438         0.009077   
    448. D(C  19,C  18,C  17,H  65)   -163.0242         0.009077   
    449. D(C  19,C  18,C  17,O  43)    -44.9199         0.009077   
    450. D(C  19,C  18,C  17,C  16)     77.2594         0.009077   
    451. D(O  31,C  19,C  18,H  66)     36.4660         0.009768   
    452. D(O  31,C  19,C  18,C  32)    158.5907         0.009768   
    453. D(O  31,C  19,C  18,C  17)    -77.5782         0.009768   
    454. D(N  20,C  19,C  18,H  66)   -147.2696         0.009768   
    455. D(N  20,C  19,C  18,C  17)     98.6862         0.009768   
    456. D(N  20,C  19,C  18,C  32)    -25.1450         0.009768   
    457. D(H  67,N  20,C  19,O  31)   -179.8389         0.033539   
    458. D(H  67,N  20,C  19,C  18)      4.1204         0.033539   
    459. D(C  21,N  20,C  19,O  31)      2.6275         0.033539   
    460. D(C  21,N  20,C  19,C  18)   -173.4131         0.033539   
    461. D(H  68,C  21,N  20,H  67)     10.2110         0.016299   
    462. D(H  68,C  21,N  20,C  19)   -172.3710         0.016299   
    463. D(C  27,C  21,N  20,H  67)    128.7872         0.016299   
    464. D(C  27,C  21,N  20,C  19)    -53.7948         0.016299   
    465. D(C  22,C  21,N  20,H  67)   -103.7907         0.016299   
    466. D(C  22,C  21,N  20,C  19)     73.6273         0.016299   
    467. D(N  23,C  22,C  21,C  27)    131.6620         0.009484   
    468. D(N  23,C  22,C  21,N  20)      2.1635         0.009484   
    469. D(O  26,C  22,C  21,H  68)     67.5293         0.009484   
    470. D(O  26,C  22,C  21,C  27)    -48.4009         0.009484   
    471. D(O  26,C  22,C  21,N  20)   -177.8993         0.009484   
    472. D(N  23,C  22,C  21,H  68)   -112.4078         0.009484   
    473. D(H  69,N  23,C  22,O  26)   -177.2377         0.032098   
    474. D(H  69,N  23,C  22,C  21)      2.6968         0.032098   
    475. D(C  24,N  23,C  22,O  26)     -2.7434         0.032098   
    476. D(C  24,N  23,C  22,C  21)    177.1911         0.032098   
    477. D(H  70,C  24,N  23,H  69)    177.0575         0.016818   
    478. D(H  70,C  24,N  23,C  22)      2.4613         0.016818   
    479. D(C  25,C  24,N  23,H  69)     58.5538         0.016818   
    480. D(C  25,C  24,N  23,C  22)   -116.0424         0.016818   
    481. D(C   7,C  24,N  23,H  69)    -67.3840         0.016818   
    482. D(C   7,C  24,N  23,C  22)    118.0198         0.016818   
    483. D(H  70,C  24,C   7,O   8)   -119.6728         0.009433   
    484. D(H  70,C  24,C   7,N   6)     54.4489         0.009433   
    485. D(C  25,C  24,C   7,O   8)     -0.2564         0.009433   
    486. D(C  25,C  24,C   7,N   6)    173.8652         0.009433   
    487. D(N  23,C  24,C   7,O   8)    125.7414         0.009433   
    488. D(N  23,C  24,C   7,N   6)    -60.1370         0.009433   
    489. D(H  73,C  25,C  24,H  70)   -176.8597         0.011366   
    490. D(H  73,C  25,C  24,N  23)    -61.4238         0.011366   
    491. D(H  73,C  25,C  24,C   7)     65.7707         0.011366   
    492. D(H  72,C  25,C  24,H  70)     63.2756         0.011366   
    493. D(H  72,C  25,C  24,N  23)    178.7115         0.011366   
    494. D(H  72,C  25,C  24,C   7)    -54.0940         0.011366   
    495. D(H  71,C  25,C  24,H  70)    -57.1724         0.011366   
    496. D(H  71,C  25,C  24,N  23)     58.2635         0.011366   
    497. D(H  71,C  25,C  24,C   7)   -174.5421         0.011366   
    498. D(H  75,C  27,C  21,H  68)   -172.9584         0.010469   
    499. D(H  75,C  27,C  21,C  22)    -59.3005         0.010469   
    500. D(H  75,C  27,C  21,N  20)     69.9671         0.010469   
    501. D(H  74,C  27,C  21,H  68)    -57.3289         0.010469   
    502. D(H  74,C  27,C  21,C  22)     56.3291         0.010469   
    503. D(H  74,C  27,C  21,N  20)   -174.4033         0.010469   
    504. D(C  28,C  27,C  21,H  68)     64.7791         0.010469   
    505. D(C  28,C  27,C  21,C  22)    178.4370         0.010469   
    506. D(C  28,C  27,C  21,N  20)    -52.2954         0.010469   
    507. D(H  76,C  28,C  27,H  75)    -61.5967         0.010823   
    508. D(H  76,C  28,C  27,H  74)   -179.3632         0.010823   
    509. D(H  76,C  28,C  27,C  21)     60.5008         0.010823   
    510. D(C  30,C  28,C  27,H  75)     55.3931         0.010823   
    511. D(C  30,C  28,C  27,H  74)    -62.3735         0.010823   
    512. D(C  30,C  28,C  27,C  21)    177.4905         0.010823   
    513. D(C  29,C  28,C  27,H  75)    179.3010         0.010823   
    514. D(C  29,C  28,C  27,H  74)     61.5344         0.010823   
    515. D(C  29,C  28,C  27,C  21)    -58.6015         0.010823   
    516. D(H  79,C  29,C  28,C  30)     65.4493         0.010949   
    517. D(H  79,C  29,C  28,C  27)    -57.6584         0.010949   
    518. D(H  78,C  29,C  28,H  76)     63.8576         0.010949   
    519. D(H  78,C  29,C  28,C  30)    -54.0819         0.010949   
    520. D(H  78,C  29,C  28,C  27)   -177.1896         0.010949   
    521. D(H  77,C  29,C  28,H  76)    -55.9462         0.010949   
    522. D(H  77,C  29,C  28,C  30)   -173.8857         0.010949   
    523. D(H  79,C  29,C  28,H  76)   -176.6112         0.010949   
    524. D(H  77,C  29,C  28,C  27)     63.0066         0.010949   
    525. D(H  82,C  30,C  28,H  76)    -60.0510         0.010935   
    526. D(H  82,C  30,C  28,C  29)     58.0909         0.010935   
    527. D(H  82,C  30,C  28,C  27)   -177.0895         0.010935   
    528. D(H  81,C  30,C  28,H  76)   -179.8466         0.010935   
    529. D(H  81,C  30,C  28,C  29)    -61.7047         0.010935   
    530. D(H  81,C  30,C  28,C  27)     63.1149         0.010935   
    531. D(H  80,C  30,C  28,H  76)     60.3238         0.010935   
    532. D(H  80,C  30,C  28,C  29)    178.4657         0.010935   
    533. D(H  80,C  30,C  28,C  27)    -56.7147         0.010935   
    534. D(O  42,C  32,C  18,H  66)    152.0680         0.010656   
    535. D(O  42,C  32,C  18,C  19)     30.7010         0.010656   
    536. D(O  42,C  32,C  18,C  17)    -93.2120         0.010656   
    537. D(C  33,C  32,C  18,H  66)    -29.3082         0.010656   
    538. D(C  33,C  32,C  18,C  19)   -150.6753         0.010656   
    539. D(C  33,C  32,C  18,C  17)     85.4118         0.010656   
    540. D(H  84,C  33,C  32,O  42)    136.3639         0.011719   
    541. D(H  84,C  33,C  32,C  18)    -42.2885         0.011719   
    542. D(H  83,C  33,C  32,O  42)   -111.8666         0.011719   
    543. D(H  83,C  33,C  32,C  18)     69.4810         0.011719   
    544. D(C  34,C  33,C  32,O  42)     11.0134         0.011719   
    545. D(C  34,C  33,C  32,C  18)   -167.6390         0.011719   
    546. D(H  86,C  34,C  33,H  84)   -179.6344         0.011560   
    547. D(H  86,C  34,C  33,H  83)     64.4871         0.011560   
    548. D(H  86,C  34,C  33,C  32)    -55.8059         0.011560   
    549. D(H  85,C  34,C  33,H  84)    -64.5314         0.011560   
    550. D(H  85,C  34,C  33,H  83)    179.5901         0.011560   
    551. D(H  85,C  34,C  33,C  32)     59.2971         0.011560   
    552. D(C  35,C  34,C  33,H  84)     57.6910         0.011560   
    553. D(C  35,C  34,C  33,H  83)    -58.1875         0.011560   
    554. D(C  35,C  34,C  33,C  32)   -178.4805         0.011560   
    555. D(H  88,C  35,C  34,H  86)   -179.6543         0.011142   
    556. D(H  88,C  35,C  34,H  85)     64.2270         0.011142   
    557. D(H  88,C  35,C  34,C  33)    -57.5034         0.011142   
    558. D(H  87,C  35,C  34,H  86)    -63.9124         0.011142   
    559. D(H  87,C  35,C  34,H  85)    179.9690         0.011142   
    560. D(H  87,C  35,C  34,C  33)     58.2385         0.011142   
    561. D(C  36,C  35,C  34,H  86)     58.2079         0.011142   
    562. D(C  36,C  35,C  34,H  85)    -57.9108         0.011142   
    563. D(C  36,C  35,C  34,C  33)   -179.6412         0.011142   
    564. D(H  90,C  36,C  35,H  87)     64.5871         0.011129   
    565. D(H  90,C  36,C  35,C  34)    -57.6406         0.011129   
    566. D(H  89,C  36,C  35,H  88)    -64.4807         0.011129   
    567. D(H  89,C  36,C  35,H  87)   -179.9586         0.011129   
    568. D(H  89,C  36,C  35,C  34)     57.8138         0.011129   
    569. D(C  37,C  36,C  35,H  88)     57.7583         0.011129   
    570. D(C  37,C  36,C  35,H  87)    -57.7196         0.011129   
    571. D(H  90,C  36,C  35,H  88)   -179.9350         0.011129   
    572. D(C  37,C  36,C  35,C  34)   -179.9473         0.011129   
    573. D(H  92,C  37,C  36,H  90)   -179.9448         0.011131   
    574. D(H  92,C  37,C  36,H  89)     64.4823         0.011131   
    575. D(H  92,C  37,C  36,C  35)    -57.6912         0.011131   
    576. D(H  91,C  37,C  36,H  90)    -64.4503         0.011131   
    577. D(H  91,C  37,C  36,H  89)    179.9768         0.011131   
    578. D(H  91,C  37,C  36,C  35)     57.8034         0.011131   
    579. D(C  38,C  37,C  36,H  90)     57.8066         0.011131   
    580. D(C  38,C  37,C  36,H  89)    -57.7663         0.011131   
    581. D(C  38,C  37,C  36,C  35)   -179.9397         0.011131   
    582. D(H  94,C  38,C  37,H  92)   -179.9573         0.011119   
    583. D(H  94,C  38,C  37,H  91)     64.5632         0.011119   
    584. D(H  94,C  38,C  37,C  36)    -57.7076         0.011119   
    585. D(H  93,C  38,C  37,H  92)    -64.5089         0.011119   
    586. D(H  93,C  38,C  37,H  91)   -179.9884         0.011119   
    587. D(H  93,C  38,C  37,C  36)     57.7409         0.011119   
    588. D(C  39,C  38,C  37,H  92)     57.7588         0.011119   
    589. D(C  39,C  38,C  37,H  91)    -57.7207         0.011119   
    590. D(C  39,C  38,C  37,C  36)   -179.9915         0.011119   
    591. D(H  95,C  39,C  38,H  94)    -64.5333         0.011131   
    592. D(H  95,C  39,C  38,H  93)    179.9932         0.011131   
    593. D(H  95,C  39,C  38,C  37)     57.7424         0.011131   
    594. D(C  40,C  39,C  38,H  94)     57.7404         0.011131   
    595. D(C  40,C  39,C  38,H  93)    -57.7331         0.011131   
    596. D(C  40,C  39,C  38,C  37)   -179.9839         0.011131   
    597. D(H  96,C  39,C  38,H  94)   -179.9905         0.011131   
    598. D(H  96,C  39,C  38,H  93)     64.5360         0.011131   
    599. D(H  96,C  39,C  38,C  37)    -57.7149         0.011131   
    600. D(H  98,C  40,C  39,H  95)     64.6698         0.011067   
    601. D(H  98,C  40,C  39,C  38)    -57.6498         0.011067   
    602. D(H  97,C  40,C  39,H  96)    -64.6291         0.011067   
    603. D(H  97,C  40,C  39,H  95)   -179.9996         0.011067   
    604. D(H  97,C  40,C  39,C  38)     57.6808         0.011067   
    605. D(C  41,C  40,C  39,H  96)     57.7032         0.011067   
    606. D(C  41,C  40,C  39,H  95)    -57.6673         0.011067   
    607. D(H  98,C  40,C  39,H  96)   -179.9597         0.011067   
    608. D(C  41,C  40,C  39,C  38)   -179.9870         0.011067   
    609. D(H 101,C  41,C  40,H  98)    -62.2802         0.011156   
    610. D(H 101,C  41,C  40,H  97)   -178.1851         0.011156   
    611. D(H 101,C  41,C  40,C  39)     59.7719         0.011156   
    612. D(H 100,C  41,C  40,H  98)    178.1766         0.011156   
    613. D(H 100,C  41,C  40,H  97)     62.2717         0.011156   
    614. D(H 100,C  41,C  40,C  39)    -59.7714         0.011156   
    615. D(H  99,C  41,C  40,H  98)     57.9495         0.011156   
    616. D(H  99,C  41,C  40,H  97)    -57.9554         0.011156   
    617. D(H  99,C  41,C  40,C  39)   -179.9985         0.011156   
    618. D(H 102,O  43,C  17,H  65)    -88.8064         0.018015   
    619. D(H 102,O  43,C  17,C  18)    152.2261         0.018015   
    620. D(H 102,O  43,C  17,C  16)     30.0844         0.018015   
    621. D(H 104,C  45,C  13,H  61)    179.3851         0.010913   
    622. D(H 104,C  45,C  13,C  14)    -66.2147         0.010913   
    623. D(H 104,C  45,C  13,N  12)     63.5421         0.010913   
    624. D(H 103,C  45,C  13,H  61)    -65.6496         0.010913   
    625. D(H 103,C  45,C  13,C  14)     48.7507         0.010913   
    626. D(H 103,C  45,C  13,N  12)    178.5075         0.010913   
    627. D(C  46,C  45,C  13,H  61)     56.3255         0.010913   
    628. D(C  46,C  45,C  13,C  14)    170.7258         0.010913   
    629. D(C  46,C  45,C  13,N  12)    -59.5175         0.010913   
    630. D(H 107,C  46,C  45,H 104)    -60.9390         0.011359   
    631. D(H 107,C  46,C  45,H 103)   -179.5175         0.011359   
    632. D(H 107,C  46,C  45,C  13)     60.8779         0.011359   
    633. D(H 106,C  46,C  45,H 104)    178.8292         0.011359   
    634. D(H 106,C  46,C  45,H 103)     60.2506         0.011359   
    635. D(H 106,C  46,C  45,C  13)    -59.3539         0.011359   
    636. D(H 105,C  46,C  45,H 104)     58.8715         0.011359   
    637. D(H 105,C  46,C  45,H 103)    -59.7071         0.011359   
    638. D(H 105,C  46,C  45,C  13)   -179.3116         0.011359   
    639. D(H 108,C  48,C  10,H  59)   -156.9979         0.009692   
    640. D(H 108,C  48,C  10,C  11)    -40.6225         0.009692   
    641. D(H 108,C  48,C  10,N   9)     86.0583         0.009692   
    642. D(C  50,C  48,C  10,H  59)     83.7171         0.009692   
    643. D(C  50,C  48,C  10,C  11)   -159.9075         0.009692   
    644. D(C  50,C  48,C  10,N   9)    -33.2268         0.009692   
    645. D(C  49,C  48,C  10,H  59)    -39.2404         0.009692   
    646. D(C  49,C  48,C  10,C  11)     77.1350         0.009692   
    647. D(C  49,C  48,C  10,N   9)   -156.1843         0.009692   
    648. D(H 111,C  49,C  48,C  50)     59.4211         0.010860   
    649. D(H 111,C  49,C  48,C  10)   -176.7595         0.010860   
    650. D(H 110,C  49,C  48,H 108)   -178.8813         0.010860   
    651. D(H 110,C  49,C  48,C  50)    -59.4611         0.010860   
    652. D(H 110,C  49,C  48,C  10)     64.3583         0.010860   
    653. D(H 109,C  49,C  48,H 108)     60.0933         0.010860   
    654. D(H 109,C  49,C  48,C  50)    179.5134         0.010860   
    655. D(H 111,C  49,C  48,H 108)    -59.9990         0.010860   
    656. D(H 109,C  49,C  48,C  10)    -56.6671         0.010860   
    657. D(H 114,C  50,C  48,H 108)   -176.0124         0.011065   
    658. D(H 114,C  50,C  48,C  49)     64.7306         0.011065   
    659. D(H 114,C  50,C  48,C  10)    -57.8316         0.011065   
    660. D(H 113,C  50,C  48,H 108)     65.0866         0.011065   
    661. D(H 113,C  50,C  48,C  49)    -54.1704         0.011065   
    662. D(H 113,C  50,C  48,C  10)   -176.7326         0.011065   
    663. D(H 112,C  50,C  48,H 108)    -54.5145         0.011065   
    664. D(H 112,C  50,C  48,C  49)   -173.7715         0.011065   
    665. D(H 112,C  50,C  48,C  10)     63.6663         0.011065   
    -----------------------------------------------------------------

Number of atoms                         .... 115
Number of degrees of freedom            .... 665

         *************************************************************
         *                GEOMETRY OPTIMIZATION CYCLE   1            *
         *************************************************************
---------------------------------
CARTESIAN COORDINATES (ANGSTROEM)
---------------------------------
  O      3.689324   -1.768058    2.270270
  C      4.909398   -1.566729    2.244458
  C      5.518530   -0.220660    2.630670
  C      5.416643    0.052769    4.145580
  C      4.091757    0.812308    4.286849
  C      4.024138    1.681205    3.027458
  N      4.770702    0.885424    2.030023
  C      4.828749    1.042000    0.683047
  O      5.333615    0.157814   -0.035515
  N      5.800230   -2.525314    1.891650
  C      5.394335   -3.875445    1.504260
  C      4.388022   -3.826633    0.321201
  N      4.590155   -2.815727   -0.572186
  C      3.714045   -2.631657   -1.727441
  C      2.259466   -2.278297   -1.336830
  N      2.128580   -1.635806   -0.135727
  C      0.847341   -1.162367    0.354444
  C      0.298301   -0.026973   -0.539481
  C     -0.697149    0.873670    0.255691
  C      0.117295    1.810144    1.166994
  N      0.304324    3.060074    0.684804
  C      1.148935    4.080632    1.291821
  C      2.660748    3.822542    1.112697
  N      2.996072    2.724397    0.387157
  C      4.379930    2.396158    0.090116
  C      4.650490    2.454326   -1.411754
  O      3.483534    4.593098    1.614043
  C      0.832465    4.360959    2.771688
  C     -0.643270    4.669143    3.056413
  C     -1.151550    5.883113    2.271145
  C     -0.843625    4.867663    4.562971
  O      0.602838    1.375036    2.217552
  C     -1.679924    1.490482   -0.736962
  C     -2.876713    0.626329   -1.070013
  C     -3.695278    1.099859   -2.266043
  C     -4.911910    0.211693   -2.534241
  C     -5.737801    0.670785   -3.737828
  C     -6.957210   -0.212141   -4.011476
  C     -7.783190    0.245130   -5.215854
  C     -9.002971   -0.637076   -5.490193
  C     -9.830072   -0.180995   -6.695113
  C    -11.046821   -1.069750   -6.959789
  O     -1.516755    2.589963   -1.256230
  O      1.363362    0.791996   -1.037753
  O      1.320419   -2.430432   -2.115879
  C      3.770008   -3.784530   -2.736352
  C      5.172234   -3.996841   -3.303044
  O      3.509776   -4.674854    0.184804
  C      4.863067   -4.745901    2.672136
  C      5.029300   -6.231317    2.328284
  C      5.566595   -4.420916    3.992538
  H      6.559794   -0.183439    2.272212
  H      6.264882    0.682021    4.451996
  H      5.451451   -0.872723    4.734792
  H      3.252333    0.104720    4.283263
  H      4.039610    1.410549    5.205044
  H      2.989168    1.819842    2.698043
  H      4.490073    2.669492    3.163465
  H      6.782815   -2.276701    1.857844
  H      6.307740   -4.354294    1.112231
  H      5.188757   -2.029867   -0.314851
  H      4.093933   -1.722903   -2.226325
  H      2.871788   -1.708182    0.565584
  H      1.011991   -0.786466    1.371668
  H      0.102886   -1.974285    0.379942
  H     -0.219876   -0.479438   -1.400377
  H     -1.260090    0.200057    0.920158
  H     -0.176174    3.255471   -0.202474
  H      0.955699    5.001301    0.719702
  H      2.260781    2.146987   -0.039022
  H      4.970247    3.173197    0.606360
  H      4.411843    3.460006   -1.780963
  H      5.701154    2.228251   -1.628790
  H      4.032648    1.727159   -1.955543
  H      1.463419    5.210412    3.073508
  H      1.140197    3.493109    3.369877
  H     -1.237167    3.790205    2.750834
  H     -1.117120    5.718931    1.184395
  H     -2.195461    6.109970    2.532429
  H     -0.547833    6.776444    2.497961
  H     -0.504737    3.986698    5.127365
  H     -0.272008    5.738232    4.921974
  H     -1.902744    5.039588    4.804843
  H     -3.498053    0.594687   -0.153948
  H     -2.531172   -0.413919   -1.204838
  H     -3.047218    1.126835   -3.156679
  H     -4.014881    2.139649   -2.097364
  H     -5.556149    0.189192   -1.637209
  H     -4.580636   -0.829279   -2.695760
  H     -5.093372    0.692268   -4.634017
  H     -6.068253    1.712004   -3.577246
  H     -7.601218   -0.233562   -3.114520
  H     -6.625362   -1.253251   -4.170885
  H     -7.139022    0.266239   -6.112572
  H     -8.114381    1.286592   -5.056697
  H     -9.647553   -0.658584   -4.593437
  H     -8.672019   -1.678783   -5.649240
  H     -9.184438   -0.160218   -7.589646
  H    -10.159077    0.859945   -6.534650
  H    -11.622621   -0.720873   -7.828987
  H    -10.742832   -2.109415   -7.155480
  H    -11.724659   -1.081836   -6.092578
  H      2.126526    0.175479   -1.102308
  H      3.055844   -3.543061   -3.535168
  H      3.404573   -4.696509   -2.247170
  H      5.178767   -4.819935   -4.030846
  H      5.541531   -3.094175   -3.814894
  H      5.891790   -4.247541   -2.510033
  H      3.790389   -4.526682    2.776042
  H      4.522066   -6.477559    1.388666
  H      6.097403   -6.490519    2.236276
  H      4.603138   -6.858057    3.124585
  H      5.375435   -3.391770    4.323567
  H      5.205802   -5.096009    4.781141
  H      6.657397   -4.558531    3.913673

----------------------------
CARTESIAN COORDINATES (A.U.)
----------------------------
  NO LB      ZA    FRAG     MASS         X           Y           Z
   0 O     8.0000    0    15.999    6.971813   -3.341146    4.290189
   1 C     6.0000    0    12.011    9.277418   -2.960689    4.241411
   2 C     6.0000    0    12.011   10.428511   -0.416986    4.971245
   3 C     6.0000    0    12.011   10.235972    0.099719    7.834010
   4 C     6.0000    0    12.011    7.732301    1.535040    8.100971
   5 C     6.0000    0    12.011    7.604518    3.177017    5.721066
   6 N     7.0000    0    14.007    9.015320    1.673208    3.836187
   7 C     6.0000    0    12.011    9.125012    1.969095    1.290771
   8 O     8.0000    0    15.999   10.079072    0.298224   -0.067113
   9 N     7.0000    0    14.007   10.960845   -4.772152    3.574701
  10 C     6.0000    0    12.011   10.193816   -7.323530    2.842639
  11 C     6.0000    0    12.011    8.292159   -7.231288    0.606983
  12 N     7.0000    0    14.007    8.674136   -5.320952   -1.081275
  13 C     6.0000    0    12.011    7.018528   -4.973110   -3.264390
  14 C     6.0000    0    12.011    4.269773   -4.305357   -2.526243
  15 N     7.0000    0    14.007    4.022434   -3.091226   -0.256487
  16 C     6.0000    0    12.011    1.601242   -2.196556    0.669802
  17 C     6.0000    0    12.011    0.563708   -0.050971   -1.019472
  18 C     6.0000    0    12.011   -1.317421    1.650997    0.483187
  19 C     6.0000    0    12.011    0.221655    3.420676    2.205298
  20 N     7.0000    0    14.007    0.575089    5.782702    1.294093
  21 C     6.0000    0    12.011    2.171172    7.711277    2.441188
  22 C     6.0000    0    12.011    5.028086    7.223558    2.102692
  23 N     7.0000    0    14.007    5.661756    5.148364    0.731620
  24 C     6.0000    0    12.011    8.276869    4.528082    0.170295
  25 C     6.0000    0    12.011    8.788152    4.638004   -2.667828
  26 O     8.0000    0    15.999    6.582924    8.679698    3.050100
  27 C     6.0000    0    12.011    1.573131    8.241018    5.237730
  28 C     6.0000    0    12.011   -1.215605    8.823402    5.775784
  29 C     6.0000    0    12.011   -2.176113   11.117473    4.291841
  30 C     6.0000    0    12.011   -1.594219    9.198550    8.622766
  31 O     8.0000    0    15.999    1.139198    2.598441    4.190566
  32 C     6.0000    0    12.011   -3.174596    2.816604   -1.392656
  33 C     6.0000    0    12.011   -5.436200    1.183590   -2.022032
  34 C     6.0000    0    12.011   -6.983063    2.078433   -4.282200
  35 C     6.0000    0    12.011   -9.282165    0.400042   -4.789022
  36 C     6.0000    0    12.011  -10.842873    1.267599   -7.063472
  37 C     6.0000    0    12.011  -13.147222   -0.400888   -7.580591
  38 C     6.0000    0    12.011  -14.708097    0.463228   -9.856535
  39 C     6.0000    0    12.011  -17.013149   -1.203899  -10.374962
  40 C     6.0000    0    12.011  -18.576144   -0.342031  -12.651930
  41 C     6.0000    0    12.011  -20.875466   -2.021535  -13.152096
  42 O     8.0000    0    15.999   -2.866252    4.894320   -2.373931
  43 O     8.0000    0    15.999    2.576380    1.496656   -1.961068
  44 O     8.0000    0    15.999    2.495231   -4.592852   -3.998432
  45 C     6.0000    0    12.011    7.124283   -7.151725   -5.170956
  46 C     6.0000    0    12.011    9.774105   -7.552936   -6.241849
  47 O     8.0000    0    15.999    6.632515   -8.834193    0.349228
  48 C     6.0000    0    12.011    9.189864   -8.968453    5.049605
  49 C     6.0000    0    12.011    9.504001  -11.775482    4.399820
  50 C     6.0000    0    12.011   10.519340   -8.354320    7.544803
  51 H     1.0000    0     1.008   12.396215   -0.346650    4.293858
  52 H     1.0000    0     1.008   11.838911    1.288832    8.413053
  53 H     1.0000    0     1.008   10.301749   -1.649208    8.947459
  54 H     1.0000    0     1.008    6.146019    0.197892    8.094195
  55 H     1.0000    0     1.008    7.633756    2.665551    9.836107
  56 H     1.0000    0     1.008    5.648709    3.439002    5.098562
  57 H     1.0000    0     1.008    8.485009    5.044610    5.978083
  58 H     1.0000    0     1.008   12.817663   -4.302342    3.510816
  59 H     1.0000    0     1.008   11.919902   -8.228423    2.101811
  60 H     1.0000    0     1.008    9.805330   -3.835892   -0.594983
  61 H     1.0000    0     1.008    7.736413   -3.255816   -4.207145
  62 H     1.0000    0     1.008    5.426892   -3.227997    1.068800
  63 H     1.0000    0     1.008    1.912386   -1.486205    2.592077
  64 H     1.0000    0     1.008    0.194427   -3.730858    0.717986
  65 H     1.0000    0     1.008   -0.415505   -0.906006   -2.646329
  66 H     1.0000    0     1.008   -2.381225    0.378054    1.738846
  67 H     1.0000    0     1.008   -0.332921    6.151948   -0.382620
  68 H     1.0000    0     1.008    1.806010    9.451090    1.360040
  69 H     1.0000    0     1.008    4.272257    4.057218   -0.073742
  70 H     1.0000    0     1.008    9.392405    5.996474    1.145854
  71 H     1.0000    0     1.008    8.337174    6.538464   -3.365533
  72 H     1.0000    0     1.008   10.773620    4.210784   -3.077967
  73 H     1.0000    0     1.008    7.620600    3.263857   -3.695441
  74 H     1.0000    0     1.008    2.765460    9.846251    5.808087
  75 H     1.0000    0     1.008    2.154660    6.601019    6.368145
  76 H     1.0000    0     1.008   -2.337906    7.162450    5.198323
  77 H     1.0000    0     1.008   -2.111050   10.807214    2.238182
  78 H     1.0000    0     1.008   -4.148820   11.546169    4.785597
  79 H     1.0000    0     1.008   -1.035254   12.805624    4.720462
  80 H     1.0000    0     1.008   -0.953815    7.533767    9.689316
  81 H     1.0000    0     1.008   -0.514021   10.843687    9.301183
  82 H     1.0000    0     1.008   -3.595666    9.523441    9.079837
  83 H     1.0000    0     1.008   -6.610362    1.123795   -0.290920
  84 H     1.0000    0     1.008   -4.783221   -0.782194   -2.276813
  85 H     1.0000    0     1.008   -5.758407    2.129410   -5.965258
  86 H     1.0000    0     1.008   -7.587025    4.043350   -3.963443
  87 H     1.0000    0     1.008  -10.499601    0.357522   -3.093876
  88 H     1.0000    0     1.008   -8.656148   -1.567110   -5.094247
  89 H     1.0000    0     1.008   -9.625078    1.308198   -8.757023
  90 H     1.0000    0     1.008  -11.467336    3.235218   -6.760016
  91 H     1.0000    0     1.008  -14.364221   -0.441367   -5.885590
  92 H     1.0000    0     1.008  -12.520119   -2.368300   -7.881831
  93 H     1.0000    0     1.008  -13.490797    0.503118  -11.551088
  94 H     1.0000    0     1.008  -15.333959    2.431306   -9.555772
  95 H     1.0000    0     1.008  -18.231233   -1.244543   -8.680339
  96 H     1.0000    0     1.008  -16.387741   -3.172441  -10.675517
  97 H     1.0000    0     1.008  -17.356072   -0.302768  -14.342353
  98 H     1.0000    0     1.008  -19.197873    1.625060  -12.348700
  99 H     1.0000    0     1.008  -21.963571   -1.362253  -14.794640
 100 H     1.0000    0     1.008  -20.301010   -3.986217  -13.521897
 101 H     1.0000    0     1.008  -22.156395   -2.044374  -11.513303
 102 H     1.0000    0     1.008    4.018553    0.331607   -2.083061
 103 H     1.0000    0     1.008    5.774709   -6.695414   -6.680500
 104 H     1.0000    0     1.008    6.433711   -8.875115   -4.246535
 105 H     1.0000    0     1.008    9.786451   -9.108358   -7.617195
 106 H     1.0000    0     1.008   10.471976   -5.847143   -7.209105
 107 H     1.0000    0     1.008   11.133869   -8.026689   -4.743275
 108 H     1.0000    0     1.008    7.162796   -8.554189    5.245960
 109 H     1.0000    0     1.008    8.545466  -12.240812    2.624199
 110 H     1.0000    0     1.008   11.522422  -12.265303    4.225950
 111 H     1.0000    0     1.008    8.698671  -12.959849    5.904609
 112 H     1.0000    0     1.008   10.158100   -6.409516    8.170358
 113 H     1.0000    0     1.008    9.837540   -9.630061    9.035047
 114 H     1.0000    0     1.008   12.580657   -8.614375    7.395771

--------------------------------
INTERNAL COORDINATES (ANGSTROEM)
--------------------------------
 O      0   0   0     0.000000000000     0.00000000     0.00000000
 C      1   0   0     1.236842824752     0.00000000     0.00000000
 C      2   1   0     1.527122926309   122.11819449     0.00000000
 C      3   2   1     1.542756117497   112.22318411    70.79765891
 C      4   3   2     1.533681602677   103.60771683   268.32730792
 C      5   4   3     1.531542182891   104.08514423   323.85378802
 N      3   2   1     1.464050473358   111.00353277   315.39054615
 C      7   3   2     1.357287738005   118.19382732   291.50174410
 O      8   7   3     1.246196874043   120.51075824    10.63570823
 N      2   1   3     1.355336968399   122.59325092   179.03293200
 C     10   2   1     1.462079535588   122.65742624     0.37246883
 C     11  10   2     1.553923101473   110.64012865    56.05934514
 N     12  11  10     1.364159084321   115.20890668    33.98533166
 C     13  12  11     1.461528254731   121.47778907   180.77806293
 C     14  13  12     1.547009773363   113.12991305    64.26624446
 N     15  14  13     1.368420417529   114.75871838    27.33468227
 C     16  15  14     1.451201790000   122.28214420   176.46851973
 C     17  16  15     1.545854801838   110.96910955   293.90375229
 C     18  17  16     1.560249633203   110.84605435   204.12994415
 C     19  18  17     1.539731597668   108.37558595    77.25941896
 N     20  19  18     1.352705498971   115.09719850    98.68617001
 C     21  20  19     1.457180118116   125.36628751   186.58686824
 C     22  21  20     1.544110352108   113.71016791    73.62732904
 N     23  22  21     1.358224547980   116.02904637     2.16354165
 C     24  23  22     1.452941049938   121.80356450   177.19107677
 C     25  24  23     1.527153671288   111.17350977   243.95759015
 O     23  22  21     1.233726145178   120.09442244   182.10067591
 C     22  21  20     1.539071543358   114.13737148   306.20521286
 C     28  22  21     1.534223188161   114.38186166   307.70461483
 C     29  28  22     1.532552916577   112.52190601   301.39845795
 C     29  28  22     1.532732568662   109.52175423   177.49053226
 O     20  19  18     1.236423928302   119.77352394   282.42181502
 C     19  18  17     1.526978649665   108.20943736   207.13987263
 C     33  19  18     1.513271208841   114.92343514    85.41178268
 C     34  33  19     1.524718049694   114.82679252   192.36100648
 C     35  34  33     1.530020984663   112.58905423   181.51949305
 C     36  35  34     1.530190481897   113.13478571   180.35875356
 C     37  36  35     1.530163075557   113.43240991   180.05274190
 C     38  37  36     1.530315230620   113.48192338   180.06031865
 C     39  38  37     1.530168383248   113.52105831   180.00848835
 C     40  39  38     1.530992303593   113.57849869   180.01605302
 C     41  40  39     1.529842441724   113.12715353   180.01299006
 O     33  19  18     1.226833498336   123.47425813   266.78800015
 O     18  17  16     1.432947365139   110.90802165   325.04409729
 O     15  14  13     1.229581839098   121.99485020   199.56166054
 C     14  13  12     1.533020259869   113.80408813   295.15102360
 C     46  14  13     1.527236733497   112.47384630   300.48252443
 O     12  11  10     1.228576024671   121.72006255   211.31250211
 C     11  10   2     1.550443174841   114.45521613   288.85022238
 C     49  11  10     1.533730244968   109.73832804   203.81571502
 C     49  11  10     1.531022058597   111.90089675   326.77323145
 H      3   2   1     1.101866095914   108.93156380   195.50501822
 H      4   3   2     1.099707847156   108.90970938   150.19592118
 H      4   3   2     1.097687488017   112.05903746    30.81751977
 H      5   4   3     1.097873506351   109.93860809    80.73055635
 H      5   4   3     1.097129351019   112.84203870   202.04040028
 H      6   5   4     1.094941428185   111.15901316   147.59550723
 H      6   5   4     1.101047640340   112.89066417   270.27746745
 H     10   2   1     1.014113046494   118.17276128   177.60348291
 H     11  10   2     1.103309338469   105.37257609   170.45463170
 H     13  12  11     1.020843342664   119.48974639   344.02763478
 H     14  13  12     1.104098336538   104.74797619   177.41428372
 H     16  15  14     1.024418466673   119.88931144   338.82224756
 H     17  16  15     1.096884656992   107.00849888   174.19234984
 H     17  16  15     1.101849913831   111.34183905    54.66703074
 H     18  17  16     1.101986350523   108.49355513    83.76428298
 H     19  18  17     1.100986875893   106.29746698   323.02831232
 H     21  20  19     1.027774703838   114.75670119     4.12038990
 H     22  21  20     1.101041395081   105.51260745   187.62895052
 H     24  23  22     1.027464502900   119.95096631     2.69675649
 H     25  24  23     1.103979713970   104.75472968     2.46129430
 H     26  25  24     1.097570765585   109.09875777    58.26347488
 H     26  25  24     1.096407577827   110.89124112   178.71154291
 H     26  25  24     1.098274812654   111.22605396   298.57620966
 H     28  22  21     1.100349055119   106.64526942   185.59667507
 H     28  22  21     1.098040651868   108.79835483    69.96711221
 H     29  28  22     1.103912674827   107.82885035    60.50077779
 H     30  29  28     1.099621076221   112.19378420    63.00659737
 H     30  29  28     1.099765620834   110.88374427   182.81040258
 H     30  29  28     1.101798416473   110.79593244   302.34163300
 H     31  29  28     1.099765856382   111.12468569   303.28530465
 H     31  29  28     1.101598281738   110.78459457    63.11491705
 H     31  29  28     1.099906698886   111.23912701   182.91054224
 H     34  33  19     1.107357323568   106.14108310    69.48103357
 H     34  33  19     1.104396821893   108.50005661   317.71147586
 H     35  34  33     1.101790494180   109.02140093    59.29709463
 H     35  34  33     1.100800122167   109.20975273   304.19412613
 H     36  35  34     1.104634532635   109.46518760    58.23849091
 H     36  35  34     1.104288607784   109.53025931   302.49655705
 H     37  36  35     1.104040244681   109.22483436    57.81375666
 H     37  36  35     1.104138651740   109.27267622   302.35944609
 H     38  37  36     1.104416051505   109.30804174    57.80342121
 H     38  37  36     1.104284396915   109.28934349   302.30883762
 H     39  38  37     1.104310638056   109.26482132    57.74085965
 H     39  38  37     1.104382718802   109.28260592   302.29237853
 H     40  39  38     1.104590422356   109.32044483    57.74235575
 H     40  39  38     1.104526924206   109.31214907   302.28514981
 H     41  40  39     1.103387964618   109.11975763    57.68077219
 H     41  40  39     1.103425685923   109.12682114   302.35015036
 H     42  41  40     1.099438475662   111.65205589   180.00151442
 H     42  41  40     1.100730267232   111.08938414   300.22864774
 H     42  41  40     1.100757306632   111.09054936    59.77187652
 H     44  18  17     0.983199763798   103.96800698    30.08441646
 H     46  14  13     1.098382857075   106.83198446   178.50746528
 H     46  14  13     1.097518598461   108.62687599    63.54209134
 H     47  46  14     1.098736439811   110.81726004   180.68838204
 H     47  46  14     1.101443123984   111.49038596   300.64610880
 H     47  46  14     1.099762867263   111.39877671    60.87794789
 H     49  11  10     1.099768775249   107.06601430    86.05825269
 H     50  49  11     1.095811965845   111.08180199   303.33285951
 H     50  49  11     1.102947763816   110.56493276    64.35829141
 H     50  49  11     1.099323298092   110.34934312   183.24050581
 H     51  49  11     1.097845416347   112.27282309    63.66625208
 H     51  49  11     1.099007143208   109.73082563   183.26737092
 H     51  49  11     1.102273596500   111.50165302   302.16836775

---------------------------
INTERNAL COORDINATES (A.U.)
---------------------------
 O      0   0   0     0.000000000000     0.00000000     0.00000000
 C      1   0   0     2.337294209486     0.00000000     0.00000000
 C      2   1   0     2.885844103557   122.11819449     0.00000000
 C      3   2   1     2.915386553502   112.22318411    70.79765891
 C      4   3   2     2.898238205694   103.60771683   268.32730792
 C      5   4   3     2.894195288212   104.08514423   323.85378802
 N      3   2   1     2.766654440884   111.00353277   315.39054615
 C      7   3   2     2.564902109758   118.19382732   291.50174410
 O      8   7   3     2.354970800889   120.51075824    10.63570823
 N      2   1   3     2.561215689453   122.59325092   179.03293200
 C     10   2   1     2.762929908272   122.65742624     0.37246883
 C     11  10   2     2.936489094957   110.64012865    56.05934514
 N     12  11  10     2.577887072468   115.20890668    33.98533166
 C     13  12  11     2.761888138429   121.47778907   180.77806293
 C     14  13  12     2.923424798156   113.12991305    64.26624446
 N     15  14  13     2.585939825197   114.75871838    27.33468227
 C     16  15  14     2.742373948155   122.28214420   176.46851973
 C     17  16  15     2.921242218280   110.96910955   293.90375229
 C     18  17  16     2.948444507304   110.84605435   204.12994415
 C     19  18  17     2.909671039337   108.37558595    77.25941896
 N     20  19  18     2.556242932904   115.09719850    98.68617001
 C     21  20  19     2.753671351034   125.36628751   186.58686824
 C     22  21  20     2.917945686037   113.71016791    73.62732904
 N     23  22  21     2.566672424051   116.02904637     2.16354165
 C     24  23  22     2.745660673115   121.80356450   177.19107677
 C     25  24  23     2.885902203146   111.17350977   243.95759015
 O     23  22  21     2.331404538644   120.09442244   182.10067591
 C     22  21  20     2.908423717458   114.13737148   306.20521286
 C     28  22  21     2.899261653936   114.38186166   307.70461483
 C     29  28  22     2.896105298073   112.52190601   301.39845795
 C     29  28  22     2.896444791313   109.52175423   177.49053226
 O     20  19  18     2.336502609919   119.77352394   282.42181502
 C     19  18  17     2.885571460212   108.20943736   207.13987263
 C     33  19  18     2.859668151058   114.92343514    85.41178268
 C     34  33  19     2.881299545368   114.82679252   192.36100648
 C     35  34  33     2.891320640165   112.58905423   181.51949305
 C     36  35  34     2.891640943519   113.13478571   180.35875356
 C     37  36  35     2.891589153041   113.43240991   180.05274190
 C     38  37  36     2.891876684440   113.48192338   180.06031865
 C     39  38  37     2.891599183124   113.52105831   180.00848835
 C     40  39  38     2.893156166931   113.57849869   180.01605302
 C     41  40  39     2.890983242907   113.12715353   180.01299006
 O     33  19  18     2.318379323776   123.47425813   266.78800015
 O     18  17  16     2.707878084437   110.90802165   325.04409729
 O     15  14  13     2.323572935139   121.99485020   199.56166054
 C     14  13  12     2.896988448905   113.80408813   295.15102360
 C     46  14  13     2.886059167974   112.47384630   300.48252443
 O     12  11  10     2.321672221330   121.72006255   211.31250211
 C     11  10   2     2.929912986657   114.45521613   288.85022238
 C     49  11  10     2.898330126302   109.73832804   203.81571502
 C     49  11  10     2.893212395740   111.90089675   326.77323145
 H      3   2   1     2.082225157531   108.93156380   195.50501822
 H      4   3   2     2.078146658450   108.90970938   150.19592118
 H      4   3   2     2.074328732983   112.05903746    30.81751977
 H      5   4   3     2.074680256690   109.93860809    80.73055635
 H      5   4   3     2.073274006914   112.84203870   202.04040028
 H      6   5   4     2.069139431954   111.15901316   147.59550723
 H      6   5   4     2.080678500642   112.89066417   270.27746745
[...]
freq.      77.14  E(vib)   ...       0.49 
freq.      80.64  E(vib)   ...       0.48 
freq.      94.81  E(vib)   ...       0.47 
freq.     104.26  E(vib)   ...       0.46 
freq.     106.80  E(vib)   ...       0.45 
freq.     112.82  E(vib)   ...       0.45 
freq.     115.23  E(vib)   ...       0.44 
freq.     116.01  E(vib)   ...       0.44 
freq.     120.34  E(vib)   ...       0.44 
freq.     125.27  E(vib)   ...       0.43 
freq.     129.17  E(vib)   ...       0.43 
freq.     137.34  E(vib)   ...       0.42 
freq.     144.14  E(vib)   ...       0.41 
freq.     147.28  E(vib)   ...       0.41 
freq.     153.24  E(vib)   ...       0.40 
freq.     155.35  E(vib)   ...       0.40 
freq.     168.47  E(vib)   ...       0.38 
freq.     176.09  E(vib)   ...       0.38 
freq.     179.19  E(vib)   ...       0.37 
freq.     186.11  E(vib)   ...       0.37 
freq.     186.79  E(vib)   ...       0.37 
freq.     190.29  E(vib)   ...       0.36 
freq.     194.45  E(vib)   ...       0.36 
freq.     206.36  E(vib)   ...       0.35 
freq.     211.49  E(vib)   ...       0.34 
freq.     214.56  E(vib)   ...       0.34 
freq.     219.37  E(vib)   ...       0.33 
freq.     222.08  E(vib)   ...       0.33 
freq.     227.18  E(vib)   ...       0.33 
freq.     230.21  E(vib)   ...       0.32 
freq.     236.95  E(vib)   ...       0.32 
freq.     237.20  E(vib)   ...       0.32 
freq.     237.88  E(vib)   ...       0.32 
freq.     249.03  E(vib)   ...       0.31 
freq.     253.05  E(vib)   ...       0.30 
freq.     259.50  E(vib)   ...       0.30 
freq.     266.19  E(vib)   ...       0.29 
freq.     277.99  E(vib)   ...       0.28 
freq.     280.40  E(vib)   ...       0.28 
freq.     281.66  E(vib)   ...       0.28 
freq.     296.48  E(vib)   ...       0.27 
freq.     309.73  E(vib)   ...       0.26 
freq.     322.71  E(vib)   ...       0.25 
freq.     326.89  E(vib)   ...       0.24 
freq.     328.86  E(vib)   ...       0.24 
freq.     334.51  E(vib)   ...       0.24 
freq.     336.52  E(vib)   ...       0.24 
freq.     347.73  E(vib)   ...       0.23 
freq.     351.94  E(vib)   ...       0.23 
freq.     371.46  E(vib)   ...       0.21 
freq.     372.39  E(vib)   ...       0.21 
freq.     388.26  E(vib)   ...       0.20 
freq.     392.25  E(vib)   ...       0.20 
freq.     395.48  E(vib)   ...       0.20 
freq.     416.52  E(vib)   ...       0.18 
freq.     431.53  E(vib)   ...       0.18 
freq.     434.14  E(vib)   ...       0.17 
freq.     450.99  E(vib)   ...       0.17 
freq.     457.60  E(vib)   ...       0.16 
freq.     462.00  E(vib)   ...       0.16 
freq.     472.56  E(vib)   ...       0.15 
freq.     472.97  E(vib)   ...       0.15 
freq.     476.22  E(vib)   ...       0.15 
freq.     484.74  E(vib)   ...       0.15 
freq.     487.61  E(vib)   ...       0.15 
freq.     512.32  E(vib)   ...       0.14 
freq.     522.53  E(vib)   ...       0.13 
freq.     534.26  E(vib)   ...       0.13 
freq.     548.01  E(vib)   ...       0.12 
freq.     571.99  E(vib)   ...       0.11 
freq.     578.43  E(vib)   ...       0.11 
freq.     591.85  E(vib)   ...       0.10 
freq.     608.00  E(vib)   ...       0.10 
freq.     621.57  E(vib)   ...       0.09 
freq.     651.63  E(vib)   ...       0.08 
freq.     665.38  E(vib)   ...       0.08 
freq.     670.02  E(vib)   ...       0.08 
freq.     698.94  E(vib)   ...       0.07 
freq.     707.07  E(vib)   ...       0.07 
freq.     710.86  E(vib)   ...       0.07 
freq.     712.00  E(vib)   ...       0.07 
freq.     718.80  E(vib)   ...       0.07 
freq.     722.96  E(vib)   ...       0.07 
freq.     726.18  E(vib)   ...       0.06 
freq.     736.20  E(vib)   ...       0.06 
freq.     739.41  E(vib)   ...       0.06 
freq.     749.11  E(vib)   ...       0.06 
freq.     750.48  E(vib)   ...       0.06 
freq.     757.57  E(vib)   ...       0.06 
freq.     772.05  E(vib)   ...       0.05 
freq.     778.84  E(vib)   ...       0.05 
freq.     791.80  E(vib)   ...       0.05 
freq.     795.45  E(vib)   ...       0.05 
freq.     805.88  E(vib)   ...       0.05 
freq.     814.35  E(vib)   ...       0.05 
freq.     824.63  E(vib)   ...       0.04 
freq.     830.73  E(vib)   ...       0.04 
freq.     836.53  E(vib)   ...       0.04 
freq.     841.29  E(vib)   ...       0.04 
freq.     854.10  E(vib)   ...       0.04 
freq.     858.58  E(vib)   ...       0.04 
freq.     865.39  E(vib)   ...       0.04 
freq.     873.91  E(vib)   ...       0.04 
freq.     877.58  E(vib)   ...       0.04 
freq.     880.77  E(vib)   ...       0.04 
freq.     884.87  E(vib)   ...       0.04 
freq.     892.92  E(vib)   ...       0.03 
freq.     897.91  E(vib)   ...       0.03 
freq.     900.60  E(vib)   ...       0.03 
freq.     903.46  E(vib)   ...       0.03 
freq.     909.41  E(vib)   ...       0.03 
freq.     918.29  E(vib)   ...       0.03 
freq.     928.57  E(vib)   ...       0.03 
freq.     936.49  E(vib)   ...       0.03 
freq.     937.42  E(vib)   ...       0.03 
freq.     938.08  E(vib)   ...       0.03 
freq.     939.36  E(vib)   ...       0.03 
freq.     943.89  E(vib)   ...       0.03 
freq.     952.56  E(vib)   ...       0.03 
freq.     954.52  E(vib)   ...       0.03 
freq.     971.63  E(vib)   ...       0.03 
freq.     978.69  E(vib)   ...       0.03 
freq.     982.40  E(vib)   ...       0.02 
freq.     985.38  E(vib)   ...       0.02 
freq.     990.09  E(vib)   ...       0.02 
freq.     996.16  E(vib)   ...       0.02 
freq.    1001.74  E(vib)   ...       0.02 
freq.    1017.90  E(vib)   ...       0.02 
freq.    1024.74  E(vib)   ...       0.02 
freq.    1030.14  E(vib)   ...       0.02 
freq.    1033.52  E(vib)   ...       0.02 
freq.    1041.93  E(vib)   ...       0.02 
freq.    1043.96  E(vib)   ...       0.02 
freq.    1046.95  E(vib)   ...       0.02 
freq.    1050.71  E(vib)   ...       0.02 
freq.    1051.15  E(vib)   ...       0.02 
freq.    1055.72  E(vib)   ...       0.02 
freq.    1056.47  E(vib)   ...       0.02 
freq.    1073.24  E(vib)   ...       0.02 
freq.    1075.38  E(vib)   ...       0.02 
freq.    1082.63  E(vib)   ...       0.02 
freq.    1088.74  E(vib)   ...       0.02 
freq.    1099.47  E(vib)   ...       0.02 
freq.    1103.00  E(vib)   ...       0.02 
freq.    1104.27  E(vib)   ...       0.02 
freq.    1114.15  E(vib)   ...       0.01 
freq.    1115.34  E(vib)   ...       0.01 
freq.    1118.13  E(vib)   ...       0.01 
freq.    1119.68  E(vib)   ...       0.01 
freq.    1133.09  E(vib)   ...       0.01 
freq.    1137.14  E(vib)   ...       0.01 
freq.    1138.66  E(vib)   ...       0.01 
freq.    1147.93  E(vib)   ...       0.01 
freq.    1154.37  E(vib)   ...       0.01 
freq.    1159.10  E(vib)   ...       0.01 
freq.    1159.93  E(vib)   ...       0.01 
freq.    1170.72  E(vib)   ...       0.01 
freq.    1179.11  E(vib)   ...       0.01 
freq.    1186.46  E(vib)   ...       0.01 
freq.    1193.41  E(vib)   ...       0.01 
freq.    1201.35  E(vib)   ...       0.01 
freq.    1203.42  E(vib)   ...       0.01 
freq.    1207.28  E(vib)   ...       0.01 
freq.    1207.77  E(vib)   ...       0.01 
freq.    1214.88  E(vib)   ...       0.01 
freq.    1228.47  E(vib)   ...       0.01 
freq.    1231.59  E(vib)   ...       0.01 
freq.    1232.39  E(vib)   ...       0.01 
freq.    1233.66  E(vib)   ...       0.01 
freq.    1236.16  E(vib)   ...       0.01 
freq.    1240.60  E(vib)   ...       0.01 
freq.    1242.70  E(vib)   ...       0.01 
freq.    1246.88  E(vib)   ...       0.01 
freq.    1254.04  E(vib)   ...       0.01 
freq.    1256.58  E(vib)   ...       0.01 
freq.    1257.44  E(vib)   ...       0.01 
freq.    1265.73  E(vib)   ...       0.01 
freq.    1270.91  E(vib)   ...       0.01 
freq.    1277.65  E(vib)   ...       0.01 
freq.    1283.52  E(vib)   ...       0.01 
freq.    1285.47  E(vib)   ...       0.01 
freq.    1286.48  E(vib)   ...       0.01 
freq.    1286.98  E(vib)   ...       0.01 
freq.    1290.30  E(vib)   ...       0.01 
freq.    1292.39  E(vib)   ...       0.01 
freq.    1295.08  E(vib)   ...       0.01 
freq.    1295.55  E(vib)   ...       0.01 
freq.    1296.81  E(vib)   ...       0.01 
freq.    1297.86  E(vib)   ...       0.01 
freq.    1306.25  E(vib)   ...       0.01 
freq.    1312.19  E(vib)   ...       0.01 
freq.    1315.32  E(vib)   ...       0.01 
freq.    1316.68  E(vib)   ...       0.01 
freq.    1317.98  E(vib)   ...       0.01 
freq.    1322.03  E(vib)   ...       0.01 
freq.    1323.07  E(vib)   ...       0.01 
freq.    1328.20  E(vib)   ...       0.01 
freq.    1328.93  E(vib)   ...       0.01 
freq.    1332.01  E(vib)   ...       0.01 
freq.    1335.76  E(vib)   ...       0.01 
freq.    1339.44  E(vib)   ...       0.01 
freq.    1339.63  E(vib)   ...       0.01 
freq.    1344.35  E(vib)   ...       0.01 
freq.    1348.08  E(vib)   ...       0.01 
freq.    1349.66  E(vib)   ...       0.01 
freq.    1350.04  E(vib)   ...       0.01 
freq.    1352.12  E(vib)   ...       0.01 
freq.    1353.47  E(vib)   ...       0.01 
freq.    1361.34  E(vib)   ...       0.01 
freq.    1362.07  E(vib)   ...       0.01 
freq.    1363.92  E(vib)   ...       0.01 
freq.    1367.01  E(vib)   ...       0.01 
freq.    1370.10  E(vib)   ...       0.01 
freq.    1372.68  E(vib)   ...       0.01 
freq.    1390.71  E(vib)   ...       0.00 
freq.    1393.32  E(vib)   ...       0.00 
freq.    1425.81  E(vib)   ...       0.00 
freq.    1433.52  E(vib)   ...       0.00 
freq.    1433.88  E(vib)   ...       0.00 
freq.    1434.10  E(vib)   ...       0.00 
freq.    1434.53  E(vib)   ...       0.00 
freq.    1437.37  E(vib)   ...       0.00 
freq.    1438.09  E(vib)   ...       0.00 
freq.    1439.37  E(vib)   ...       0.00 
freq.    1439.85  E(vib)   ...       0.00 
freq.    1440.11  E(vib)   ...       0.00 
freq.    1440.91  E(vib)   ...       0.00 
freq.    1442.44  E(vib)   ...       0.00 
freq.    1445.28  E(vib)   ...       0.00 
freq.    1445.56  E(vib)   ...       0.00 
freq.    1445.89  E(vib)   ...       0.00 
freq.    1448.89  E(vib)   ...       0.00 
freq.    1449.68  E(vib)   ...       0.00 
freq.    1451.03  E(vib)   ...       0.00 
freq.    1451.97  E(vib)   ...       0.00 
freq.    1453.38  E(vib)   ...       0.00 
freq.    1455.89  E(vib)   ...       0.00 
freq.    1457.32  E(vib)   ...       0.00 
freq.    1460.39  E(vib)   ...       0.00 
freq.    1461.88  E(vib)   ...       0.00 
freq.    1464.95  E(vib)   ...       0.00 
freq.    1468.70  E(vib)   ...       0.00 
freq.    1474.31  E(vib)   ...       0.00 
freq.    1476.48  E(vib)   ...       0.00 
freq.    1494.48  E(vib)   ...       0.00 
freq.    1496.14  E(vib)   ...       0.00 
freq.    1517.07  E(vib)   ...       0.00 
freq.    1546.62  E(vib)   ...       0.00 
freq.    1604.39  E(vib)   ...       0.00 
freq.    1661.63  E(vib)   ...       0.00 
freq.    1664.64  E(vib)   ...       0.00 
freq.    1666.82  E(vib)   ...       0.00 
freq.    1681.79  E(vib)   ...       0.00 
freq.    1688.30  E(vib)   ...       0.00 
freq.    1696.44  E(vib)   ...       0.00 
freq.    2924.84  E(vib)   ...       0.00 
freq.    2925.13  E(vib)   ...       0.00 
freq.    2926.30  E(vib)   ...       0.00 
freq.    2927.26  E(vib)   ...       0.00 
freq.    2932.73  E(vib)   ...       0.00 
freq.    2939.87  E(vib)   ...       0.00 
freq.    2940.22  E(vib)   ...       0.00 
freq.    2942.70  E(vib)   ...       0.00 
freq.    2944.91  E(vib)   ...       0.00 
freq.    2947.24  E(vib)   ...       0.00 
freq.    2949.08  E(vib)   ...       0.00 
freq.    2951.67  E(vib)   ...       0.00 
freq.    2951.70  E(vib)   ...       0.00 
freq.    2954.23  E(vib)   ...       0.00 
freq.    2954.41  E(vib)   ...       0.00 
freq.    2955.64  E(vib)   ...       0.00 
freq.    2956.05  E(vib)   ...       0.00 
freq.    2956.83  E(vib)   ...       0.00 
freq.    2957.19  E(vib)   ...       0.00 
freq.    2957.37  E(vib)   ...       0.00 
freq.    2957.93  E(vib)   ...       0.00 
freq.    2959.04  E(vib)   ...       0.00 
freq.    2962.17  E(vib)   ...       0.00 
freq.    2965.86  E(vib)   ...       0.00 
freq.    2966.94  E(vib)   ...       0.00 
freq.    2968.73  E(vib)   ...       0.00 
freq.    2970.70  E(vib)   ...       0.00 
freq.    2979.37  E(vib)   ...       0.00 
freq.    2981.64  E(vib)   ...       0.00 
freq.    2984.12  E(vib)   ...       0.00 
freq.    2986.05  E(vib)   ...       0.00 
freq.    2986.45  E(vib)   ...       0.00 
freq.    2988.45  E(vib)   ...       0.00 
freq.    2990.65  E(vib)   ...       0.00 
freq.    2995.59  E(vib)   ...       0.00 
freq.    3002.96  E(vib)   ...       0.00 
freq.    3003.44  E(vib)   ...       0.00 
freq.    3008.85  E(vib)   ...       0.00 
freq.    3013.25  E(vib)   ...       0.00 
freq.    3015.85  E(vib)   ...       0.00 
freq.    3017.80  E(vib)   ...       0.00 
freq.    3020.21  E(vib)   ...       0.00 
freq.    3020.94  E(vib)   ...       0.00 
freq.    3025.78  E(vib)   ...       0.00 
freq.    3027.56  E(vib)   ...       0.00 
freq.    3027.65  E(vib)   ...       0.00 
freq.    3028.48  E(vib)   ...       0.00 
freq.    3035.00  E(vib)   ...       0.00 
freq.    3035.51  E(vib)   ...       0.00 
freq.    3036.75  E(vib)   ...       0.00 
freq.    3042.71  E(vib)   ...       0.00 
freq.    3050.41  E(vib)   ...       0.00 
freq.    3050.69  E(vib)   ...       0.00 
freq.    3051.51  E(vib)   ...       0.00 
freq.    3053.70  E(vib)   ...       0.00 
freq.    3060.54  E(vib)   ...       0.00 
freq.    3068.00  E(vib)   ...       0.00 
freq.    3068.42  E(vib)   ...       0.00 
freq.    3294.13  E(vib)   ...       0.00 
freq.    3300.07  E(vib)   ...       0.00 
freq.    3353.73  E(vib)   ...       0.00 
freq.    3430.00  E(vib)   ...       0.00 
freq.    3500.03  E(vib)   ...       0.00 
freq.    3527.27  E(vib)   ...       0.00 

------------
INNER ENERGY
------------

The inner energy is: U= E(el) + E(ZPE) + E(vib) + E(rot) + E(trans)
    E(el)   - is the total energy from the electronic structure calculation
              = E(kin-el) + E(nuc-el) + E(el-el) + E(nuc-nuc)
    E(ZPE)  - the the zero temperature vibrational energy from the frequency calculation
    E(vib)  - the the finite temperature correction to E(ZPE) due to population
              of excited vibrational states
    E(rot)  - is the rotational thermal energy
    E(trans)- is the translational thermal energy

Summary of contributions to the inner energy U:
Electronic energy                ...  -2380.08184433 Eh
Zero point energy                ...      0.97727411 Eh     613.25 kcal/mol
Thermal vibrational correction   ...      0.05573664 Eh      34.98 kcal/mol
Thermal rotational correction    ...      0.00141627 Eh       0.89 kcal/mol
Thermal translational correction ...      0.00141627 Eh       0.89 kcal/mol
-----------------------------------------------------------------------
Total thermal energy                  -2379.04600105 Eh


Summary of corrections to the electronic energy:
(perhaps to be used in another calculation)
Total thermal correction                  0.05856918 Eh      36.75 kcal/mol
Non-thermal (ZPE) correction              0.97727411 Eh     613.25 kcal/mol
-----------------------------------------------------------------------
Total correction                          1.03584329 Eh     650.00 kcal/mol


--------
ENTHALPY
--------

The enthalpy is H = U + kB*T
                kB is Boltzmann's constant
Total free energy                 ...  -2379.04600105 Eh 
Thermal Enthalpy correction       ...      0.00094421 Eh       0.59 kcal/mol
-----------------------------------------------------------------------
Total Enthalpy                    ...  -2379.04505684 Eh


Note: Only C1 symmetry has been detected, increase convergence thresholds 
      if your molecule has a higher symmetry. Symmetry factor of 1.0 is   
      used for the rotational entropy correction. 
 

Note: Rotational entropy computed according to Herzberg 
Infrared and Raman Spectra, Chapter V,1, Van Nostrand Reinhold, 1945 
Point Group:  C1, Symmetry Number:   1  
Rotational constants in cm-1:     0.002101     0.000894     0.000704 

Vibrational entropy computed according to the QRRHO of S. Grimme
Chem.Eur.J. 2012 18 9955


-------
ENTROPY
-------

The entropy contributions are T*S = T*(S(el)+S(vib)+S(rot)+S(trans))
     S(el)   - electronic entropy
     S(vib)  - vibrational entropy
     S(rot)  - rotational entropy
     S(trans)- translational entropy
The entropies will be listed as mutliplied by the temperature to get
units of energy

Electronic entropy                ...      0.00000000 Eh      0.00 kcal/mol
Vibrational entropy               ...      0.10287245 Eh     64.55 kcal/mol
Rotational entropy                ...      0.01916244 Eh     12.02 kcal/mol
Translational entropy             ...      0.02166895 Eh     13.60 kcal/mol
-----------------------------------------------------------------------
Final entropy term                ...      0.14370384 Eh     90.18 kcal/mol

In case the symmetry of your molecule has not been determined correctly
or in case you have a reason to use a different symmetry number we print 
out the resulting rotational entropy values for sn=1,12 :
 --------------------------------------------------------
|  sn= 1 | S(rot)=       0.01916244 Eh     12.02 kcal/mol|
|  sn= 2 | S(rot)=       0.01850798 Eh     11.61 kcal/mol|
|  sn= 3 | S(rot)=       0.01812515 Eh     11.37 kcal/mol|
|  sn= 4 | S(rot)=       0.01785353 Eh     11.20 kcal/mol|
|  sn= 5 | S(rot)=       0.01764284 Eh     11.07 kcal/mol|
|  sn= 6 | S(rot)=       0.01747069 Eh     10.96 kcal/mol|
|  sn= 7 | S(rot)=       0.01732515 Eh     10.87 kcal/mol|
|  sn= 8 | S(rot)=       0.01719907 Eh     10.79 kcal/mol|
|  sn= 9 | S(rot)=       0.01708786 Eh     10.72 kcal/mol|
|  sn=10 | S(rot)=       0.01698838 Eh     10.66 kcal/mol|
|  sn=11 | S(rot)=       0.01689839 Eh     10.60 kcal/mol|
|  sn=12 | S(rot)=       0.01681624 Eh     10.55 kcal/mol|
 --------------------------------------------------------


-------------------
GIBBS FREE ENERGY
-------------------

The Gibbs free energy is G = H - T*S

Total enthalpy                    ...  -2379.04505684 Eh 
Total entropy correction          ...     -0.14370384 Eh    -90.18 kcal/mol
-----------------------------------------------------------------------
Final Gibbs free energy         ...  -2379.18876067 Eh

For completeness - the Gibbs free energy minus the electronic energy
G-E(el)                           ...      0.89308366 Eh    560.42 kcal/mol

--------------------------------------------------------------------------
WARNING: No preset parameters were found for the device that Open MPI
detected:

  Local host:            eu-g1-035-3
  Device name:           mlx5_0
  Device vendor ID:      0x02c9
  Device vendor part ID: 4123

Default device parameters will be used, which may result in lower
performance.  You can edit any of the files specified by the
btl_openib_device_param_files MCA parameter to set values for your
device.

NOTE: You can turn off this warning by setting the MCA parameter
      btl_openib_warn_no_device_params_found to 0.
--------------------------------------------------------------------------
--------------------------------------------------------------------------
WARNING: There was an error initializing an OpenFabrics device.

  Local host:   eu-g1-035-3
  Local device: mlx5_0
--------------------------------------------------------------------------

Timings for individual modules:

Sum of individual times         ...    25228.961 sec (= 420.483 min)
GTO integral calculation        ...       27.427 sec (=   0.457 min)   0.1 %
SCF iterations                  ...      659.485 sec (=  10.991 min)   2.6 %
SCF Gradient evaluation         ...      237.679 sec (=   3.961 min)   0.9 %
Geometry relaxation             ...       10.705 sec (=   0.178 min)   0.0 %
Analytical frequency calculation...    24293.666 sec (= 404.894 min)  96.3 %
                             ****ORCA TERMINATED NORMALLY****
TOTAL RUN TIME: 0 days 7 hours 0 minutes 51 seconds 338 msec
