
                                 *****************
                                 * O   R   C   A *
                                 *****************

           --- An Ab Initio, DFT and Semiempirical electronic structure package ---

                  #######################################################
                  #                        -***-                        #
                  #          Department of theory and spectroscopy      #
                  #               Directorship: Frank Neese             #
                  #        Max Planck Institute fuer Kohlenforschung    #
                  #                Kaiser Wilhelm Platz 1               #
                  #                 D-45470 Muelheim/Ruhr               #
                  #                      Germany                        #
                  #                                                     #
                  #                  All rights reserved                #
                  #                        -***-                        #
                  #######################################################


                         Program Version 4.2.0 -  RELEASE  -


 With contributions from (in alphabetic order):
   Daniel Aravena         : Magnetic Suceptibility
   Michael Atanasov       : Ab Initio Ligand Field Theory (pilot matlab implementation)
   Alexander A. Auer      : GIAO ZORA, VPT2
   Ute Becker             : Parallelization
   Giovanni Bistoni       : ED, misc. LED, open-shell LED, HFLED
   Martin Brehm           : Molecular dynamics
   Dmytro Bykov           : SCF Hessian
   Vijay G. Chilkuri      : MRCI spin determinant printing, contributions to CSF-ICE
   Dipayan Datta          : RHF DLPNO-CCSD density
   Achintya Kumar Dutta   : EOM-CC, STEOM-CC
   Dmitry Ganyushin       : Spin-Orbit,Spin-Spin,Magnetic field MRCI
   Miquel Garcia          : C-PCM Hessian, Gaussian charge scheme
   Yang Guo               : DLPNO-NEVPT2, CIM, IAO-localization
   Andreas Hansen         : Spin unrestricted coupled pair/coupled cluster methods
   Benjamin Helmich-Paris : CASSCF linear response (MC-RPA)
   Lee Huntington         : MR-EOM, pCC
   Robert Izsak           : Overlap fitted RIJCOSX, COSX-SCS-MP3, EOM
   Christian Kollmar      : KDIIS, OOCD, Brueckner-CCSD(T), CCSD density
   Simone Kossmann        : Meta GGA functionals, TD-DFT gradient, OOMP2, MP2 Hessian
   Martin Krupicka        : AUTO-CI
   Lucas Lang             : DCDCAS
   Dagmar Lenk            : GEPOL surface, SMD
   Dimitrios Liakos       : Extrapolation schemes; Compound Job, initial MDCI parallelization
   Dimitrios Manganas     : Further ROCIS development; embedding schemes
   Dimitrios Pantazis     : SARC Basis sets
   Taras Petrenko         : DFT Hessian,TD-DFT gradient, ASA, ECA, R-Raman, ABS, FL, XAS/XES, NRVS
   Peter Pinski           : DLPNO-MP2, DLPNO-MP2 Gradient
   Christoph Reimann      : Effective Core Potentials
   Marius Retegan         : Local ZFS, SOC
   Christoph Riplinger    : Optimizer, TS searches, QM/MM, DLPNO-CCSD(T), (RO)-DLPNO pert. Triples
   Tobias Risthaus        : Range-separated hybrids, TD-DFT gradient, RPA, STAB
   Michael Roemelt        : Original ROCIS implementation
   Masaaki Saitow         : Open-shell DLPNO-CCSD energy and density
   Barbara Sandhoefer     : DKH picture change effects
   Avijit Sen             : IP-ROCIS
   Kantharuban Sivalingam : CASSCF convergence, NEVPT2, FIC-MRCI
   Bernardo de Souza      : ESD, SOC TD-DFT
   Georgi Stoychev        : AutoAux, RI-MP2 NMR
   Willem Van den Heuvel  : Paramagnetic NMR
   Boris Wezisla          : Elementary symmetry handling
   Frank Wennmohs         : Technical directorship


 We gratefully acknowledge several colleagues who have allowed us to
 interface, adapt or use parts of their codes:
   Stefan Grimme, W. Hujo, H. Kruse,             : VdW corrections, initial TS optimization,
                  C. Bannwarth                     DFT functionals, gCP, sTDA/sTD-DF
   Ed Valeev, F. Pavosevic, A. Kumar             : LibInt (2-el integral package), F12 methods
   Garnet Chan, S. Sharma, J. Yang, R. Olivares  : DMRG
   Ulf Ekstrom                                   : XCFun DFT Library
   Mihaly Kallay                                 : mrcc  (arbitrary order and MRCC methods)
   Andreas Klamt, Michael Diedenhofen            : otool_cosmo (COSMO solvation model)
   Jiri Pittner, Ondrej Demel                    : Mk-CCSD
   Frank Weinhold                                : gennbo (NPA and NBO analysis)
   Christopher J. Cramer and Donald G. Truhlar   : smd solvation model
   Lars Goerigk                                  : TD-DFT with DH, B97 family of functionals
   V. Asgeirsson, H. Jonsson                     : NEB implementation
   FAccTs GmbH                                   : IRC, NEB, NEB-TS, Multilevel, MM, QM/MM, CI optimization
   S Lehtola, MJT Oliveira, MAL Marques          : LibXC Library


 Your calculation uses the libint2 library for the computation of 2-el integrals
 For citations please refer to: http://libint.valeyev.net

 Your ORCA version has been built with support for libXC version: 4.2.3
 For citations please refer to: https://tddft.org/programs/libxc/

 This ORCA versions uses:
   CBLAS   interface :  Fast vector & matrix operations
   LAPACKE interface :  Fast linear algebra routines
   SCALAPACK package :  Parallel linear algebra routines




***************************************
The coordinates will be read from file: 43.xyz
***************************************


Your calculation utilizes the atom-pairwise dispersion correction
with the Becke-Johnson damping scheme (D3BJ)
Cite in your paper:
S.Grimme, S.Ehrlich, L.Goerigk, J Comput Chem, (2011), 32, 1456–1465 
S.Grimme, J.Antony, S.Ehrlich and H.Krieg, J.Chem.Phys., 132, (2010), 154104 
   

----- Orbital basis set information -----
Your calculation utilizes the basis: def2-TZVP
   F. Weigend and R. Ahlrichs, Phys. Chem. Chem. Phys. 7, 3297 (2005).

----- AuxJ basis set information -----
Your calculation utilizes the auxiliary basis: def2/J
   F. Weigend, Phys. Chem. Chem. Phys. 8, 1057 (2006).

================================================================================
                                        WARNINGS
                       Please study these warnings very carefully!
================================================================================


WARNING: Geometry Optimization
  ===> : Switching off AutoStart
         For restart on a previous wavefunction, please use MOREAD

INFO   : the flag for use of LIBINT has been found!

================================================================================
                                       INPUT FILE
================================================================================
NAME = 43.inp
|  1> !RI BP86 def2-tzvp def2/J D3BJ TIGHTSCF TightOpt Grid5 FinalGrid6 freq
|  2> %maxcore 4000
|  3> %pal nprocs 24
|  4> end
|  5> * xyzfile 0 1 43.xyz 
|  6> 
|  7>                          ****END OF INPUT****
================================================================================

                       *****************************
                       * Geometry Optimization Run *
                       *****************************

Geometry optimization settings:
Update method            Update   .... BFGS
Choice of coordinates    CoordSys .... Z-matrix Internals
Initial Hessian          InHess   .... Almoef's Model

Convergence Tolerances:
Energy Change            TolE     ....  1.0000e-06 Eh
Max. Gradient            TolMAXG  ....  1.0000e-04 Eh/bohr
RMS Gradient             TolRMSG  ....  3.0000e-05 Eh/bohr
Max. Displacement        TolMAXD  ....  1.0000e-03 bohr
RMS Displacement         TolRMSD  ....  6.0000e-04 bohr
Strict Convergence                ....  False
------------------------------------------------------------------------------
                        ORCA OPTIMIZATION COORDINATE SETUP
------------------------------------------------------------------------------

The optimization will be done in new redundant internal coordinates
Making redundant internal coordinates   ...  (new redundants) done
Evaluating the initial hessian          ...  (Almloef) done
Evaluating the coordinates              ...  done
Calculating the B-matrix                .... done
Calculating the G-matrix                .... done
Diagonalizing the G-matrix              .... done
Small eigenvalue found = 9.751e-04
Small eigenvalue found = 1.887e-03
Small eigenvalue found = 2.395e-03
Small eigenvalue found = 2.733e-03
Small eigenvalue found = 4.623e-03
Small eigenvalue found = 5.437e-03
Small eigenvalue found = 6.658e-03
Small eigenvalue found = 7.559e-03
Small eigenvalue found = 8.160e-03
Small eigenvalue found = 1.144e-02
Small eigenvalue found = 1.251e-02
Small eigenvalue found = 1.463e-02
Small eigenvalue found = 1.810e-02
Small eigenvalue found = 1.999e-02
Small eigenvalue found = 2.094e-02
Small eigenvalue found = 2.304e-02
Small eigenvalue found = 2.582e-02
Small eigenvalue found = 2.718e-02
The first mode is                       ....  327
The number of degrees of freedom        ....  339

    -----------------------------------------------------------------
                    Redundant Internal Coordinates


    -----------------------------------------------------------------
         Definition                    Initial Value    Approx d2E/dq
    -----------------------------------------------------------------
      1. B(C   1,O   0)                  1.2306         1.004987   
      2. B(C   2,C   1)                  1.5465         0.351632   
      3. B(C   3,C   2)                  1.5401         0.360030   
      4. B(C   4,C   3)                  1.5343         0.367755   
      5. B(C   5,C   4)                  1.5331         0.369302   
      6. B(N   6,C   5)                  1.4745         0.410213   
      7. B(N   6,C   2)                  1.4541         0.442109   
      8. B(C   7,N   6)                  1.3672         0.608517   
      9. B(O   8,C   7)                  1.2338         0.993388   
     10. B(N   9,C   1)                  1.3645         0.614583   
     11. B(C  10,N   9)                  1.4606         0.431704   
     12. B(C  11,C  10)                  1.5316         0.371325   
     13. B(N  12,C  11)                  1.3546         0.637244   
     14. B(C  13,N  12)                  1.4638         0.426772   
     15. B(C  14,C  13)                  1.5470         0.351018   
     16. B(N  15,C  14)                  1.3627         0.618709   
     17. B(C  16,N  15)                  1.4462         0.455196   
     18. B(C  17,C  16)                  1.5345         0.367494   
     19. B(C  18,C  17)                  1.5402         0.359865   
     20. B(C  19,C  18)                  1.5408         0.359058   
     21. B(N  20,C  19)                  1.3565         0.632860   
     22. B(C  21,N  20)                  1.4626         0.428526   
     23. B(C  22,C  21)                  1.5481         0.349502   
     24. B(N  23,C  22)                  1.3569         0.631931   
     25. B(C  24,C   7)                  1.5349         0.366936   
     26. B(C  24,N  23)                  1.4682         0.419857   
     27. B(C  25,C  24)                  1.5240         0.381960   
     28. B(O  26,C  22)                  1.2314         1.002048   
     29. B(C  27,C  21)                  1.5370         0.364073   
     30. B(C  28,C  27)                  1.5341         0.367925   
     31. B(C  29,C  28)                  1.5329         0.369662   
     32. B(C  30,C  28)                  1.5325         0.370168   
     33. B(O  31,C  19)                  1.2365         0.983364   
     34. B(C  32,C  18)                  1.5386         0.361916   
     35. B(C  33,C  32)                  1.5107         0.401059   
     36. B(C  34,C  33)                  1.5446         0.354022   
     37. B(C  35,C  34)                  1.5363         0.365045   
     38. B(C  36,C  35)                  1.5334         0.368962   
     39. B(C  37,C  36)                  1.5327         0.369921   
     40. B(C  38,C  37)                  1.5284         0.375846   
     41. B(C  39,C  38)                  1.5300         0.373562   
     42. B(C  40,C  39)                  1.5307         0.372625   
     43. B(C  41,C  40)                  1.5288         0.375209   
     44. B(O  42,C  32)                  1.2225         1.035309   
     45. B(O  43,C  17)                  1.4503         0.448476   
     46. B(O  44,C  14)                  1.2324         0.998548   
     47. B(C  45,C  13)                  1.5270         0.377686   
     48. B(C  46,C  45)                  1.5290         0.375006   
     49. B(O  47,C  11)                  1.2403         0.969758   
     50. B(C  48,C  10)                  1.5518         0.344867   
     51. B(C  49,C  48)                  1.5347         0.367228   
     52. B(C  50,C  48)                  1.5308         0.372523   
     53. B(H  51,C   2)                  1.1010         0.345779   
     54. B(H  52,C   3)                  1.0996         0.347645   
     55. B(H  53,C   3)                  1.0956         0.352725   
     56. B(H  54,C   4)                  1.0943         0.354489   
     57. B(H  55,C   4)                  1.0974         0.350448   
     58. B(H  56,C   5)                  1.0966         0.351520   
     59. B(H  57,C   5)                  1.1024         0.344096   
     60. B(H  58,N   9)                  1.0173         0.421300   
     61. B(H  59,C  10)                  1.1005         0.346461   
     62. B(H  60,N  12)                  1.0190         0.418623   
     63. B(H  61,C  13)                  1.1025         0.343907   
     64. B(H  62,N  15)                  1.0285         0.404300   
     65. B(H  63,C  16)                  1.0979         0.349836   
     66. B(H  64,C  16)                  1.1044         0.341568   
     67. B(H  65,C  17)                  1.1063         0.339223   
     68. B(H  66,O   0)                  2.2437         0.004655   
     69. B(H  66,C  18)                  1.0999         0.347268   
     70. B(H  67,N  20)                  1.0202         0.416735   
     71. B(H  68,C  21)                  1.1018         0.344774   
     72. B(H  69,N  23)                  1.0236         0.411595   
     73. B(H  70,C  24)                  1.1018         0.344821   
     74. B(H  71,C  25)                  1.0971         0.350811   
     75. B(H  72,C  25)                  1.0987         0.348770   
     76. B(H  73,C  25)                  1.0966         0.351487   
     77. B(H  74,C  27)                  1.1000         0.347121   
     78. B(H  75,C  27)                  1.0977         0.350085   
     79. B(H  76,C  28)                  1.1053         0.340467   
     80. B(H  77,C  29)                  1.1002         0.346915   
     81. B(H  78,C  29)                  1.1002         0.346917   
     82. B(H  79,C  29)                  1.1015         0.345158   
     83. B(H  80,C  30)                  1.0995         0.347689   
     84. B(H  81,C  30)                  1.1013         0.345494   
     85. B(H  82,C  30)                  1.1002         0.346901   
     86. B(H  83,C  33)                  1.1062         0.339308   
     87. B(H  84,C  33)                  1.0986         0.348922   
     88. B(H  85,C  34)                  1.0997         0.347475   
     89. B(H  86,H  54)                  2.3600         0.000649   
     90. B(H  86,C  34)                  1.0991         0.348206   
     91. B(H  87,C  35)                  1.1032         0.343098   
     92. B(H  88,C  35)                  1.1039         0.342153   
     93. B(H  89,C  36)                  1.1005         0.346519   
     94. B(H  90,C  36)                  1.1027         0.343694   
     95. B(H  91,C  37)                  1.1042         0.341818   
     96. B(H  92,C  37)                  1.1019         0.344654   
     97. B(H  93,H  60)                  2.1733         0.001289   
     98. B(H  93,C  38)                  1.1039         0.342170   
     99. B(H  94,C  38)                  1.1038         0.342294   
    100. B(H  95,C  39)                  1.1034         0.342804   
    101. B(H  96,H  53)                  2.2670         0.000913   
    102. B(H  96,C  39)                  1.1030         0.343354   
    103. B(H  97,C  40)                  1.1059         0.339702   
    104. B(H  98,C  40)                  1.1032         0.343069   
    105. B(H  99,C  41)                  1.0996         0.347597   
    106. B(H 100,C  41)                  1.1009         0.346016   
    107. B(H 101,C  41)                  1.1002         0.346835   
    108. B(H 102,O  43)                  0.9733         0.495163   
    109. B(H 103,C  45)                  1.0993         0.347991   
    110. B(H 104,C  45)                  1.1011         0.345663   
    111. B(H 105,C  46)                  1.0986         0.348857   
    112. B(H 106,H  83)                  4.9804         0.000000   
    113. B(H 106,C  46)                  1.0973         0.350573   
    114. B(H 107,C  46)                  1.1008         0.346111   
    115. B(H 108,H  99)                  4.2664         0.000001   
    116. B(H 108,C  48)                  1.1070         0.338241   
    117. B(H 109,C  49)                  1.0987         0.348810   
    118. B(H 110,C  49)                  1.0989         0.348568   
    119. B(H 111,C  49)                  1.1000         0.347048   
    120. B(H 112,C  50)                  1.0970         0.350914   
    121. B(H 113,C  50)                  1.0992         0.348191   
    122. B(H 114,C  50)                  1.0991         0.348271   
    123. A(O   0,C   1,N   9)          121.6759         0.466869   
    124. A(C   2,C   1,N   9)          114.7630         0.389402   
    125. A(O   0,C   1,C   2)          123.5565         0.424772   
    126. A(C   1,C   2,H  51)          107.3177         0.318994   
    127. A(N   6,C   2,H  51)          110.7195         0.329235   
    128. A(C   1,C   2,N   6)          108.7176         0.367821   
    129. A(C   1,C   2,C   3)          113.9013         0.357366   
    130. A(C   3,C   2,H  51)          111.9094         0.320226   
    131. A(C   3,C   2,N   6)          104.2519         0.369315   
    132. A(C   4,C   3,H  53)          111.9132         0.322388   
    133. A(C   4,C   3,H  52)          111.4971         0.321623   
    134. A(C   2,C   3,C   4)          104.2116         0.360103   
    135. A(C   2,C   3,H  53)          111.8725         0.321270   
    136. A(C   2,C   3,H  52)          108.9182         0.320508   
    137. A(H  52,C   3,H  53)          108.3884         0.288302   
    138. A(H  54,C   4,H  55)          108.0450         0.288890   
    139. A(C   3,C   4,H  55)          112.4584         0.322046   
    140. A(C   3,C   4,C   5)          105.1156         0.361667   
    141. A(C   3,C   4,H  54)          110.2331         0.322652   
    142. A(C   5,C   4,H  55)          112.1384         0.322268   
    143. A(C   5,C   4,H  54)          108.7989         0.322874   
    144. A(H  56,C   5,H  57)          108.9148         0.287686   
    145. A(C   4,C   5,N   6)          103.8857         0.366195   
    146. A(C   4,C   5,H  56)          110.8123         0.322429   
    147. A(N   6,C   5,H  57)          109.5209         0.324937   
    148. A(N   6,C   5,H  56)          111.4122         0.326080   
    149. A(C   4,C   5,H  57)          112.2461         0.321304   
    150. A(C   5,N   6,C   7)          127.6338         0.396813   
    151. A(C   2,N   6,C   7)          117.6092         0.402074   
    152. A(C   2,N   6,C   5)          113.1723         0.375341   
    153. A(O   8,C   7,C  24)          122.1558         0.427136   
    154. A(N   6,C   7,O   8)          121.3771         0.465032   
    155. A(N   6,C   7,C  24)          116.0618         0.391633   
    156. A(C   1,N   9,C  10)          120.7823         0.401091   
    157. A(C  10,N   9,H  58)          116.9758         0.335958   
    158. A(C   1,N   9,H  58)          117.0595         0.356511   
    159. A(C  48,C  10,H  59)          109.6438         0.318088   
    160. A(C  11,C  10,H  59)          105.1092         0.321953   
    161. A(N   9,C  10,C  11)          113.7801         0.369764   
    162. A(N   9,C  10,C  48)          108.6501         0.365105   
    163. A(N   9,C  10,H  59)          107.8819         0.328050   
    164. A(C  11,C  10,C  48)          111.6192         0.358063   
    165. A(N  12,C  11,O  47)          122.9224         0.466914   
    166. A(C  10,C  11,O  47)          120.3358         0.426205   
    167. A(C  10,C  11,N  12)          116.5800         0.395633   
    168. A(C  13,N  12,H  60)          118.7338         0.334961   
    169. A(C  11,N  12,C  13)          121.9106         0.402842   
    170. A(C  11,N  12,H  60)          117.9949         0.358323   
    171. A(C  14,C  13,C  45)          112.0913         0.360182   
    172. A(N  12,C  13,H  61)          105.3430         0.327030   
    173. A(C  14,C  13,H  61)          107.2382         0.318621   
    174. A(N  12,C  13,C  14)          110.9312         0.365493   
    175. A(C  45,C  13,H  61)          110.1613         0.322458   
    176. A(N  12,C  13,C  45)          110.7972         0.370113   
    177. A(C  13,C  14,N  15)          113.5357         0.389739   
    178. A(N  15,C  14,O  44)          123.7151         0.466892   
    179. A(C  13,C  14,O  44)          122.7463         0.424151   
    180. A(C  14,N  15,H  62)          117.3649         0.354430   
    181. A(C  16,N  15,H  62)          120.7937         0.336618   
    182. A(C  14,N  15,C  16)          121.0499         0.405335   
    183. A(H  63,C  16,H  64)          107.0977         0.287139   
    184. A(C  17,C  16,H  64)          108.1057         0.320659   
    185. A(N  15,C  16,H  63)          106.6769         0.331466   
    186. A(C  17,C  16,H  63)          110.4895         0.321917   
    187. A(N  15,C  16,C  17)          113.7605         0.372485   
    188. A(N  15,C  16,H  64)          110.5202         0.330157   
    189. A(O  43,C  17,H  65)          109.2679         0.328972   
    190. A(C  18,C  17,H  65)          110.3923         0.319203   
    191. A(C  16,C  17,H  65)          107.9602         0.320299   
    192. A(C  16,C  17,C  18)          114.3887         0.360031   
    193. A(C  18,C  17,O  43)          104.8317         0.370194   
    194. A(C  16,C  17,O  43)          109.9105         0.371532   
    195. A(C  19,C  18,H  66)          106.9035         0.320310   
    196. A(C  17,C  18,H  66)          107.4541         0.320427   
    197. A(C  17,C  18,C  32)          117.4823         0.359094   
    198. A(C  17,C  18,C  19)          112.7270         0.358610   
    199. A(C  19,C  18,C  32)          105.4617         0.358957   
    200. A(C  32,C  18,H  66)          106.1905         0.320725   
    201. A(C  18,C  19,N  20)          115.3930         0.392835   
    202. A(N  20,C  19,O  31)          123.3855         0.467516   
    203. A(C  18,C  19,O  31)          121.2079         0.424707   
    204. A(C  19,N  20,H  67)          115.7229         0.357628   
    205. A(C  19,N  20,C  21)          123.3712         0.402643   
    206. A(C  21,N  20,H  67)          119.5295         0.334938   
    207. A(C  27,C  21,H  68)          108.6101         0.320659   
    208. A(C  22,C  21,H  68)          104.5331         0.318527   
    209. A(N  20,C  21,H  68)          105.0404         0.327387   
    210. A(N  20,C  21,C  22)          113.6751         0.365478   
    211. A(C  22,C  21,C  27)          110.5996         0.357675   
    212. A(N  20,C  21,C  27)          113.6869         0.368046   
    213. A(C  21,C  22,N  23)          115.3891         0.390886   
    214. A(C  21,C  22,O  26)          120.8608         0.424088   
    215. A(N  23,C  22,O  26)          123.6334         0.469005   
    216. A(C  22,N  23,C  24)          121.6514         0.401092   
    217. A(C  24,N  23,H  69)          117.4823         0.333116   
    218. A(C  22,N  23,H  69)          119.6791         0.356785   
    219. A(C  25,C  24,H  70)          109.3413         0.323194   
    220. A(N  23,C  24,H  70)          107.1208         0.326294   
    221. A(C   7,C  24,H  70)          111.1229         0.321077   
    222. A(N  23,C  24,C  25)          112.3384         0.369790   
    223. A(C   7,C  24,N  23)          104.5477         0.367251   
    224. A(C   7,C  24,C  25)          112.2003         0.363617   
    225. A(H  71,C  25,H  73)          109.9124         0.288553   
    226. A(C  24,C  25,H  73)          110.3589         0.324212   
    227. A(H  71,C  25,H  72)          108.8268         0.288202   
    228. A(C  24,C  25,H  72)          110.3256         0.323799   
    229. A(C  24,C  25,H  71)          109.2893         0.324109   
    230. A(H  72,C  25,H  73)          108.1026         0.288289   
    231. A(C  28,C  27,H  75)          109.4187         0.322016   
    232. A(C  21,C  27,C  28)          114.5037         0.360817   
    233. A(H  74,C  27,H  75)          106.7859         0.287896   
    234. A(C  21,C  27,H  75)          108.6217         0.321462   
    235. A(C  28,C  27,H  74)          110.1845         0.321568   
    236. A(C  21,C  27,H  74)          107.0235         0.321015   
    237. A(C  29,C  28,C  30)          110.9125         0.362131   
    238. A(C  27,C  28,C  30)          109.7715         0.361840   
    239. A(C  27,C  28,C  29)          112.7297         0.361756   
    240. A(C  30,C  28,H  76)          107.5194         0.320870   
    241. A(C  29,C  28,H  76)          107.9115         0.320799   
    242. A(C  27,C  28,H  76)          107.7938         0.320552   
    243. A(C  28,C  29,H  79)          110.7674         0.321518   
    244. A(H  78,C  29,H  79)          107.5994         0.287232   
    245. A(H  77,C  29,H  79)          107.6649         0.287232   
    246. A(H  77,C  29,H  78)          107.3920         0.287460   
    247. A(C  28,C  29,H  78)          111.0262         0.321785   
    248. A(C  28,C  29,H  77)          112.1882         0.321785   
    249. A(H  81,C  30,H  82)          107.7370         0.287274   
    250. A(H  80,C  30,H  82)          108.0962         0.287558   
    251. A(C  28,C  30,H  82)          111.3409         0.321855   
    252. A(H  80,C  30,H  81)          107.6911         0.287376   
    253. A(C  28,C  30,H  81)          110.7431         0.321641   
    254. A(C  28,C  30,H  80)          111.0803         0.321974   
    255. A(C  33,C  32,O  42)          122.2530         0.437253   
    256. A(C  18,C  32,O  42)          118.7085         0.429252   
    257. A(C  18,C  32,C  33)          119.0152         0.365802   
    258. A(C  32,C  33,C  34)          114.7996         0.364424   
    259. A(C  34,C  33,H  84)          111.0845         0.319820   
    260. A(H  83,C  33,H  84)          107.0362         0.286724   
    261. A(C  32,C  33,H  84)          108.7848         0.326430   
    262. A(C  34,C  33,H  83)          109.6418         0.318365   
    263. A(C  32,C  33,H  83)          105.0620         0.324933   
    264. A(C  33,C  34,C  35)          114.8431         0.358620   
    265. A(H  85,C  34,H  86)          105.9395         0.287699   
    266. A(C  35,C  34,H  86)          110.3507         0.321319   
    267. A(C  33,C  34,H  86)          108.7560         0.319712   
    268. A(C  35,C  34,H  85)          108.6375         0.321208   
    269. A(C  33,C  34,H  85)          107.9147         0.319603   
    270. A(C  34,C  35,C  36)          114.8899         0.361155   
    271. A(H  87,C  35,H  88)          106.1082         0.286345   
    272. A(C  36,C  35,H  88)          109.4165         0.320958   
    273. A(C  34,C  35,H  88)          108.5455         0.320399   
    274. A(C  36,C  35,H  87)          109.0643         0.321103   
    275. A(C  34,C  35,H  87)          108.4526         0.320543   
    276. A(C  35,C  36,C  37)          113.9839         0.361973   
    277. A(H  89,C  36,H  90)          105.7692         0.286990   
    278. A(C  37,C  36,H  90)          109.1074         0.321331   
    279. A(C  35,C  36,H  90)          109.1912         0.321195   
    280. A(C  37,C  36,H  89)          109.4679         0.321762   
    281. A(C  35,C  36,H  89)          108.9975         0.321625   
    282. A(C  36,C  37,C  38)          112.4198         0.363118   
    283. A(H  91,C  37,H  92)          106.3230         0.286504   
    284. A(C  38,C  37,H  92)          107.9882         0.322315   
    285. A(C  36,C  37,H  92)          109.7134         0.321478   
    286. A(C  38,C  37,H  91)          110.2449         0.321879   
    287. A(C  36,C  37,H  91)          109.9484         0.321043   
    288. A(C  37,C  38,C  39)          114.7890         0.363726   
    289. A(H  93,C  38,H  94)          105.9166         0.286243   
    290. A(C  39,C  38,H  94)          109.5599         0.321632   
    291. A(C  37,C  38,H  94)          110.0982         0.321953   
    292. A(C  39,C  38,H  93)          109.1028         0.321612   
    293. A(C  37,C  38,H  93)          106.9686         0.321933   
    294. A(C  38,C  39,C  40)          112.8636         0.363191   
    295. A(H  95,C  39,H  96)          105.7413         0.286463   
    296. A(C  40,C  39,H  96)          108.9288         0.321662   
    297. A(C  38,C  39,H  96)          109.4547         0.321794   
    298. A(C  40,C  39,H  95)          109.6426         0.321578   
    299. A(C  38,C  39,H  95)          109.9565         0.321710   
    300. A(C  39,C  40,C  41)          113.5879         0.363464   
    301. A(H  97,C  40,H  98)          105.5517         0.286021   
    302. A(C  41,C  40,H  98)          109.9798         0.321982   
    303. A(C  39,C  40,H  98)          109.4973         0.321618   
    304. A(C  41,C  40,H  97)          109.6234         0.321463   
    305. A(C  39,C  40,H  97)          108.2759         0.321100   
    306. A(H 100,C  41,H 101)          107.3479         0.287333   
    307. A(H  99,C  41,H 101)          107.6111         0.287538   
    308. A(C  40,C  41,H 101)          111.0459         0.322559   
    309. A(H  99,C  41,H 100)          107.8008         0.287432   
    310. A(C  40,C  41,H 100)          110.9867         0.322434   
    311. A(C  40,C  41,H  99)          111.8504         0.322675   
    312. A(C  17,O  43,H 102)          107.9986         0.347374   
    313. A(C  13,C  45,C  46)          112.7687         0.364270   
    314. A(C  46,C  45,H 104)          110.1814         0.322351   
    315. A(C  13,C  45,H 104)          107.5997         0.322728   
    316. A(C  46,C  45,H 103)          109.8483         0.322706   
    317. A(C  13,C  45,H 103)          108.7885         0.323083   
    318. A(H 103,C  45,H 104)          107.4889         0.287437   
    319. A(H 106,C  46,H 107)          108.4935         0.287827   
    320. A(H 105,C  46,H 107)          107.6964         0.287606   
    321. A(C  45,C  46,H 107)          111.1839         0.322420   
    322. A(H 105,C  46,H 106)          107.9088         0.288183   
    323. A(C  45,C  46,H 106)          110.8021         0.323098   
    324. A(C  45,C  46,H 105)          110.6323         0.322838   
    325. A(C  50,C  48,H 108)          107.8315         0.320859   
    326. A(C  49,C  48,H 108)          109.0631         0.320109   
    327. A(C  10,C  48,H 108)          106.4503         0.316846   
    328. A(C  49,C  48,C  50)          110.5044         0.362115   
    329. A(C  10,C  48,C  50)          113.0193         0.358259   
    330. A(C  10,C  48,C  49)          109.8086         0.357388   
    331. A(H 110,C  49,H 111)          107.9833         0.287691   
    332. A(H 109,C  49,H 111)          107.1739         0.287722   
    333. A(C  48,C  49,H 111)          110.1761         0.321457   
    334. A(H 109,C  49,H 110)          107.9549         0.287919   
    335. A(C  48,C  49,H 110)          110.4008         0.321687   
    336. A(C  48,C  49,H 109)          112.9702         0.321724   
    337. A(H 113,C  50,H 114)          108.2248         0.287800   
    338. A(H 112,C  50,H 114)          108.1870         0.288151   
    339. A(C  48,C  50,H 114)          109.5743         0.322398   
    340. A(H 112,C  50,H 113)          107.4407         0.288141   
    341. A(C  48,C  50,H 113)          110.9239         0.322385   
    342. A(C  48,C  50,H 112)          112.3570         0.322797   
    343. D(H  51,C   2,C   1,N   9)     42.8965         0.009335   
    344. D(C   3,C   2,C   1,N   9)    -81.5546         0.009335   
    345. D(N   6,C   2,C   1,N   9)    162.6939         0.009335   
    346. D(N   6,C   2,C   1,O   0)    -16.5438         0.009335   
    347. D(C   3,C   2,C   1,O   0)     99.2078         0.009335   
    348. D(H  51,C   2,C   1,O   0)   -136.3411         0.009335   
    349. D(C   4,C   3,C   2,N   6)     26.1581         0.010399   
    350. D(H  53,C   3,C   2,H  51)    -93.0339         0.010399   
    351. D(H  53,C   3,C   2,C   1)     28.9158         0.010399   
    352. D(C   4,C   3,C   2,H  51)    145.8675         0.010399   
    353. D(H  53,C   3,C   2,N   6)    147.2567         0.010399   
    354. D(H  52,C   3,C   2,H  51)     26.7628         0.010399   
    355. D(C   4,C   3,C   2,C   1)    -92.1828         0.010399   
    356. D(H  52,C   3,C   2,C   1)    148.7125         0.010399   
    357. D(H  52,C   3,C   2,N   6)    -92.9466         0.010399   
    358. D(H  55,C   4,C   3,H  53)     85.6794         0.010820   
    359. D(H  55,C   4,C   3,H  52)    -35.9133         0.010820   
    360. D(H  54,C   4,C   3,H  52)   -156.5498         0.010820   
    361. D(H  55,C   4,C   3,C   2)   -153.2491         0.010820   
    362. D(H  54,C   4,C   3,H  53)    -34.9571         0.010820   
    363. D(C   5,C   4,C   3,C   2)    -30.9703         0.010820   
    364. D(H  54,C   4,C   3,C   2)     86.1144         0.010820   
    365. D(C   5,C   4,C   3,H  53)   -152.0418         0.010820   
    366. D(C   5,C   4,C   3,H  52)     86.3655         0.010820   
    367. D(N   6,C   5,C   4,C   3)     23.6359         0.010905   
    368. D(H  57,C   5,C   4,C   3)    -94.5937         0.010905   
    369. D(H  56,C   5,C   4,H  55)    -94.1239         0.010905   
    370. D(H  56,C   5,C   4,C   3)    143.3903         0.010905   
    371. D(H  57,C   5,C   4,H  54)    147.3480         0.010905   
    372. D(H  56,C   5,C   4,H  54)     25.3320         0.010905   
    373. D(H  57,C   5,C   4,H  55)     27.8920         0.010905   
    374. D(N   6,C   5,C   4,H  54)    -94.4224         0.010905   
    375. D(N   6,C   5,C   4,H  55)    146.1217         0.010905   
    376. D(C   5,N   6,C   2,C   3)    -11.9314         0.016668   
    377. D(C   7,N   6,C   5,H  57)    -82.0753         0.014355   
    378. D(C   7,N   6,C   5,H  56)     38.4856         0.014355   
    379. D(C   7,N   6,C   5,C   4)    157.8315         0.014355   
    380. D(C   2,N   6,C   5,H  57)    112.7782         0.014355   
    381. D(C   2,N   6,C   5,H  56)   -126.6609         0.014355   
    382. D(C   7,N   6,C   2,H  51)     60.8024         0.016668   
    383. D(C   2,N   6,C   5,C   4)     -7.3151         0.014355   
    384. D(C   7,N   6,C   2,C   3)   -178.6875         0.016668   
    385. D(C   5,N   6,C   2,C   1)    109.9008         0.016668   
    386. D(C   7,N   6,C   2,C   1)    -56.8553         0.016668   
    387. D(C   5,N   6,C   2,H  51)   -132.4415         0.016668   
    388. D(C  24,C   7,N   6,C   5)    -11.0381         0.029899   
    389. D(C  24,C   7,N   6,C   2)    153.5384         0.029899   
    390. D(O   8,C   7,N   6,C   5)    176.1186         0.029899   
    391. D(O   8,C   7,N   6,C   2)    -19.3049         0.029899   
    392. D(H  58,N   9,C   1,O   0)    170.1665         0.030544   
    393. D(C  10,N   9,C   1,C   2)   -162.8803         0.030544   
    394. D(H  58,N   9,C   1,C   2)     -9.0870         0.030544   
    395. D(C  10,N   9,C   1,O   0)     16.3732         0.030544   
    396. D(H  59,C  10,N   9,C   1)     24.8166         0.015889   
    397. D(C  48,C  10,N   9,H  58)    -10.2006         0.015889   
    398. D(C  48,C  10,N   9,C   1)    143.6136         0.015889   
    399. D(C  11,C  10,N   9,C   1)    -91.3811         0.015889   
    400. D(H  59,C  10,N   9,H  58)   -128.9976         0.015889   
    401. D(C  11,C  10,N   9,H  58)    114.8046         0.015889   
    402. D(O  47,C  11,C  10,N   9)    150.3496         0.010320   
    403. D(N  12,C  11,C  10,H  59)   -151.9487         0.010320   
    404. D(N  12,C  11,C  10,C  48)     89.2639         0.010320   
    405. D(N  12,C  11,C  10,N   9)    -34.1396         0.010320   
    406. D(O  47,C  11,C  10,H  59)     32.5404         0.010320   
    407. D(O  47,C  11,C  10,C  48)    -86.2469         0.010320   
    408. D(H  60,N  12,C  11,O  47)   -161.7417         0.033028   
    409. D(H  60,N  12,C  11,C  10)     22.8744         0.033028   
    410. D(C  13,N  12,C  11,O  47)      4.7661         0.033028   
    411. D(C  13,N  12,C  11,C  10)   -170.6179         0.033028   
    412. D(H  61,C  13,N  12,C  11)     30.5180         0.015528   
    413. D(H  61,C  13,N  12,H  60)   -163.0703         0.015528   
    414. D(C  45,C  13,N  12,H  60)    -43.9580         0.015528   
    415. D(C  45,C  13,N  12,C  11)    149.6303         0.015528   
    416. D(C  14,C  13,N  12,C  11)    -85.2007         0.015528   
    417. D(C  14,C  13,N  12,H  60)     81.2110         0.015528   
    418. D(O  44,C  14,C  13,C  45)      8.5790         0.009305   
    419. D(O  44,C  14,C  13,N  12)   -115.8588         0.009305   
    420. D(N  15,C  14,C  13,H  61)    -50.9970         0.009305   
    421. D(N  15,C  14,C  13,C  45)   -172.0215         0.009305   
    422. D(O  44,C  14,C  13,H  61)    129.6034         0.009305   
    423. D(N  15,C  14,C  13,N  12)     63.5408         0.009305   
    424. D(H  62,N  15,C  14,O  44)    177.5549         0.030987   
    425. D(H  62,N  15,C  14,C  13)     -1.8380         0.030987   
    426. D(C  16,N  15,C  14,O  44)      7.6658         0.030987   
    427. D(C  16,N  15,C  14,C  13)   -171.7271         0.030987   
    428. D(H  64,C  16,N  15,H  62)     67.3899         0.017682   
    429. D(H  64,C  16,N  15,C  14)   -123.0671         0.017682   
    430. D(H  63,C  16,N  15,H  62)   -176.5170         0.017682   
    431. D(H  63,C  16,N  15,C  14)     -6.9740         0.017682   
    432. D(C  17,C  16,N  15,C  14)    115.1077         0.017682   
    433. D(C  17,C  16,N  15,H  62)    -54.4353         0.017682   
    434. D(H  65,C  17,C  16,H  64)     70.4504         0.010805   
    435. D(H  65,C  17,C  16,H  63)    -46.4464         0.010805   
    436. D(H  65,C  17,C  16,N  15)   -166.3955         0.010805   
    437. D(O  43,C  17,C  16,H  64)    -48.6507         0.010805   
    438. D(O  43,C  17,C  16,H  63)   -165.5475         0.010805   
    439. D(O  43,C  17,C  16,N  15)     74.5034         0.010805   
    440. D(C  18,C  17,C  16,H  64)   -166.2410         0.010805   
    441. D(C  18,C  17,C  16,H  63)     76.8622         0.010805   
    442. D(C  18,C  17,C  16,N  15)    -43.0869         0.010805   
    443. D(H  66,C  18,C  17,H  65)   -161.3156         0.010390   
    444. D(H  66,C  18,C  17,O  43)    -43.7591         0.010390   
    445. D(H  66,C  18,C  17,C  16)     76.6960         0.010390   
    446. D(C  32,C  18,C  17,O  43)   -163.2985         0.010390   
    447. D(C  32,C  18,C  17,C  16)    -42.8433         0.010390   
    448. D(C  32,C  18,C  17,H  65)     79.1451         0.010390   
    449. D(C  19,C  18,C  17,H  65)    -43.7896         0.010390   
    450. D(C  19,C  18,C  17,O  43)     73.7668         0.010390   
    451. D(C  19,C  18,C  17,C  16)   -165.7780         0.010390   
    452. D(O  31,C  19,C  18,H  66)   -116.0540         0.009699   
    453. D(O  31,C  19,C  18,C  32)     -3.3219         0.009699   
    454. D(O  31,C  19,C  18,C  17)    126.0957         0.009699   
    455. D(N  20,C  19,C  18,H  66)     62.6428         0.009699   
    456. D(N  20,C  19,C  18,C  17)    -55.2075         0.009699   
    457. D(N  20,C  19,C  18,C  32)    175.3749         0.009699   
    458. D(H  67,N  20,C  19,O  31)   -174.6967         0.032538   
    459. D(H  67,N  20,C  19,C  18)      6.6382         0.032538   
    460. D(C  21,N  20,C  19,O  31)     -8.1866         0.032538   
    461. D(C  21,N  20,C  19,C  18)    173.1483         0.032538   
    462. D(H  68,C  21,N  20,H  67)     -6.7819         0.015656   
    463. D(H  68,C  21,N  20,C  19)   -172.8049         0.015656   
    464. D(C  27,C  21,N  20,H  67)    111.8203         0.015656   
    465. D(C  27,C  21,N  20,C  19)    -54.2027         0.015656   
    466. D(C  22,C  21,N  20,H  67)   -120.4559         0.015656   
    467. D(C  22,C  21,N  20,C  19)     73.5211         0.015656   
    468. D(N  23,C  22,C  21,C  27)    151.5887         0.009232   
    469. D(N  23,C  22,C  21,N  20)     22.2859         0.009232   
    470. D(O  26,C  22,C  21,H  68)     84.5202         0.009232   
    471. D(O  26,C  22,C  21,C  27)    -32.1998         0.009232   
    472. D(O  26,C  22,C  21,N  20)   -161.5026         0.009232   
    473. D(N  23,C  22,C  21,H  68)    -91.6913         0.009232   
    474. D(H  69,N  23,C  22,O  26)    170.9157         0.032435   
    475. D(H  69,N  23,C  22,C  21)    -12.9905         0.032435   
    476. D(C  24,N  23,C  22,O  26)      3.6814         0.032435   
    477. D(C  24,N  23,C  22,C  21)    179.7752         0.032435   
    478. D(H  70,C  24,N  23,H  69)   -132.6562         0.015031   
    479. D(H  70,C  24,N  23,C  22)     34.8463         0.015031   
    480. D(C  25,C  24,N  23,H  69)    107.2614         0.015031   
    481. D(C  25,C  24,N  23,C  22)    -85.2361         0.015031   
    482. D(C   7,C  24,N  23,H  69)    -14.6540         0.015031   
    483. D(C   7,C  24,N  23,C  22)    152.8486         0.015031   
    484. D(H  70,C  24,C   7,O   8)   -141.9507         0.010095   
    485. D(H  70,C  24,C   7,N   6)     45.2669         0.010095   
    486. D(C  25,C  24,C   7,O   8)    -19.1896         0.010095   
    487. D(C  25,C  24,C   7,N   6)    168.0280         0.010095   
    488. D(N  23,C  24,C   7,O   8)    102.8164         0.010095   
    489. D(N  23,C  24,C   7,N   6)    -69.9660         0.010095   
    490. D(H  73,C  25,C  24,H  70)    178.7427         0.011622   
    491. D(H  73,C  25,C  24,N  23)    -62.4712         0.011622   
    492. D(H  73,C  25,C  24,C   7)     54.9805         0.011622   
    493. D(H  72,C  25,C  24,H  70)     59.3439         0.011622   
    494. D(H  72,C  25,C  24,N  23)    178.1300         0.011622   
    495. D(H  72,C  25,C  24,C   7)    -64.4183         0.011622   
    496. D(H  71,C  25,C  24,H  70)    -60.2761         0.011622   
    497. D(H  71,C  25,C  24,N  23)     58.5099         0.011622   
    498. D(H  71,C  25,C  24,C   7)    175.9617         0.011622   
    499. D(H  75,C  27,C  21,H  68)   -170.0504         0.010618   
    500. D(H  75,C  27,C  21,C  22)    -55.8810         0.010618   
    501. D(H  75,C  27,C  21,N  20)     73.4155         0.010618   
    502. D(H  74,C  27,C  21,H  68)    -55.0967         0.010618   
    503. D(H  74,C  27,C  21,C  22)     59.0727         0.010618   
    504. D(H  74,C  27,C  21,N  20)   -171.6309         0.010618   
    505. D(C  28,C  27,C  21,H  68)     67.3238         0.010618   
    506. D(C  28,C  27,C  21,C  22)   -178.5067         0.010618   
    507. D(C  28,C  27,C  21,N  20)    -49.2103         0.010618   
    508. D(H  76,C  28,C  27,H  75)    -60.8008         0.010829   
    509. D(H  76,C  28,C  27,H  74)   -177.9203         0.010829   
    510. D(H  76,C  28,C  27,C  21)     61.3922         0.010829   
    511. D(C  30,C  28,C  27,H  75)     56.0279         0.010829   
    512. D(C  30,C  28,C  27,H  74)    -61.0916         0.010829   
    513. D(C  30,C  28,C  27,C  21)    178.2209         0.010829   
    514. D(C  29,C  28,C  27,H  75)   -179.7900         0.010829   
    515. D(C  29,C  28,C  27,H  74)     63.0905         0.010829   
    516. D(C  29,C  28,C  27,C  21)    -57.5970         0.010829   
    517. D(H  79,C  29,C  28,C  30)     65.5992         0.010925   
    518. D(H  79,C  29,C  28,C  27)    -57.9526         0.010925   
    519. D(H  78,C  29,C  28,H  76)     63.6412         0.010925   
    520. D(H  78,C  29,C  28,C  30)    -53.8863         0.010925   
    521. D(H  78,C  29,C  28,C  27)   -177.4381         0.010925   
    522. D(H  77,C  29,C  28,H  76)    -56.5318         0.010925   
    523. D(H  77,C  29,C  28,C  30)   -174.0593         0.010925   
    524. D(H  79,C  29,C  28,H  76)   -176.8734         0.010925   
    525. D(H  77,C  29,C  28,C  27)     62.3889         0.010925   
    526. D(H  82,C  30,C  28,H  76)    -59.6732         0.010953   
    527. D(H  82,C  30,C  28,C  29)     58.0934         0.010953   
    528. D(H  82,C  30,C  28,C  27)   -176.6740         0.010953   
    529. D(H  81,C  30,C  28,H  76)   -179.5223         0.010953   
    530. D(H  81,C  30,C  28,C  29)    -61.7557         0.010953   
    531. D(H  81,C  30,C  28,C  27)     63.4769         0.010953   
    532. D(H  80,C  30,C  28,H  76)     60.8577         0.010953   
    533. D(H  80,C  30,C  28,C  29)    178.6243         0.010953   
    534. D(H  80,C  30,C  28,C  27)    -56.1430         0.010953   
    535. D(O  42,C  32,C  18,H  66)     13.0483         0.009841   
    536. D(O  42,C  32,C  18,C  19)   -100.1834         0.009841   
    537. D(O  42,C  32,C  18,C  17)    133.2527         0.009841   
    538. D(C  33,C  32,C  18,H  66)   -168.6675         0.009841   
    539. D(C  33,C  32,C  18,C  19)     78.1009         0.009841   
    540. D(C  33,C  32,C  18,C  17)    -48.4630         0.009841   
    541. D(H  84,C  33,C  32,O  42)    159.1761         0.011934   
    542. D(H  84,C  33,C  32,C  18)    -19.0445         0.011934   
    543. D(H  83,C  33,C  32,O  42)    -86.4934         0.011934   
    544. D(H  83,C  33,C  32,C  18)     95.2861         0.011934   
    545. D(C  34,C  33,C  32,O  42)     34.0242         0.011934   
    546. D(C  34,C  33,C  32,C  18)   -144.1963         0.011934   
    547. D(H  86,C  34,C  33,H  84)   -101.8985         0.010080   
    548. D(H  86,C  34,C  33,H  83)    140.0021         0.010080   
    549. D(H  86,C  34,C  33,C  32)     22.0418         0.010080   
    550. D(H  85,C  34,C  33,H  84)     12.5941         0.010080   
    551. D(H  85,C  34,C  33,H  83)   -105.5053         0.010080   
    552. D(H  85,C  34,C  33,C  32)    136.5344         0.010080   
    553. D(C  35,C  34,C  33,H  84)    133.9118         0.010080   
    554. D(C  35,C  34,C  33,H  83)     15.8124         0.010080   
    555. D(C  35,C  34,C  33,C  32)   -102.1479         0.010080   
    556. D(H  88,C  35,C  34,H  86)     65.4328         0.010671   
    557. D(H  88,C  35,C  34,H  85)    -50.3024         0.010671   
    558. D(H  88,C  35,C  34,C  33)   -171.2247         0.010671   
    559. D(H  87,C  35,C  34,H  86)   -179.7040         0.010671   
    560. D(H  87,C  35,C  34,H  85)     64.5608         0.010671   
    561. D(H  87,C  35,C  34,C  33)    -56.3615         0.010671   
    562. D(C  36,C  35,C  34,H  86)    -57.4005         0.010671   
    563. D(C  36,C  35,C  34,H  85)   -173.1357         0.010671   
    564. D(C  36,C  35,C  34,C  33)     65.9420         0.010671   
    565. D(H  90,C  36,C  35,H  87)    -45.1291         0.010886   
    566. D(H  90,C  36,C  35,C  34)   -167.1020         0.010886   
    567. D(H  89,C  36,C  35,H  88)   -174.3693         0.010886   
    568. D(H  89,C  36,C  35,H  87)     69.9684         0.010886   
    569. D(H  89,C  36,C  35,C  34)    -52.0044         0.010886   
    570. D(C  37,C  36,C  35,H  88)    -51.7569         0.010886   
    571. D(C  37,C  36,C  35,H  87)   -167.4192         0.010886   
    572. D(H  90,C  36,C  35,H  88)     70.5332         0.010886   
    573. D(C  37,C  36,C  35,C  34)     70.6079         0.010886   
    574. D(H  92,C  37,C  36,H  90)   -163.1685         0.010939   
    575. D(H  92,C  37,C  36,H  89)     81.5221         0.010939   
    576. D(H  92,C  37,C  36,C  35)    -40.8325         0.010939   
    577. D(H  91,C  37,C  36,H  90)    -46.5751         0.010939   
    578. D(H  91,C  37,C  36,H  89)   -161.8844         0.010939   
    579. D(H  91,C  37,C  36,C  35)     75.7610         0.010939   
    580. D(C  38,C  37,C  36,H  90)     76.6524         0.010939   
    581. D(C  38,C  37,C  36,H  89)    -38.6569         0.010939   
    582. D(C  38,C  37,C  36,C  35)   -161.0115         0.010939   
    583. D(H  94,C  38,C  37,H  92)   -172.3872         0.011272   
    584. D(H  94,C  38,C  37,H  91)     71.8462         0.011272   
    585. D(H  94,C  38,C  37,C  36)    -51.2151         0.011272   
    586. D(H  93,C  38,C  37,H  92)    -57.7441         0.011272   
    587. D(H  93,C  38,C  37,H  91)   -173.5107         0.011272   
    588. D(H  93,C  38,C  37,C  36)     63.4279         0.011272   
    589. D(C  39,C  38,C  37,H  92)     63.4410         0.011272   
    590. D(C  39,C  38,C  37,H  91)    -52.3255         0.011272   
    591. D(C  39,C  38,C  37,C  36)   -175.3869         0.011272   
    592. D(H  95,C  39,C  38,H  94)    -49.8802         0.011143   
    593. D(H  95,C  39,C  38,H  93)   -165.4141         0.011143   
    594. D(H  95,C  39,C  38,C  37)     74.5759         0.011143   
    595. D(C  40,C  39,C  38,H  94)     72.8873         0.011143   
    596. D(C  40,C  39,C  38,H  93)    -42.6466         0.011143   
    597. D(C  40,C  39,C  38,C  37)   -162.6566         0.011143   
    598. D(H  96,C  39,C  38,H  94)   -165.6250         0.011143   
    599. D(H  96,C  39,C  38,H  93)     78.8411         0.011143   
    600. D(H  96,C  39,C  38,C  37)    -41.1689         0.011143   
    601. D(H  98,C  40,C  39,H  95)     63.9821         0.011090   
    602. D(H  98,C  40,C  39,C  38)    -58.9604         0.011090   
    603. D(H  97,C  40,C  39,H  96)    -66.1341         0.011090   
    604. D(H  97,C  40,C  39,H  95)    178.5932         0.011090   
    605. D(H  97,C  40,C  39,C  38)     55.6507         0.011090   
    606. D(C  41,C  40,C  39,H  96)     55.8795         0.011090   
    607. D(C  41,C  40,C  39,H  95)    -59.3931         0.011090   
    608. D(H  98,C  40,C  39,H  96)    179.2548         0.011090   
    609. D(C  41,C  40,C  39,C  38)    177.6644         0.011090   
    610. D(H 101,C  41,C  40,H  98)    -62.6902         0.011236   
    611. D(H 101,C  41,C  40,H  97)   -178.3163         0.011236   
    612. D(H 101,C  41,C  40,C  39)     60.4209         0.011236   
    613. D(H 100,C  41,C  40,H  98)    177.9832         0.011236   
    614. D(H 100,C  41,C  40,H  97)     62.3571         0.011236   
    615. D(H 100,C  41,C  40,C  39)    -58.9056         0.011236   
    616. D(H  99,C  41,C  40,H  98)     57.5461         0.011236   
    617. D(H  99,C  41,C  40,H  97)    -58.0800         0.011236   
    618. D(H  99,C  41,C  40,C  39)   -179.3427         0.011236   
    619. D(H 102,O  43,C  17,H  65)    -52.9521         0.015839   
    620. D(H 102,O  43,C  17,C  18)   -171.2731         0.015839   
    621. D(H 102,O  43,C  17,C  16)     65.3444         0.015839   
    622. D(H 104,C  45,C  13,H  61)     72.6967         0.011376   
    623. D(H 104,C  45,C  13,C  14)   -167.9808         0.011376   
    624. D(H 104,C  45,C  13,N  12)    -43.4687         0.011376   
    625. D(H 103,C  45,C  13,H  61)   -171.1393         0.011376   
    626. D(H 103,C  45,C  13,C  14)    -51.8168         0.011376   
    627. D(H 103,C  45,C  13,N  12)     72.6953         0.011376   
    628. D(C  46,C  45,C  13,H  61)    -49.0162         0.011376   
    629. D(C  46,C  45,C  13,C  14)     70.3063         0.011376   
    630. D(C  46,C  45,C  13,N  12)   -165.1816         0.011376   
    631. D(H 107,C  46,C  45,H 104)    -61.2619         0.011224   
    632. D(H 107,C  46,C  45,H 103)   -179.4963         0.011224   
    633. D(H 107,C  46,C  45,C  13)     58.9792         0.011224   
    634. D(H 106,C  46,C  45,H 104)    177.9983         0.011224   
    635. D(H 106,C  46,C  45,H 103)     59.7639         0.011224   
    636. D(H 106,C  46,C  45,C  13)    -61.7606         0.011224   
    637. D(H 105,C  46,C  45,H 104)     58.3594         0.011224   
    638. D(H 105,C  46,C  45,H 103)    -59.8749         0.011224   
    639. D(H 105,C  46,C  45,C  13)    178.6005         0.011224   
    640. D(H 108,C  48,C  10,H  59)    168.9160         0.009606   
    641. D(H 108,C  48,C  10,C  11)    -75.0328         0.009606   
    642. D(H 108,C  48,C  10,N   9)     51.2334         0.009606   
    643. D(C  50,C  48,C  10,H  59)    -72.8962         0.009606   
    644. D(C  50,C  48,C  10,C  11)     43.1550         0.009606   
    645. D(C  50,C  48,C  10,N   9)    169.4212         0.009606   
    646. D(C  49,C  48,C  10,H  59)     50.9907         0.009606   
    647. D(C  49,C  48,C  10,C  11)    167.0418         0.009606   
    648. D(C  49,C  48,C  10,N   9)    -66.6919         0.009606   
    649. D(H 111,C  49,C  48,C  50)     58.2246         0.010791   
    650. D(H 111,C  49,C  48,C  10)    -67.1169         0.010791   
    651. D(H 110,C  49,C  48,H 108)     57.4098         0.010791   
    652. D(H 110,C  49,C  48,C  50)    -60.9580         0.010791   
    653. D(H 110,C  49,C  48,C  10)    173.7005         0.010791   
    654. D(H 109,C  49,C  48,H 108)    -63.5784         0.010791   
    655. D(H 109,C  49,C  48,C  50)    178.0539         0.010791   
    656. D(H 111,C  49,C  48,H 108)    176.5924         0.010791   
    657. D(H 109,C  49,C  48,C  10)     52.7123         0.010791   
    658. D(H 114,C  50,C  48,H 108)    -65.2872         0.011085   
    659. D(H 114,C  50,C  48,C  49)     53.8297         0.011085   
    660. D(H 114,C  50,C  48,C  10)    177.3336         0.011085   
    661. D(H 113,C  50,C  48,H 108)    175.2857         0.011085   
    662. D(H 113,C  50,C  48,C  49)    -65.5974         0.011085   
    663. D(H 113,C  50,C  48,C  10)     57.9065         0.011085   
    664. D(H 112,C  50,C  48,H 108)     55.0067         0.011085   
    665. D(H 112,C  50,C  48,C  49)    174.1236         0.011085   
    666. D(H 112,C  50,C  48,C  10)    -62.3726         0.011085   
    -----------------------------------------------------------------

Number of atoms                         .... 115
Number of degrees of freedom            .... 666

         *************************************************************
         *                GEOMETRY OPTIMIZATION CYCLE   1            *
         *************************************************************
---------------------------------
CARTESIAN COORDINATES (ANGSTROEM)
---------------------------------
  O      2.401348    0.083440    0.737436
  C      1.782783   -0.738677    1.412655
  C      0.939369   -0.364394    2.653686
  C     -0.570909   -0.256494    2.372295
  C     -0.786182    1.224470    2.034063
  C      0.270027    1.978595    2.850279
  N      1.318380    0.969853    3.090364
  C      2.634228    1.188451    3.390295
  O      3.400249    0.253817    3.639044
  N      1.808624   -2.071129    1.119865
  C      2.830241   -2.621954    0.233108
  C      2.413934   -2.659638   -1.240392
  N      1.104266   -2.894737   -1.494403
  C      0.613396   -3.155420   -2.848539
  C      0.324825   -1.832161   -3.596054
  N      1.434107   -1.065845   -3.793817
  C      1.328432    0.279042   -4.314998
  C      1.775215    1.362734   -3.324752
  C      1.278722    1.149970   -1.882402
  C      1.440861    2.406529   -1.005588
  N      2.696352    2.916835   -0.946865
  C      3.020603    4.181974   -0.288374
  C      2.986183    4.104908    1.257456
  N      3.137406    2.862463    1.781540
  C      3.131264    2.631921    3.231521
  C      4.505349    2.839851    3.856902
  O      2.900092    5.126842    1.939087
  C      2.184953    5.370745   -0.789295
  C      2.127948    5.510024   -2.316044
  C      3.516697    5.645078   -2.950722
  C      1.235414    6.696625   -2.695381
  O      0.482614    2.884158   -0.386993
  C     -0.181291    0.703023   -1.692707
  C     -1.274911    1.440422   -2.429171
  C     -2.597677    1.588677   -1.645461
  C     -3.710369    0.617123   -2.067570
  C     -3.420629   -0.860679   -1.778758
  C     -3.449945   -1.221812   -0.289524
  C     -2.724603   -2.534117    0.006428
  C     -2.815211   -3.003537    1.459825
  C     -1.759587   -4.054465    1.812288
  C     -1.798720   -4.493891    3.276064
  O     -0.418369   -0.218225   -0.924809
  O      3.221793    1.371684   -3.221900
  O     -0.805771   -1.506563   -3.962750
  C     -0.605872   -4.074171   -2.815771
  C     -0.937773   -4.666059   -4.185889
  O      3.267476   -2.563449   -2.135173
  C      3.229987   -4.029271    0.750446
  C      3.938415   -3.903193    2.105965
  C      4.101504   -4.805795   -0.239865
  H      1.159505   -1.107450    3.435806
  H     -1.123818   -0.547681    3.277050
  H     -0.881078   -0.912645    1.551519
  H     -0.601317    1.400382    0.969958
  H     -1.804751    1.562923    2.262632
  H      0.659796    2.834725    2.286740
  H     -0.125151    2.336031    3.815320
  H      1.403225   -2.703609    1.805770
  H      3.703663   -1.953313    0.267419
  H      0.429282   -2.683108   -0.760927
  H      1.448370   -3.650566   -3.371235
  H      2.323674   -1.414710   -3.413364
  H      0.277652    0.425932   -4.597149
  H      1.929702    0.385994   -5.235158
  H      1.430632    2.340525   -3.710746
  H      1.901325    0.363125   -1.431881
  H      3.379907    2.483673   -1.568162
  H      4.078785    4.368356   -0.532426
  H      3.062991    2.043026    1.172625
  H      2.418285    3.347940    3.670778
  H      4.844825    3.863185    3.653921
  H      4.456036    2.691807    4.944467
  H      5.223863    2.119830    3.447248
  H      2.615307    6.278470   -0.341170
  H      1.165735    5.274324   -0.393324
  H      1.656462    4.596160   -2.721204
  H      4.140340    4.755193   -2.778926
  H      3.441141    5.788604   -4.038852
  H      4.052580    6.513823   -2.536603
  H      0.230698    6.590370   -2.261490
  H      1.662668    7.640820   -2.322890
  H      1.128751    6.784552   -3.786827
  H     -1.451232    0.850190   -3.347970
  H     -0.890572    2.420015   -2.744712
  H     -2.959008    2.618142   -1.783358
  H     -2.386035    1.484313   -0.571947
  H     -3.893342    0.743967   -3.148036
  H     -4.645743    0.913383   -1.561668
  H     -2.438307   -1.122169   -2.200290
  H     -4.153269   -1.485462   -2.316173
  H     -4.494381   -1.274174    0.064925
  H     -2.963823   -0.424779    0.295866
  H     -1.663791   -2.382824   -0.258884
  H     -3.093393   -3.330638   -0.662850
  H     -3.822069   -3.406387    1.663391
  H     -2.697365   -2.138128    2.133402
  H     -0.762876   -3.637596    1.576184
  H     -1.877617   -4.930627    1.152413
  H     -1.022257   -5.239494    3.500437
  H     -1.646431   -3.636351    3.949360
  H     -2.771977   -4.940496    3.528633
  H      3.582954    1.641830   -4.084394
  H     -1.467073   -3.506204   -2.435990
  H     -0.396597   -4.879555   -2.094615
  H     -1.803319   -5.339216   -4.117420
  H     -1.182847   -3.873279   -4.903876
  H     -0.092024   -5.247846   -4.583334
  H      2.286885   -4.592856    0.886397
  H      3.361782   -3.322101    2.838703
  H      4.125813   -4.897676    2.534192
  H      4.908024   -3.398650    1.981852
  H      3.583005   -5.003423   -1.186219
  H      5.018548   -4.248121   -0.476875
  H      4.390023   -5.770300    0.201146

----------------------------
CARTESIAN COORDINATES (A.U.)
----------------------------
  NO LB      ZA    FRAG     MASS         X           Y           Z
   0 O     8.0000    0    15.999    4.537890    0.157679    1.393552
   1 C     6.0000    0    12.011    3.368972   -1.395897    2.669531
   2 C     6.0000    0    12.011    1.775150   -0.688605    5.014740
   3 C     6.0000    0    12.011   -1.078862   -0.484703    4.482987
   4 C     6.0000    0    12.011   -1.485668    2.313912    3.843821
   5 C     6.0000    0    12.011    0.510277    3.739002    5.386247
   6 N     7.0000    0    14.007    2.491377    1.832756    5.839941
   7 C     6.0000    0    12.011    4.977969    2.245847    6.406728
   8 O     8.0000    0    15.999    6.425540    0.479645    6.876796
   9 N     7.0000    0    14.007    3.417804   -3.913867    2.116239
  10 C     6.0000    0    12.011    5.348380   -4.954774    0.440511
  11 C     6.0000    0    12.011    4.561675   -5.025988   -2.344001
  12 N     7.0000    0    14.007    2.086761   -5.470261   -2.824013
  13 C     6.0000    0    12.011    1.159151   -5.962879   -5.382959
  14 C     6.0000    0    12.011    0.613831   -3.462283   -6.795557
  15 N     7.0000    0    14.007    2.710069   -2.014155   -7.169275
  16 C     6.0000    0    12.011    2.510372    0.527313   -8.154164
  17 C     6.0000    0    12.011    3.354671    2.575193   -6.282870
  18 C     6.0000    0    12.011    2.416434    2.173129   -3.557223
  19 C     6.0000    0    12.011    2.722833    4.547680   -1.900286
  20 N     7.0000    0    14.007    5.095366    5.512020   -1.789316
  21 C     6.0000    0    12.011    5.708112    7.902786   -0.544948
  22 C     6.0000    0    12.011    5.643069    7.757152    2.376247
  23 N     7.0000    0    14.007    5.928838    5.409271    3.366623
  24 C     6.0000    0    12.011    5.917231    4.973610    6.106689
  25 C     6.0000    0    12.011    8.513875    5.366540    7.288489
  26 O     8.0000    0    15.999    5.480380    9.688327    3.664343
  27 C     6.0000    0    12.011    4.128963   10.149238   -1.491552
  28 C     6.0000    0    12.011    4.021240   10.412436   -4.376689
  29 C     6.0000    0    12.011    6.645594   10.667651   -5.576057
  30 C     6.0000    0    12.011    2.334593   12.654788   -5.093531
  31 O     8.0000    0    15.999    0.912008    5.450268   -0.731312
  32 C     6.0000    0    12.011   -0.342590    1.328520   -3.198752
  33 C     6.0000    0    12.011   -2.409232    2.722002   -4.590468
  34 C     6.0000    0    12.011   -4.908898    3.002165   -3.109470
  35 C     6.0000    0    12.011   -7.011581    1.166194   -3.907141
  36 C     6.0000    0    12.011   -6.464051   -1.626447   -3.361365
  37 C     6.0000    0    12.011   -6.519452   -2.308890   -0.547121
  38 C     6.0000    0    12.011   -5.148754   -4.788788    0.012147
  39 C     6.0000    0    12.011   -5.319978   -5.675863    2.758669
  40 C     6.0000    0    12.011   -3.325138   -7.661828    3.424727
  41 C     6.0000    0    12.011   -3.399088   -8.492222    6.190863
  42 O     8.0000    0    15.999   -0.790602   -0.412385   -1.747637
  43 O     8.0000    0    15.999    6.088307    2.592106   -6.088508
  44 O     8.0000    0    15.999   -1.522686   -2.846992   -7.488513
  45 C     6.0000    0    12.011   -1.144932   -7.699067   -5.321035
  46 C     6.0000    0    12.011   -1.772135   -8.817574   -7.910185
  47 O     8.0000    0    15.999    6.174636   -4.844217   -4.034892
  48 C     6.0000    0    12.011    6.103791   -7.614219    1.418138
  49 C     6.0000    0    12.011    7.442525   -7.375966    3.979696
  50 C     6.0000    0    12.011    7.750720   -9.081636   -0.453279
  51 H     1.0000    0     1.008    2.191146   -2.092778    6.492732
  52 H     1.0000    0     1.008   -2.123708   -1.034968    6.192728
  53 H     1.0000    0     1.008   -1.664997   -1.724650    2.931947
  54 H     1.0000    0     1.008   -1.136324    2.646339    1.832955
  55 H     1.0000    0     1.008   -3.410485    2.953497    4.275756
  56 H     1.0000    0     1.008    1.246834    5.356853    4.321313
  57 H     1.0000    0     1.008   -0.236502    4.414460    7.209910
  58 H     1.0000    0     1.008    2.651711   -5.109080    3.412412
  59 H     1.0000    0     1.008    6.998909   -3.691227    0.505349
  60 H     1.0000    0     1.008    0.811225   -5.070339   -1.437944
  61 H     1.0000    0     1.008    2.737022   -6.898569   -6.370711
  62 H     1.0000    0     1.008    4.391107   -2.673415   -6.450323
  63 H     1.0000    0     1.008    0.524687    0.804894   -8.687353
  64 H     1.0000    0     1.008    3.646609    0.729423   -9.893014
  65 H     1.0000    0     1.008    2.703503    4.422951   -7.012294
  66 H     1.0000    0     1.008    3.592984    0.686207   -2.705863
  67 H     1.0000    0     1.008    6.387098    4.693462   -2.963396
  68 H     1.0000    0     1.008    7.707787    8.254996   -1.006139
  69 H     1.0000    0     1.008    5.788214    3.860759    2.215941
  70 H     1.0000    0     1.008    4.569896    6.326690    6.936765
  71 H     1.0000    0     1.008    9.155393    7.300362    6.904910
  72 H     1.0000    0     1.008    8.420689    5.086778    9.343689
  73 H     1.0000    0     1.008    9.871671    4.005898    6.514354
  74 H     1.0000    0     1.008    4.942214   11.864588   -0.644718
  75 H     1.0000    0     1.008    2.202919    9.967027   -0.743274
  76 H     1.0000    0     1.008    3.130260    8.685483   -5.142330
  77 H     1.0000    0     1.008    7.824108    8.986012   -5.251408
  78 H     1.0000    0     1.008    6.502813   10.938876   -7.632325
  79 H     1.0000    0     1.008    7.658266   12.309341   -4.793485
  80 H     1.0000    0     1.008    0.435955   12.453995   -4.273598
  81 H     1.0000    0     1.008    3.141988   14.439056   -4.389626
  82 H     1.0000    0     1.008    2.133029   12.820946   -7.156065
  83 H     1.0000    0     1.008   -2.742432    1.606627   -6.326747
  84 H     1.0000    0     1.008   -1.682937    4.573166   -5.186754
  85 H     1.0000    0     1.008   -5.591714    4.947572   -3.370059
  86 H     1.0000    0     1.008   -4.508953    2.804945   -1.080824
  87 H     1.0000    0     1.008   -7.357349    1.405894   -5.948926
  88 H     1.0000    0     1.008   -8.779183    1.726044   -2.951126
  89 H     1.0000    0     1.008   -4.607732   -2.120592   -4.157946
  90 H     1.0000    0     1.008   -7.848542   -2.807116   -4.376932
  91 H     1.0000    0     1.008   -8.493148   -2.407840    0.122690
  92 H     1.0000    0     1.008   -5.600814   -0.802715    0.559105
  93 H     1.0000    0     1.008   -3.144110   -4.502885   -0.489220
  94 H     1.0000    0     1.008   -5.845666   -6.293993   -1.252605
  95 H     1.0000    0     1.008   -7.222664   -6.437139    3.143353
  96 H     1.0000    0     1.008   -5.097282   -4.040477    4.031545
  97 H     1.0000    0     1.008   -1.441628   -6.874060    2.978557
  98 H     1.0000    0     1.008   -3.548182   -9.317534    2.177745
  99 H     1.0000    0     1.008   -1.931786   -9.901209    6.614867
 100 H     1.0000    0     1.008   -3.111303   -6.871708    7.463209
 101 H     1.0000    0     1.008   -5.238277   -9.336184    6.668151
 102 H     1.0000    0     1.008    6.770801    3.102608   -7.718386
 103 H     1.0000    0     1.008   -2.772366   -6.625766   -4.603354
 104 H     1.0000    0     1.008   -0.749459   -9.221022   -3.958249
 105 H     1.0000    0     1.008   -3.407778  -10.089656   -7.780796
 106 H     1.0000    0     1.008   -2.235256   -7.319437   -9.266982
 107 H     1.0000    0     1.008   -0.173901   -9.916991   -8.661246
 108 H     1.0000    0     1.008    4.321587   -8.679240    1.675048
 109 H     1.0000    0     1.008    6.352848   -6.277861    5.364371
 110 H     1.0000    0     1.008    7.796656   -9.255267    4.788929
 111 H     1.0000    0     1.008    9.274821   -6.422518    3.745158
 112 H     1.0000    0     1.008    6.770898   -9.455099   -2.241628
 113 H     1.0000    0     1.008    9.483681   -8.027786   -0.901164
 114 H     1.0000    0     1.008    8.295941  -10.904287    0.380110

--------------------------------
INTERNAL COORDINATES (ANGSTROEM)
--------------------------------
 O      0   0   0     0.000000000000     0.00000000     0.00000000
 C      1   0   0     1.230617390003     0.00000000     0.00000000
 C      2   1   0     1.546478015766   123.55654887     0.00000000
 C      3   2   1     1.540053094235   113.90132852    99.20779165
 C      4   3   2     1.534274003428   104.21162799   267.81717102
 C      5   4   3     1.533131360558   105.11560460   329.02970829
 N      3   2   1     1.454149178135   108.71763963   343.45620507
 C      7   3   2     1.367186612572   117.60918131   303.14473468
 O      8   7   3     1.233777252176   121.37711656   340.69514820
 N      2   1   3     1.364486339774   121.67591837   180.81342088
 C     10   2   1     1.460632473642   120.78230517    16.37320424
 C     11  10   2     1.531644154513   113.78010448   268.61889742
 N     12  11  10     1.354630287700   116.58002525   325.86040699
 C     13  12  11     1.463759937742   121.91064887   189.38213191
 C     14  13  12     1.546953346566   110.93117616   274.79932924
 N     15  14  13     1.362665032927   113.53569109    63.54076340
 C     16  15  14     1.446208329608   121.04991646   188.27292928
 C     17  16  15     1.534467267616   113.76051338   115.10771883
 C     18  17  16     1.540177907122   114.38869488   316.91312479
 C     19  18  17     1.540788652991   112.72701880   194.22195676
 N     20  19  18     1.356509559704   115.39296336   304.79250842
 C     21  20  19     1.462643567932   123.37123750   173.14830912
 C     22  21  20     1.548131864818   113.67509785    73.52107736
 N     23  22  21     1.356909114081   115.38906303    22.28594049
 C     24  23  22     1.468206726303   121.65140683   179.77520829
 C     25  24  23     1.523957526768   112.33840670   274.76393447
 O     23  22  21     1.231414396049   120.86082247   198.49743873
 C     22  21  20     1.537013239681   113.68685310   305.79729517
 C     28  22  21     1.534148329534   114.50369058   310.78971352
 C     29  28  22     1.532866017438   112.72973297   302.40296410
 C     29  28  22     1.532493866858   109.77153642   178.22086058
 O     20  19  18     1.236537882282   121.20786756   126.09569615
 C     19  18  17     1.538630491598   117.48232142   317.15666264
 C     33  19  18     1.510675692071   119.01518644   311.53697616
 C     34  33  19     1.544633474112   114.79961102   215.80369266
 C     35  34  33     1.536287048327   114.84312844   257.85209310
 C     36  35  34     1.533381798327   114.88987800    65.94199071
 C     37  36  35     1.532675613930   113.98386113    70.60791906
 C     38  37  36     1.528350189831   112.41984045   198.98849528
 C     39  38  37     1.530009209654   114.78902747   184.61311104
 C     40  39  38     1.530692836705   112.86357545   197.34344927
 C     41  40  39     1.528812078340   113.58792452   177.66438473
 O     33  19  18     1.222525759315   118.70848786   133.25274817
 O     18  17  16     1.450257214438   109.91051223    74.50338610
 O     15  14  13     1.232366832867   122.74631581   244.14119586
 C     14  13  12     1.527020693847   110.79724068   149.63031507
 C     46  14  13     1.528959101335   112.76872669   194.81840564
 O     12  11  10     1.240330716896   120.33584521   150.34957273
 C     11  10   2     1.551766090502   108.65011120   143.61364545
 C     49  11  10     1.534664406514   109.80860716   293.30810440
 C     49  11  10     1.530767115471   113.01928138   169.42123639
 H      3   2   1     1.101046627071   107.31771356   223.65886097
 H      4   3   2     1.099582149303   108.91823956   148.71245316
 H      4   3   2     1.095632944552   111.87247202    28.91582430
 H      5   4   3     1.094275261997   110.23311049    86.11442524
 H      5   4   3     1.097396065342   112.45842486   206.75088629
 H      6   5   4     1.096564664751   110.81234862   143.39026988
 H      6   5   4     1.102374832403   112.24613537   265.40625584
 H     10   2   1     1.017272708557   117.05947293   170.16650939
 H     11  10   2     1.100510237069   107.88189926    24.81663845
 H     13  12  11     1.019007984599   117.99490532    22.87438295
 H     14  13  12     1.102524916976   105.34295261    30.51802730
 H     16  15  14     1.028484611005   117.36494973   358.16204685
 H     17  16  15     1.097871890676   106.67686567   353.02601247
 H     17  16  15     1.104381894114   110.52024794   236.93291117
 H     18  17  16     1.106257122749   107.96021876   193.60445070
 H     19  18  17     1.099876875791   107.45405581    76.69600839
 H     21  20  19     1.020238579522   115.72292240     6.63821956
 H     22  21  20     1.101838847408   105.04038701   187.19507762
 H     24  23  22     1.023617044032   119.67910128   347.00952738
 H     25  24  23     1.101802425291   107.12076183    34.84632567
 H     26  25  24     1.097113881196   109.28929324    58.50992869
 H     26  25  24     1.098702068101   110.32557891   178.12997417
 H     26  25  24     1.096590032844   110.35894480   297.52876671
 H     28  22  21     1.099992721153   107.02345595   188.36914784
 H     28  22  21     1.097677618762   108.62169925    73.41548429
 H     29  28  22     1.105260786313   107.79376611    61.39218670
 H     30  29  28     1.100154323806   112.18819015    62.38886955
 H     30  29  28     1.100152584669   111.02621555   182.56190761
 H     30  29  28     1.101536357130   110.76736169   302.04735700
 H     31  29  28     1.099547647763   111.08026146   303.85699966
 H     31  29  28     1.101271366089   110.74306533    63.47694082
 H     31  29  28     1.100164645738   111.34085538   183.32603697
 H     34  33  19     1.106189155832   105.06195100    95.28609080
 H     34  33  19     1.098583706311   108.78476690   340.95554791
 H     35  34  33     1.099715225169   107.91471235   136.53439523
 H     35  34  33     1.099142835036   108.75595551    22.04180139
 H     36  35  34     1.103165712087   108.45259353   303.63846052
 H     36  35  34     1.103916807186   108.54552172   188.77531165
 H     37  36  35     1.100464724535   108.99750731   307.99555513
 H     37  36  35     1.102692793606   109.19118385   192.89799784
 H     38  37  36     1.104183165144   109.94837636    75.76100770
 H     38  37  36     1.101933774669   109.71342122   319.16753872
 H     39  38  37     1.103903027131   106.96855370    63.42794124
 H     39  38  37     1.103803959334   110.09824646   308.78486439
 H     40  39  38     1.103399145103   109.95647619    74.57594411
 H     40  39  38     1.102962315008   109.45473376   318.83114169
 H     41  40  39     1.105873738290   108.27587166    55.65071808
 H     41  40  39     1.103188322328   109.49733008   301.03964122
 H     42  41  40     1.099619017318   111.85043980   180.65728524
 H     42  41  40     1.100860415116   110.98667948   301.09436399
 H     42  41  40     1.100216847377   111.04590520    60.42093863
 H     44  18  17     0.973299583743   107.99861301    65.34439199
 H     46  14  13     1.099311295474   108.78853703    72.69527332
 H     46  14  13     1.101137985643   107.59974262   316.53132503
 H     47  46  14     1.098634246276   110.63230283   178.60054988
 H     47  46  14     1.097298901798   110.80211936   298.23940882
 H     47  46  14     1.100785809819   111.18391602    58.97921718
 H     49  11  10     1.107046720684   106.45030007    51.23343134
 H     50  49  11     1.098671227361   112.97018944    52.71232829
 H     50  49  11     1.098860354512   110.40075362   173.70045716
 H     50  49  11     1.100049736820   110.17607217   292.88309452
 H     51  49  11     1.097034051820   112.35695092   297.62741291
 H     51  49  11     1.099154888896   110.92393397    57.90647046
 H     51  49  11     1.099092238628   109.57434337   177.33355584

---------------------------
INTERNAL COORDINATES (A.U.)
---------------------------
 O      0   0   0     0.000000000000     0.00000000     0.00000000
 C      1   0   0     2.325529842747     0.00000000     0.00000000
 C      2   1   0     2.922419921927   123.55654887     0.00000000
 C      3   2   1     2.910278579802   113.90132852    99.20779165
 C      4   3   2     2.899357680874   104.21162799   267.81717102
 C      5   4   3     2.897198398780   105.11560460   329.02970829
 N      3   2   1     2.747943704542   108.71763963   343.45620507
 C      7   3   2     2.583608271725   117.60918131   303.14473468
 O      8   7   3     2.331501116874   121.37711656   340.69514820
 N      2   1   3     2.578505495649   121.67591837   180.81342088
 C     10   2   1     2.760195357495   120.78230517    16.37320424
 C     11  10   2     2.894387986651   113.78010448   268.61889742
 N     12  11  10     2.559880256467   116.58002525   325.86040699
 C     13  12  11     2.766105408138   121.91064887   189.38213191
 C     14  13  12     2.923318166962   110.93117616   274.79932924
 N     15  14  13     2.575063724502   113.53569109    63.54076340
 C     16  15  14     2.732937675555   121.04991646   188.27292928
 C     17  16  15     2.899722897260   113.76051338   115.10771883
 C     18  17  16     2.910514441976   114.38869488   316.91312479
 C     19  18  17     2.911668584407   112.72701880   194.22195676
 N     20  19  18     2.563431565887   115.39296336   304.79250842
 C     21  20  19     2.763995774933   123.37123750   173.14830912
 C     22  21  20     2.925545243703   113.67509785    73.52107736
 N     23  22  21     2.564186614234   115.38906303    22.28594049
 C     24  23  22     2.774508620693   121.65140683   179.77520829
 C     25  24  23     2.879862365320   112.33840670   274.76393447
 O     23  22  21     2.327035965901   120.86082247   198.49743873
 C     22  21  20     2.904534087208   113.68685310   305.79729517
 C     28  22  21     2.899120191632   114.50369058   310.78971352
 C     29  28  22     2.896696972952   112.72973297   302.40296410
 C     29  28  22     2.895993710275   109.77153642   178.22086058
 O     20  19  18     2.336717951732   121.20786756   126.09569615
 C     19  18  17     2.907590250421   117.48232142   317.15666264
 C     33  19  18     2.854763335187   119.01518644   311.53697616
 C     34  33  19     2.918934243359   114.79961102   215.80369266
 C     35  34  33     2.903161784429   114.84312844   257.85209310
 C     36  35  34     2.897671657579   114.88987800    65.94199071
 C     37  36  35     2.896337162467   113.98386113    70.60791906
 C     38  37  36     2.888163295506   112.41984045   198.98849528
 C     39  38  37     2.891298388624   114.78902747   184.61311104
 C     40  39  38     2.892590256528   112.86357545   197.34344927
 C     41  40  39     2.889036138293   113.58792452   177.66438473
 O     33  19  18     2.310238876770   118.70848786   133.25274817
 O     18  17  16     2.740588959031   109.91051223    74.50338610
 O     15  14  13     2.328835810646   122.74631581   244.14119586
 C     14  13  12     2.885650912201   110.79724068   149.63031507
 C     46  14  13     2.889313971490   112.76872669   194.81840564
 O     12  11  10     2.343885370424   120.33584521   150.34957273
 C     11  10   2     2.932412934954   108.65011120   143.61364545
 C     49  11  10     2.900095435789   109.80860716   293.30810440
 C     49  11  10     2.892730623053   113.01928138   169.42123639
 H      3   2   1     2.080676585842   107.31771356   223.65886097
 H      4   3   2     2.077909123930   108.91823956   148.71245316
 H      4   3   2     2.070446208505   111.87247202    28.91582430
 H      5   4   3     2.067880560299   110.23311049    86.11442524
 H      5   4   3     2.073778023940   112.45842486   206.75088629
 H      6   5   4     2.072206904514   110.81234862   143.39026988
 H      6   5   4     2.083186530169   112.24613537   265.40625584
[...]
freq.      93.75  E(vib)   ...       0.47 
freq.      95.61  E(vib)   ...       0.47 
freq.     102.85  E(vib)   ...       0.46 
freq.     106.15  E(vib)   ...       0.45 
freq.     108.71  E(vib)   ...       0.45 
freq.     118.91  E(vib)   ...       0.44 
freq.     122.79  E(vib)   ...       0.43 
freq.     128.74  E(vib)   ...       0.43 
freq.     134.28  E(vib)   ...       0.42 
freq.     138.34  E(vib)   ...       0.42 
freq.     145.84  E(vib)   ...       0.41 
freq.     154.25  E(vib)   ...       0.40 
freq.     157.31  E(vib)   ...       0.40 
freq.     163.23  E(vib)   ...       0.39 
freq.     165.87  E(vib)   ...       0.39 
freq.     168.18  E(vib)   ...       0.38 
freq.     172.43  E(vib)   ...       0.38 
freq.     177.21  E(vib)   ...       0.37 
freq.     185.96  E(vib)   ...       0.37 
freq.     190.97  E(vib)   ...       0.36 
freq.     194.76  E(vib)   ...       0.36 
freq.     198.67  E(vib)   ...       0.35 
freq.     201.64  E(vib)   ...       0.35 
freq.     209.19  E(vib)   ...       0.34 
freq.     217.87  E(vib)   ...       0.33 
freq.     221.53  E(vib)   ...       0.33 
freq.     225.35  E(vib)   ...       0.33 
freq.     225.70  E(vib)   ...       0.33 
freq.     232.10  E(vib)   ...       0.32 
freq.     238.21  E(vib)   ...       0.32 
freq.     240.17  E(vib)   ...       0.31 
freq.     245.80  E(vib)   ...       0.31 
freq.     249.99  E(vib)   ...       0.31 
freq.     253.61  E(vib)   ...       0.30 
freq.     260.18  E(vib)   ...       0.30 
freq.     269.65  E(vib)   ...       0.29 
freq.     273.36  E(vib)   ...       0.29 
freq.     281.41  E(vib)   ...       0.28 
freq.     287.94  E(vib)   ...       0.27 
freq.     291.64  E(vib)   ...       0.27 
freq.     299.67  E(vib)   ...       0.26 
freq.     308.78  E(vib)   ...       0.26 
freq.     315.25  E(vib)   ...       0.25 
freq.     319.96  E(vib)   ...       0.25 
freq.     324.67  E(vib)   ...       0.24 
freq.     330.21  E(vib)   ...       0.24 
freq.     337.48  E(vib)   ...       0.24 
freq.     341.70  E(vib)   ...       0.23 
freq.     347.56  E(vib)   ...       0.23 
freq.     364.30  E(vib)   ...       0.22 
freq.     371.34  E(vib)   ...       0.21 
freq.     373.13  E(vib)   ...       0.21 
freq.     391.05  E(vib)   ...       0.20 
freq.     395.35  E(vib)   ...       0.20 
freq.     400.92  E(vib)   ...       0.19 
freq.     414.80  E(vib)   ...       0.19 
freq.     416.68  E(vib)   ...       0.18 
freq.     428.16  E(vib)   ...       0.18 
freq.     432.59  E(vib)   ...       0.18 
freq.     437.41  E(vib)   ...       0.17 
freq.     446.46  E(vib)   ...       0.17 
freq.     471.12  E(vib)   ...       0.15 
freq.     476.45  E(vib)   ...       0.15 
freq.     479.62  E(vib)   ...       0.15 
freq.     492.14  E(vib)   ...       0.14 
freq.     508.39  E(vib)   ...       0.14 
freq.     524.13  E(vib)   ...       0.13 
freq.     537.24  E(vib)   ...       0.12 
freq.     546.16  E(vib)   ...       0.12 
freq.     564.83  E(vib)   ...       0.11 
freq.     582.82  E(vib)   ...       0.11 
freq.     587.90  E(vib)   ...       0.10 
freq.     588.85  E(vib)   ...       0.10 
freq.     602.55  E(vib)   ...       0.10 
freq.     624.84  E(vib)   ...       0.09 
freq.     644.77  E(vib)   ...       0.09 
freq.     650.50  E(vib)   ...       0.08 
freq.     657.95  E(vib)   ...       0.08 
freq.     684.15  E(vib)   ...       0.07 
freq.     686.89  E(vib)   ...       0.07 
freq.     691.56  E(vib)   ...       0.07 
freq.     701.79  E(vib)   ...       0.07 
freq.     714.21  E(vib)   ...       0.07 
freq.     715.00  E(vib)   ...       0.07 
freq.     717.90  E(vib)   ...       0.07 
freq.     721.92  E(vib)   ...       0.07 
freq.     732.55  E(vib)   ...       0.06 
freq.     741.01  E(vib)   ...       0.06 
freq.     754.24  E(vib)   ...       0.06 
freq.     759.37  E(vib)   ...       0.06 
freq.     763.21  E(vib)   ...       0.06 
freq.     777.59  E(vib)   ...       0.05 
freq.     786.72  E(vib)   ...       0.05 
freq.     812.11  E(vib)   ...       0.05 
freq.     812.65  E(vib)   ...       0.05 
freq.     818.91  E(vib)   ...       0.05 
freq.     824.08  E(vib)   ...       0.05 
freq.     835.05  E(vib)   ...       0.04 
freq.     847.20  E(vib)   ...       0.04 
freq.     851.34  E(vib)   ...       0.04 
freq.     857.55  E(vib)   ...       0.04 
freq.     865.59  E(vib)   ...       0.04 
freq.     872.73  E(vib)   ...       0.04 
freq.     880.36  E(vib)   ...       0.04 
freq.     881.52  E(vib)   ...       0.04 
freq.     889.97  E(vib)   ...       0.04 
freq.     894.50  E(vib)   ...       0.03 
freq.     898.11  E(vib)   ...       0.03 
freq.     899.29  E(vib)   ...       0.03 
freq.     904.74  E(vib)   ...       0.03 
freq.     909.90  E(vib)   ...       0.03 
freq.     915.80  E(vib)   ...       0.03 
freq.     924.98  E(vib)   ...       0.03 
freq.     930.51  E(vib)   ...       0.03 
freq.     933.26  E(vib)   ...       0.03 
freq.     940.00  E(vib)   ...       0.03 
freq.     941.72  E(vib)   ...       0.03 
freq.     943.62  E(vib)   ...       0.03 
freq.     950.18  E(vib)   ...       0.03 
freq.     953.89  E(vib)   ...       0.03 
freq.     961.99  E(vib)   ...       0.03 
freq.     971.10  E(vib)   ...       0.03 
freq.     974.78  E(vib)   ...       0.03 
freq.     984.45  E(vib)   ...       0.02 
freq.     988.26  E(vib)   ...       0.02 
freq.     991.55  E(vib)   ...       0.02 
freq.    1010.43  E(vib)   ...       0.02 
freq.    1025.30  E(vib)   ...       0.02 
freq.    1030.99  E(vib)   ...       0.02 
freq.    1036.08  E(vib)   ...       0.02 
freq.    1038.12  E(vib)   ...       0.02 
freq.    1040.39  E(vib)   ...       0.02 
freq.    1047.76  E(vib)   ...       0.02 
freq.    1050.65  E(vib)   ...       0.02 
freq.    1052.98  E(vib)   ...       0.02 
freq.    1056.67  E(vib)   ...       0.02 
freq.    1059.58  E(vib)   ...       0.02 
freq.    1071.46  E(vib)   ...       0.02 
freq.    1079.66  E(vib)   ...       0.02 
freq.    1080.15  E(vib)   ...       0.02 
freq.    1081.84  E(vib)   ...       0.02 
freq.    1102.28  E(vib)   ...       0.02 
freq.    1104.06  E(vib)   ...       0.02 
freq.    1104.44  E(vib)   ...       0.02 
freq.    1107.08  E(vib)   ...       0.02 
freq.    1111.27  E(vib)   ...       0.01 
freq.    1112.90  E(vib)   ...       0.01 
freq.    1117.51  E(vib)   ...       0.01 
freq.    1130.00  E(vib)   ...       0.01 
freq.    1136.75  E(vib)   ...       0.01 
freq.    1138.97  E(vib)   ...       0.01 
freq.    1140.40  E(vib)   ...       0.01 
freq.    1153.02  E(vib)   ...       0.01 
freq.    1154.56  E(vib)   ...       0.01 
freq.    1156.13  E(vib)   ...       0.01 
freq.    1159.66  E(vib)   ...       0.01 
freq.    1162.25  E(vib)   ...       0.01 
freq.    1178.41  E(vib)   ...       0.01 
freq.    1180.22  E(vib)   ...       0.01 
freq.    1185.39  E(vib)   ...       0.01 
freq.    1192.69  E(vib)   ...       0.01 
freq.    1198.22  E(vib)   ...       0.01 
freq.    1201.73  E(vib)   ...       0.01 
freq.    1202.61  E(vib)   ...       0.01 
freq.    1209.89  E(vib)   ...       0.01 
freq.    1211.53  E(vib)   ...       0.01 
freq.    1213.16  E(vib)   ...       0.01 
freq.    1215.59  E(vib)   ...       0.01 
freq.    1228.56  E(vib)   ...       0.01 
freq.    1230.29  E(vib)   ...       0.01 
freq.    1232.89  E(vib)   ...       0.01 
freq.    1234.55  E(vib)   ...       0.01 
freq.    1238.52  E(vib)   ...       0.01 
freq.    1250.33  E(vib)   ...       0.01 
freq.    1254.12  E(vib)   ...       0.01 
freq.    1255.91  E(vib)   ...       0.01 
freq.    1256.83  E(vib)   ...       0.01 
freq.    1266.46  E(vib)   ...       0.01 
freq.    1275.75  E(vib)   ...       0.01 
freq.    1276.80  E(vib)   ...       0.01 
freq.    1281.57  E(vib)   ...       0.01 
freq.    1285.24  E(vib)   ...       0.01 
freq.    1285.90  E(vib)   ...       0.01 
freq.    1286.83  E(vib)   ...       0.01 
freq.    1289.34  E(vib)   ...       0.01 
freq.    1296.72  E(vib)   ...       0.01 
freq.    1300.55  E(vib)   ...       0.01 
freq.    1301.01  E(vib)   ...       0.01 
freq.    1308.11  E(vib)   ...       0.01 
freq.    1311.88  E(vib)   ...       0.01 
freq.    1316.91  E(vib)   ...       0.01 
freq.    1317.65  E(vib)   ...       0.01 
freq.    1321.18  E(vib)   ...       0.01 
freq.    1324.52  E(vib)   ...       0.01 
freq.    1324.56  E(vib)   ...       0.01 
freq.    1327.02  E(vib)   ...       0.01 
freq.    1327.78  E(vib)   ...       0.01 
freq.    1332.00  E(vib)   ...       0.01 
freq.    1332.21  E(vib)   ...       0.01 
freq.    1334.43  E(vib)   ...       0.01 
freq.    1335.45  E(vib)   ...       0.01 
freq.    1337.95  E(vib)   ...       0.01 
freq.    1338.25  E(vib)   ...       0.01 
freq.    1339.74  E(vib)   ...       0.01 
freq.    1343.67  E(vib)   ...       0.01 
freq.    1349.02  E(vib)   ...       0.01 
freq.    1354.28  E(vib)   ...       0.01 
freq.    1359.13  E(vib)   ...       0.01 
freq.    1360.13  E(vib)   ...       0.01 
freq.    1360.86  E(vib)   ...       0.01 
freq.    1363.82  E(vib)   ...       0.01 
freq.    1368.59  E(vib)   ...       0.01 
freq.    1369.84  E(vib)   ...       0.01 
freq.    1379.43  E(vib)   ...       0.01 
freq.    1380.18  E(vib)   ...       0.01 
freq.    1394.09  E(vib)   ...       0.00 
freq.    1425.08  E(vib)   ...       0.00 
freq.    1425.85  E(vib)   ...       0.00 
freq.    1427.40  E(vib)   ...       0.00 
freq.    1430.47  E(vib)   ...       0.00 
freq.    1432.98  E(vib)   ...       0.00 
freq.    1434.16  E(vib)   ...       0.00 
freq.    1434.86  E(vib)   ...       0.00 
freq.    1436.76  E(vib)   ...       0.00 
freq.    1437.47  E(vib)   ...       0.00 
freq.    1437.69  E(vib)   ...       0.00 
freq.    1439.30  E(vib)   ...       0.00 
freq.    1439.45  E(vib)   ...       0.00 
freq.    1440.63  E(vib)   ...       0.00 
freq.    1443.15  E(vib)   ...       0.00 
freq.    1445.26  E(vib)   ...       0.00 
freq.    1448.15  E(vib)   ...       0.00 
freq.    1448.66  E(vib)   ...       0.00 
freq.    1450.46  E(vib)   ...       0.00 
freq.    1453.24  E(vib)   ...       0.00 
freq.    1454.16  E(vib)   ...       0.00 
freq.    1455.90  E(vib)   ...       0.00 
freq.    1455.96  E(vib)   ...       0.00 
freq.    1457.67  E(vib)   ...       0.00 
freq.    1460.92  E(vib)   ...       0.00 
freq.    1461.93  E(vib)   ...       0.00 
freq.    1464.29  E(vib)   ...       0.00 
freq.    1465.09  E(vib)   ...       0.00 
freq.    1471.26  E(vib)   ...       0.00 
freq.    1479.99  E(vib)   ...       0.00 
freq.    1486.79  E(vib)   ...       0.00 
freq.    1512.64  E(vib)   ...       0.00 
freq.    1517.80  E(vib)   ...       0.00 
freq.    1642.61  E(vib)   ...       0.00 
freq.    1651.29  E(vib)   ...       0.00 
freq.    1654.05  E(vib)   ...       0.00 
freq.    1677.65  E(vib)   ...       0.00 
freq.    1680.22  E(vib)   ...       0.00 
freq.    1683.56  E(vib)   ...       0.00 
freq.    1702.54  E(vib)   ...       0.00 
freq.    2908.56  E(vib)   ...       0.00 
freq.    2912.65  E(vib)   ...       0.00 
freq.    2917.84  E(vib)   ...       0.00 
freq.    2922.06  E(vib)   ...       0.00 
freq.    2931.36  E(vib)   ...       0.00 
freq.    2934.36  E(vib)   ...       0.00 
freq.    2935.08  E(vib)   ...       0.00 
freq.    2936.90  E(vib)   ...       0.00 
freq.    2939.00  E(vib)   ...       0.00 
freq.    2946.81  E(vib)   ...       0.00 
freq.    2947.36  E(vib)   ...       0.00 
freq.    2951.45  E(vib)   ...       0.00 
freq.    2951.70  E(vib)   ...       0.00 
freq.    2953.85  E(vib)   ...       0.00 
freq.    2955.40  E(vib)   ...       0.00 
freq.    2957.22  E(vib)   ...       0.00 
freq.    2961.87  E(vib)   ...       0.00 
freq.    2965.78  E(vib)   ...       0.00 
freq.    2967.07  E(vib)   ...       0.00 
freq.    2967.47  E(vib)   ...       0.00 
freq.    2968.40  E(vib)   ...       0.00 
freq.    2969.09  E(vib)   ...       0.00 
freq.    2971.52  E(vib)   ...       0.00 
freq.    2972.24  E(vib)   ...       0.00 
freq.    2973.67  E(vib)   ...       0.00 
freq.    2974.03  E(vib)   ...       0.00 
freq.    2979.82  E(vib)   ...       0.00 
freq.    2982.76  E(vib)   ...       0.00 
freq.    2983.20  E(vib)   ...       0.00 
freq.    2986.90  E(vib)   ...       0.00 
freq.    2991.23  E(vib)   ...       0.00 
freq.    2992.57  E(vib)   ...       0.00 
freq.    2995.37  E(vib)   ...       0.00 
freq.    3003.89  E(vib)   ...       0.00 
freq.    3009.31  E(vib)   ...       0.00 
freq.    3014.14  E(vib)   ...       0.00 
freq.    3014.58  E(vib)   ...       0.00 
freq.    3015.33  E(vib)   ...       0.00 
freq.    3017.99  E(vib)   ...       0.00 
freq.    3019.37  E(vib)   ...       0.00 
freq.    3020.78  E(vib)   ...       0.00 
freq.    3021.29  E(vib)   ...       0.00 
freq.    3021.60  E(vib)   ...       0.00 
freq.    3027.07  E(vib)   ...       0.00 
freq.    3029.15  E(vib)   ...       0.00 
freq.    3034.53  E(vib)   ...       0.00 
freq.    3035.23  E(vib)   ...       0.00 
freq.    3035.98  E(vib)   ...       0.00 
freq.    3038.76  E(vib)   ...       0.00 
freq.    3039.17  E(vib)   ...       0.00 
freq.    3041.00  E(vib)   ...       0.00 
freq.    3041.62  E(vib)   ...       0.00 
freq.    3053.89  E(vib)   ...       0.00 
freq.    3054.33  E(vib)   ...       0.00 
freq.    3056.38  E(vib)   ...       0.00 
freq.    3058.31  E(vib)   ...       0.00 
freq.    3071.41  E(vib)   ...       0.00 
freq.    3080.36  E(vib)   ...       0.00 
freq.    3301.67  E(vib)   ...       0.00 
freq.    3391.26  E(vib)   ...       0.00 
freq.    3432.15  E(vib)   ...       0.00 
freq.    3470.89  E(vib)   ...       0.00 
freq.    3482.38  E(vib)   ...       0.00 
freq.    3677.42  E(vib)   ...       0.00 

------------
INNER ENERGY
------------

The inner energy is: U= E(el) + E(ZPE) + E(vib) + E(rot) + E(trans)
    E(el)   - is the total energy from the electronic structure calculation
              = E(kin-el) + E(nuc-el) + E(el-el) + E(nuc-nuc)
    E(ZPE)  - the the zero temperature vibrational energy from the frequency calculation
    E(vib)  - the the finite temperature correction to E(ZPE) due to population
              of excited vibrational states
    E(rot)  - is the rotational thermal energy
    E(trans)- is the translational thermal energy

Summary of contributions to the inner energy U:
Electronic energy                ...  -2380.08278372 Eh
Zero point energy                ...      0.97772440 Eh     613.53 kcal/mol
Thermal vibrational correction   ...      0.05527578 Eh      34.69 kcal/mol
Thermal rotational correction    ...      0.00141627 Eh       0.89 kcal/mol
Thermal translational correction ...      0.00141627 Eh       0.89 kcal/mol
-----------------------------------------------------------------------
Total thermal energy                  -2379.04695100 Eh


Summary of corrections to the electronic energy:
(perhaps to be used in another calculation)
Total thermal correction                  0.05810833 Eh      36.46 kcal/mol
Non-thermal (ZPE) correction              0.97772440 Eh     613.53 kcal/mol
-----------------------------------------------------------------------
Total correction                          1.03583272 Eh     649.99 kcal/mol


--------
ENTHALPY
--------

The enthalpy is H = U + kB*T
                kB is Boltzmann's constant
Total free energy                 ...  -2379.04695100 Eh 
Thermal Enthalpy correction       ...      0.00094421 Eh       0.59 kcal/mol
-----------------------------------------------------------------------
Total Enthalpy                    ...  -2379.04600679 Eh


Note: Only C1 symmetry has been detected, increase convergence thresholds 
      if your molecule has a higher symmetry. Symmetry factor of 1.0 is   
      used for the rotational entropy correction. 
 

Note: Rotational entropy computed according to Herzberg 
Infrared and Raman Spectra, Chapter V,1, Van Nostrand Reinhold, 1945 
Point Group:  C1, Symmetry Number:   1  
Rotational constants in cm-1:     0.002368     0.001704     0.001459 

Vibrational entropy computed according to the QRRHO of S. Grimme
Chem.Eur.J. 2012 18 9955


-------
ENTROPY
-------

The entropy contributions are T*S = T*(S(el)+S(vib)+S(rot)+S(trans))
     S(el)   - electronic entropy
     S(vib)  - vibrational entropy
     S(rot)  - rotational entropy
     S(trans)- translational entropy
The entropies will be listed as mutliplied by the temperature to get
units of energy

Electronic entropy                ...      0.00000000 Eh      0.00 kcal/mol
Vibrational entropy               ...      0.10065551 Eh     63.16 kcal/mol
Rotational entropy                ...      0.01845699 Eh     11.58 kcal/mol
Translational entropy             ...      0.02166895 Eh     13.60 kcal/mol
-----------------------------------------------------------------------
Final entropy term                ...      0.14078145 Eh     88.34 kcal/mol

In case the symmetry of your molecule has not been determined correctly
or in case you have a reason to use a different symmetry number we print 
out the resulting rotational entropy values for sn=1,12 :
 --------------------------------------------------------
|  sn= 1 | S(rot)=       0.01845699 Eh     11.58 kcal/mol|
|  sn= 2 | S(rot)=       0.01780253 Eh     11.17 kcal/mol|
|  sn= 3 | S(rot)=       0.01741970 Eh     10.93 kcal/mol|
|  sn= 4 | S(rot)=       0.01714808 Eh     10.76 kcal/mol|
|  sn= 5 | S(rot)=       0.01693739 Eh     10.63 kcal/mol|
|  sn= 6 | S(rot)=       0.01676524 Eh     10.52 kcal/mol|
|  sn= 7 | S(rot)=       0.01661970 Eh     10.43 kcal/mol|
|  sn= 8 | S(rot)=       0.01649362 Eh     10.35 kcal/mol|
|  sn= 9 | S(rot)=       0.01638241 Eh     10.28 kcal/mol|
|  sn=10 | S(rot)=       0.01628293 Eh     10.22 kcal/mol|
|  sn=11 | S(rot)=       0.01619294 Eh     10.16 kcal/mol|
|  sn=12 | S(rot)=       0.01611079 Eh     10.11 kcal/mol|
 --------------------------------------------------------


-------------------
GIBBS FREE ENERGY
-------------------

The Gibbs free energy is G = H - T*S

Total enthalpy                    ...  -2379.04600679 Eh 
Total entropy correction          ...     -0.14078145 Eh    -88.34 kcal/mol
-----------------------------------------------------------------------
Final Gibbs free energy         ...  -2379.18678823 Eh

For completeness - the Gibbs free energy minus the electronic energy
G-E(el)                           ...      0.89599548 Eh    562.24 kcal/mol

--------------------------------------------------------------------------
WARNING: No preset parameters were found for the device that Open MPI
detected:

  Local host:            eu-g1-039-2
  Device name:           mlx5_0
  Device vendor ID:      0x02c9
  Device vendor part ID: 4123

Default device parameters will be used, which may result in lower
performance.  You can edit any of the files specified by the
btl_openib_device_param_files MCA parameter to set values for your
device.

NOTE: You can turn off this warning by setting the MCA parameter
      btl_openib_warn_no_device_params_found to 0.
--------------------------------------------------------------------------
--------------------------------------------------------------------------
WARNING: There was an error initializing an OpenFabrics device.

  Local host:   eu-g1-039-2
  Local device: mlx5_0
--------------------------------------------------------------------------

Timings for individual modules:

Sum of individual times         ...    36918.554 sec (= 615.309 min)
GTO integral calculation        ...       11.753 sec (=   0.196 min)   0.0 %
SCF iterations                  ...      365.016 sec (=   6.084 min)   1.0 %
SCF Gradient evaluation         ...       72.627 sec (=   1.210 min)   0.2 %
Geometry relaxation             ...        3.892 sec (=   0.065 min)   0.0 %
Analytical frequency calculation...    36465.266 sec (= 607.754 min)  98.8 %
                             ****ORCA TERMINATED NORMALLY****
TOTAL RUN TIME: 0 days 10 hours 15 minutes 36 seconds 98 msec
