
                                 *****************
                                 * O   R   C   A *
                                 *****************

           --- An Ab Initio, DFT and Semiempirical electronic structure package ---

                  #######################################################
                  #                        -***-                        #
                  #          Department of theory and spectroscopy      #
                  #               Directorship: Frank Neese             #
                  #        Max Planck Institute fuer Kohlenforschung    #
                  #                Kaiser Wilhelm Platz 1               #
                  #                 D-45470 Muelheim/Ruhr               #
                  #                      Germany                        #
                  #                                                     #
                  #                  All rights reserved                #
                  #                        -***-                        #
                  #######################################################


                         Program Version 4.2.0 -  RELEASE  -


 With contributions from (in alphabetic order):
   Daniel Aravena         : Magnetic Suceptibility
   Michael Atanasov       : Ab Initio Ligand Field Theory (pilot matlab implementation)
   Alexander A. Auer      : GIAO ZORA, VPT2
   Ute Becker             : Parallelization
   Giovanni Bistoni       : ED, misc. LED, open-shell LED, HFLED
   Martin Brehm           : Molecular dynamics
   Dmytro Bykov           : SCF Hessian
   Vijay G. Chilkuri      : MRCI spin determinant printing, contributions to CSF-ICE
   Dipayan Datta          : RHF DLPNO-CCSD density
   Achintya Kumar Dutta   : EOM-CC, STEOM-CC
   Dmitry Ganyushin       : Spin-Orbit,Spin-Spin,Magnetic field MRCI
   Miquel Garcia          : C-PCM Hessian, Gaussian charge scheme
   Yang Guo               : DLPNO-NEVPT2, CIM, IAO-localization
   Andreas Hansen         : Spin unrestricted coupled pair/coupled cluster methods
   Benjamin Helmich-Paris : CASSCF linear response (MC-RPA)
   Lee Huntington         : MR-EOM, pCC
   Robert Izsak           : Overlap fitted RIJCOSX, COSX-SCS-MP3, EOM
   Christian Kollmar      : KDIIS, OOCD, Brueckner-CCSD(T), CCSD density
   Simone Kossmann        : Meta GGA functionals, TD-DFT gradient, OOMP2, MP2 Hessian
   Martin Krupicka        : AUTO-CI
   Lucas Lang             : DCDCAS
   Dagmar Lenk            : GEPOL surface, SMD
   Dimitrios Liakos       : Extrapolation schemes; Compound Job, initial MDCI parallelization
   Dimitrios Manganas     : Further ROCIS development; embedding schemes
   Dimitrios Pantazis     : SARC Basis sets
   Taras Petrenko         : DFT Hessian,TD-DFT gradient, ASA, ECA, R-Raman, ABS, FL, XAS/XES, NRVS
   Peter Pinski           : DLPNO-MP2, DLPNO-MP2 Gradient
   Christoph Reimann      : Effective Core Potentials
   Marius Retegan         : Local ZFS, SOC
   Christoph Riplinger    : Optimizer, TS searches, QM/MM, DLPNO-CCSD(T), (RO)-DLPNO pert. Triples
   Tobias Risthaus        : Range-separated hybrids, TD-DFT gradient, RPA, STAB
   Michael Roemelt        : Original ROCIS implementation
   Masaaki Saitow         : Open-shell DLPNO-CCSD energy and density
   Barbara Sandhoefer     : DKH picture change effects
   Avijit Sen             : IP-ROCIS
   Kantharuban Sivalingam : CASSCF convergence, NEVPT2, FIC-MRCI
   Bernardo de Souza      : ESD, SOC TD-DFT
   Georgi Stoychev        : AutoAux, RI-MP2 NMR
   Willem Van den Heuvel  : Paramagnetic NMR
   Boris Wezisla          : Elementary symmetry handling
   Frank Wennmohs         : Technical directorship


 We gratefully acknowledge several colleagues who have allowed us to
 interface, adapt or use parts of their codes:
   Stefan Grimme, W. Hujo, H. Kruse,             : VdW corrections, initial TS optimization,
                  C. Bannwarth                     DFT functionals, gCP, sTDA/sTD-DF
   Ed Valeev, F. Pavosevic, A. Kumar             : LibInt (2-el integral package), F12 methods
   Garnet Chan, S. Sharma, J. Yang, R. Olivares  : DMRG
   Ulf Ekstrom                                   : XCFun DFT Library
   Mihaly Kallay                                 : mrcc  (arbitrary order and MRCC methods)
   Andreas Klamt, Michael Diedenhofen            : otool_cosmo (COSMO solvation model)
   Jiri Pittner, Ondrej Demel                    : Mk-CCSD
   Frank Weinhold                                : gennbo (NPA and NBO analysis)
   Christopher J. Cramer and Donald G. Truhlar   : smd solvation model
   Lars Goerigk                                  : TD-DFT with DH, B97 family of functionals
   V. Asgeirsson, H. Jonsson                     : NEB implementation
   FAccTs GmbH                                   : IRC, NEB, NEB-TS, Multilevel, MM, QM/MM, CI optimization
   S Lehtola, MJT Oliveira, MAL Marques          : LibXC Library


 Your calculation uses the libint2 library for the computation of 2-el integrals
 For citations please refer to: http://libint.valeyev.net

 Your ORCA version has been built with support for libXC version: 4.2.3
 For citations please refer to: https://tddft.org/programs/libxc/

 This ORCA versions uses:
   CBLAS   interface :  Fast vector & matrix operations
   LAPACKE interface :  Fast linear algebra routines
   SCALAPACK package :  Parallel linear algebra routines




***************************************
The coordinates will be read from file: 44.xyz
***************************************


Your calculation utilizes the atom-pairwise dispersion correction
with the Becke-Johnson damping scheme (D3BJ)
Cite in your paper:
S.Grimme, S.Ehrlich, L.Goerigk, J Comput Chem, (2011), 32, 1456–1465 
S.Grimme, J.Antony, S.Ehrlich and H.Krieg, J.Chem.Phys., 132, (2010), 154104 
   

----- Orbital basis set information -----
Your calculation utilizes the basis: def2-TZVP
   F. Weigend and R. Ahlrichs, Phys. Chem. Chem. Phys. 7, 3297 (2005).

----- AuxJ basis set information -----
Your calculation utilizes the auxiliary basis: def2/J
   F. Weigend, Phys. Chem. Chem. Phys. 8, 1057 (2006).

================================================================================
                                        WARNINGS
                       Please study these warnings very carefully!
================================================================================


WARNING: Geometry Optimization
  ===> : Switching off AutoStart
         For restart on a previous wavefunction, please use MOREAD

INFO   : the flag for use of LIBINT has been found!

================================================================================
                                       INPUT FILE
================================================================================
NAME = 44.inp
|  1> !RI BP86 def2-tzvp def2/J D3BJ TIGHTSCF TightOpt Grid5 FinalGrid6 freq
|  2> %maxcore 4000
|  3> %pal nprocs 24
|  4> end
|  5> * xyzfile 0 1 44.xyz 
|  6> 
|  7>                          ****END OF INPUT****
================================================================================

                       *****************************
                       * Geometry Optimization Run *
                       *****************************

Geometry optimization settings:
Update method            Update   .... BFGS
Choice of coordinates    CoordSys .... Z-matrix Internals
Initial Hessian          InHess   .... Almoef's Model

Convergence Tolerances:
Energy Change            TolE     ....  1.0000e-06 Eh
Max. Gradient            TolMAXG  ....  1.0000e-04 Eh/bohr
RMS Gradient             TolRMSG  ....  3.0000e-05 Eh/bohr
Max. Displacement        TolMAXD  ....  1.0000e-03 bohr
RMS Displacement         TolRMSD  ....  6.0000e-04 bohr
Strict Convergence                ....  False
------------------------------------------------------------------------------
                        ORCA OPTIMIZATION COORDINATE SETUP
------------------------------------------------------------------------------

The optimization will be done in new redundant internal coordinates
Making redundant internal coordinates   ...  (new redundants) done
Evaluating the initial hessian          ...  (Almloef) done
Evaluating the coordinates              ...  done
Calculating the B-matrix                .... done
Calculating the G-matrix                .... done
Diagonalizing the G-matrix              .... done
Small eigenvalue found = 9.383e-04
Small eigenvalue found = 2.048e-03
Small eigenvalue found = 2.822e-03
Small eigenvalue found = 4.840e-03
Small eigenvalue found = 5.876e-03
Small eigenvalue found = 6.507e-03
Small eigenvalue found = 7.617e-03
Small eigenvalue found = 9.934e-03
Small eigenvalue found = 1.063e-02
Small eigenvalue found = 1.292e-02
Small eigenvalue found = 1.330e-02
Small eigenvalue found = 1.487e-02
Small eigenvalue found = 1.890e-02
Small eigenvalue found = 2.007e-02
Small eigenvalue found = 2.258e-02
Small eigenvalue found = 2.449e-02
Small eigenvalue found = 2.799e-02
Small eigenvalue found = 2.943e-02
The first mode is                       ....  329
The number of degrees of freedom        ....  339

    -----------------------------------------------------------------
                    Redundant Internal Coordinates


    -----------------------------------------------------------------
         Definition                    Initial Value    Approx d2E/dq
    -----------------------------------------------------------------
      1. B(C   1,O   0)                  1.2254         1.024360   
      2. B(C   2,C   1)                  1.5344         0.367622   
      3. B(C   3,C   2)                  1.5404         0.359549   
      4. B(C   4,C   3)                  1.5352         0.366470   
      5. B(C   5,C   4)                  1.5297         0.373983   
      6. B(N   6,C   5)                  1.4710         0.415539   
      7. B(N   6,C   2)                  1.4786         0.404133   
      8. B(C   7,N   6)                  1.3659         0.611412   
      9. B(O   8,C   7)                  1.2333         0.995115   
     10. B(N   9,C   1)                  1.3723         0.597099   
     11. B(C  10,N   9)                  1.4458         0.455919   
     12. B(C  11,C  10)                  1.5354         0.366210   
     13. B(N  12,C  11)                  1.3562         0.633529   
     14. B(C  13,N  12)                  1.4621         0.429366   
     15. B(C  14,C  13)                  1.5452         0.353329   
     16. B(N  15,C  14)                  1.3675         0.607800   
     17. B(C  16,N  15)                  1.4549         0.440884   
     18. B(C  17,C  16)                  1.5527         0.343674   
     19. B(C  18,C  17)                  1.5409         0.358902   
     20. B(C  19,C  18)                  1.5409         0.358922   
     21. B(N  20,C  19)                  1.3488         0.651059   
     22. B(C  21,N  20)                  1.4648         0.425214   
     23. B(C  22,C  21)                  1.5469         0.351029   
     24. B(N  23,C  22)                  1.3639         0.615874   
     25. B(C  24,N  23)                  1.4592         0.433945   
     26. B(C  24,C   7)                  1.5443         0.354482   
     27. B(C  25,C  24)                  1.5250         0.380496   
     28. B(O  26,C  22)                  1.2304         1.005892   
     29. B(C  27,C  21)                  1.5373         0.363631   
     30. B(C  28,C  27)                  1.5354         0.366225   
     31. B(C  29,C  28)                  1.5319         0.370938   
     32. B(C  30,C  28)                  1.5329         0.369670   
     33. B(O  31,C  19)                  1.2383         0.977074   
     34. B(C  32,C  18)                  1.5271         0.377645   
     35. B(C  33,C  32)                  1.5144         0.395576   
     36. B(C  34,C  33)                  1.5332         0.369276   
     37. B(C  35,C  34)                  1.5308         0.372511   
     38. B(C  36,C  35)                  1.5276         0.376816   
     39. B(C  37,C  36)                  1.5301         0.373402   
     40. B(C  38,C  37)                  1.5284         0.375739   
     41. B(C  39,C  38)                  1.5301         0.373407   
     42. B(C  40,C  39)                  1.5305         0.372937   
     43. B(C  41,C  40)                  1.5299         0.373720   
     44. B(O  42,C  32)                  1.2291         1.010657   
     45. B(O  43,C  17)                  1.4182         0.504568   
     46. B(O  44,C  14)                  1.2272         1.017781   
     47. B(C  45,C  13)                  1.5350         0.366821   
     48. B(C  46,C  45)                  1.5280         0.376281   
     49. B(O  47,C  11)                  1.2401         0.970452   
     50. B(C  48,C  10)                  1.5536         0.342558   
     51. B(C  49,C  48)                  1.5296         0.374096   
     52. B(C  50,C  48)                  1.5301         0.373417   
     53. B(H  51,C   2)                  1.1006         0.346402   
     54. B(H  52,C   3)                  1.0963         0.351885   
     55. B(H  53,C   3)                  1.1004         0.346626   
     56. B(H  54,C   4)                  1.0966         0.351519   
     57. B(H  55,C   4)                  1.1004         0.346586   
     58. B(H  56,C   5)                  1.1045         0.341460   
     59. B(H  57,C   5)                  1.0972         0.350734   
     60. B(H  58,N   9)                  1.0214         0.414999   
     61. B(H  59,C  10)                  1.1051         0.340648   
     62. B(H  60,N  12)                  1.0162         0.422961   
     63. B(H  61,C  13)                  1.1007         0.346238   
     64. B(H  62,N  15)                  1.0163         0.422863   
     65. B(H  63,C  16)                  1.0994         0.347853   
     66. B(H  64,C  16)                  1.0978         0.349911   
     67. B(H  65,C  17)                  1.1034         0.342855   
     68. B(H  66,H  56)                  4.0165         0.000001   
     69. B(H  66,C  18)                  1.0967         0.351389   
     70. B(H  67,O  47)                  2.3046         0.003721   
     71. B(H  67,N  20)                  1.0188         0.419010   
     72. B(H  68,C  21)                  1.1062         0.339356   
     73. B(H  69,O  44)                  3.5353         0.000040   
     74. B(H  69,N  23)                  1.0211         0.415439   
     75. B(H  70,C  24)                  1.1008         0.346062   
     76. B(H  71,C  25)                  1.0978         0.349881   
     77. B(H  72,C  25)                  1.0969         0.351107   
     78. B(H  73,C  25)                  1.0977         0.350036   
     79. B(H  74,C  27)                  1.0996         0.347571   
     80. B(H  75,C  27)                  1.0967         0.351315   
     81. B(H  76,C  28)                  1.1051         0.340649   
     82. B(H  77,C  29)                  1.1001         0.347034   
     83. B(H  78,C  29)                  1.1017         0.344958   
     84. B(H  79,C  29)                  1.0998         0.347386   
     85. B(H  80,C  30)                  1.0998         0.347416   
     86. B(H  81,C  30)                  1.1000         0.347074   
     87. B(H  82,C  30)                  1.0997         0.347552   
     88. B(H  83,C  33)                  1.1050         0.340765   
     89. B(H  84,C  33)                  1.0986         0.348931   
     90. B(H  85,H  58)                  4.6176         0.000000   
     91. B(H  85,C  34)                  1.1005         0.346443   
     92. B(H  86,C  34)                  1.1009         0.345937   
     93. B(H  87,C  35)                  1.1032         0.343032   
     94. B(H  88,C  35)                  1.1028         0.343615   
     95. B(H  89,H  54)                  2.1571         0.001368   
     96. B(H  89,C  36)                  1.1047         0.341225   
     97. B(H  90,C  36)                  1.1036         0.342528   
     98. B(H  91,C  37)                  1.1037         0.342404   
     99. B(H  92,H  74)                  2.4579         0.000453   
    100. B(H  92,C  37)                  1.1039         0.342136   
    101. B(H  93,C  38)                  1.1049         0.340872   
    102. B(H  94,C  38)                  1.1043         0.341731   
    103. B(H  95,C  39)                  1.1043         0.341678   
    104. B(H  96,H  70)                  4.5282         0.000000   
    105. B(H  96,C  39)                  1.1040         0.342002   
    106. B(H  97,C  40)                  1.1037         0.342445   
    107. B(H  98,C  40)                  1.1035         0.342614   
    108. B(H  99,C  41)                  1.0995         0.347735   
    109. B(H 100,C  41)                  1.1006         0.346323   
    110. B(H 101,C  41)                  1.1007         0.346266   
    111. B(H 102,O  43)                  0.9895         0.466612   
    112. B(H 103,C  45)                  1.1034         0.342765   
    113. B(H 104,C  45)                  1.1030         0.343342   
    114. B(H 105,C  46)                  1.0980         0.349686   
    115. B(H 106,C  46)                  1.0981         0.349593   
    116. B(H 107,C  46)                  1.0989         0.348566   
    117. B(H 108,C  48)                  1.1060         0.339602   
    118. B(H 109,H  65)                  2.5440         0.000330   
    119. B(H 109,C  49)                  1.1002         0.346896   
    120. B(H 110,C  49)                  1.0988         0.348582   
    121. B(H 111,C  49)                  1.0983         0.349248   
    122. B(H 112,C  50)                  1.0977         0.350077   
    123. B(H 113,C  50)                  1.0986         0.348936   
    124. B(H 114,C  50)                  1.0995         0.347757   
    125. A(O   0,C   1,N   9)          123.5182         0.466035   
    126. A(C   2,C   1,N   9)          113.9572         0.390466   
    127. A(O   0,C   1,C   2)          122.5111         0.429638   
    128. A(C   1,C   2,H  51)          105.1159         0.321416   
    129. A(N   6,C   2,H  51)          109.5941         0.324497   
    130. A(C   1,C   2,N   6)          112.6337         0.364974   
    131. A(C   1,C   2,C   3)          114.8556         0.359998   
    132. A(C   3,C   2,H  51)          111.7898         0.320251   
    133. A(C   3,C   2,N   6)          102.9506         0.363591   
    134. A(C   4,C   3,H  53)          109.6838         0.321285   
    135. A(C   4,C   3,H  52)          113.9069         0.322078   
    136. A(C   2,C   3,C   4)          103.3335         0.359806   
    137. A(C   2,C   3,H  53)          109.9400         0.320284   
    138. A(C   2,C   3,H  52)          111.5614         0.321074   
    139. A(H  52,C   3,H  53)          108.3287         0.288062   
    140. A(H  54,C   4,H  55)          108.2435         0.288010   
    141. A(C   3,C   4,H  55)          110.6121         0.321279   
    142. A(C   3,C   4,C   5)          102.6590         0.362229   
    143. A(C   3,C   4,H  54)          113.0869         0.322023   
    144. A(C   5,C   4,H  55)          110.0547         0.322348   
    145. A(C   5,C   4,H  54)          112.1230         0.323096   
    146. A(H  56,C   5,H  57)          107.6523         0.287240   
    147. A(C   4,C   5,N   6)          102.8409         0.367799   
    148. A(C   4,C   5,H  56)          110.0749         0.321562   
    149. A(N   6,C   5,H  57)          111.6859         0.326652   
    150. A(N   6,C   5,H  56)          110.5934         0.325215   
    151. A(C   4,C   5,H  57)          113.9795         0.322977   
    152. A(C   5,N   6,C   7)          128.3325         0.398045   
    153. A(C   2,N   6,C   7)          119.0802         0.396104   
    154. A(C   2,N   6,C   5)          112.2730         0.370400   
    155. A(O   8,C   7,C  24)          121.3601         0.424636   
    156. A(N   6,C   7,O   8)          121.1736         0.465584   
    157. A(N   6,C   7,C  24)          117.4653         0.389600   
    158. A(C   1,N   9,C  10)          120.2782         0.402913   
    159. A(C  10,N   9,H  58)          113.8477         0.338176   
    160. A(C   1,N   9,H  58)          117.2194         0.353864   
    161. A(C  48,C  10,H  59)          107.7907         0.316865   
    162. A(C  11,C  10,H  59)          108.2248         0.320335   
    163. A(N   9,C  10,C  11)          106.8665         0.372362   
    164. A(N   9,C  10,C  48)          113.8570         0.368112   
    165. A(N   9,C  10,H  59)          106.7258         0.330096   
    166. A(C  11,C  10,C  48)          113.0751         0.356812   
    167. A(N  12,C  11,O  47)          120.3303         0.466475   
    168. A(C  10,C  11,O  47)          122.2501         0.425202   
    169. A(C  10,C  11,N  12)          117.3927         0.394268   
    170. A(C  13,N  12,H  60)          119.1292         0.335874   
    171. A(C  11,N  12,C  13)          120.6500         0.402857   
    172. A(C  11,N  12,H  60)          119.3949         0.358596   
    173. A(C  14,C  13,C  45)          111.7459         0.358797   
    174. A(N  12,C  13,H  61)          109.3239         0.327722   
    175. A(C  14,C  13,H  61)          104.2634         0.319314   
    176. A(N  12,C  13,C  14)          111.9548         0.366284   
    177. A(C  45,C  13,H  61)          109.9110         0.321276   
    178. A(N  12,C  13,C  45)          109.5083         0.368645   
    179. A(C  13,C  14,N  15)          115.2473         0.388976   
    180. A(N  15,C  14,O  44)          123.8693         0.467002   
    181. A(C  13,C  14,O  44)          120.7966         0.426102   
    182. A(C  14,N  15,H  62)          117.7065         0.356063   
    183. A(C  16,N  15,H  62)          119.3065         0.337345   
    184. A(C  14,N  15,C  16)          122.4129         0.401794   
    185. A(H  63,C  16,H  64)          108.4156         0.287968   
    186. A(C  17,C  16,H  64)          108.7079         0.318422   
    187. A(N  15,C  16,H  63)          110.2585         0.329409   
    188. A(C  17,C  16,H  63)          107.9447         0.318116   
    189. A(N  15,C  16,C  17)          114.9620         0.366206   
    190. A(N  15,C  16,H  64)          106.3770         0.329730   
    191. A(O  43,C  17,H  65)          106.4160         0.336053   
    192. A(C  18,C  17,H  65)          108.1179         0.319618   
    193. A(C  16,C  17,H  65)          108.9845         0.317367   
    194. A(C  16,C  17,C  18)          110.2751         0.355789   
    195. A(C  18,C  17,O  43)          113.9859         0.377620   
    196. A(C  16,C  17,O  43)          108.8956         0.374802   
    197. A(C  19,C  18,H  66)          106.5924         0.320908   
    198. A(C  17,C  18,H  66)          108.0306         0.320905   
    199. A(C  17,C  18,C  32)          118.0214         0.361542   
    200. A(C  17,C  18,C  19)          111.7545         0.358423   
    201. A(C  19,C  18,C  32)          106.8847         0.361546   
    202. A(C  32,C  18,H  66)          104.8069         0.323593   
    203. A(C  18,C  19,N  20)          111.4891         0.394765   
    204. A(N  20,C  19,O  31)          124.8979         0.469400   
    205. A(C  18,C  19,O  31)          123.5601         0.424191   
    206. A(C  19,N  20,H  67)          115.6975         0.359691   
    207. A(C  19,N  20,C  21)          125.5244         0.404108   
    208. A(C  21,N  20,H  67)          117.8386         0.334809   
    209. A(C  27,C  21,H  68)          109.2342         0.319766   
    210. A(C  22,C  21,H  68)          107.6547         0.317931   
    211. A(N  20,C  21,H  68)          107.5028         0.326117   
    212. A(N  20,C  21,C  22)          106.9826         0.365266   
    213. A(C  22,C  21,C  27)          112.1607         0.357866   
    214. A(N  20,C  21,C  27)          113.0619         0.367480   
    215. A(C  21,C  22,N  23)          114.6193         0.389429   
    216. A(C  21,C  22,O  26)          122.4178         0.424710   
    217. A(N  23,C  22,O  26)          122.9314         0.467126   
    218. A(C  22,N  23,C  24)          122.3197         0.401605   
    219. A(C  24,N  23,H  69)          116.8119         0.335465   
    220. A(C  22,N  23,H  69)          120.8682         0.355791   
    221. A(C  25,C  24,H  70)          109.7270         0.323181   
    222. A(N  23,C  24,H  70)          105.0111         0.328268   
    223. A(C   7,C  24,H  70)          109.1101         0.319458   
    224. A(N  23,C  24,C  25)          111.5083         0.371649   
    225. A(C   7,C  24,N  23)          110.3362         0.367155   
    226. A(C   7,C  24,C  25)          110.9598         0.361242   
    227. A(H  71,C  25,H  73)          109.3863         0.288246   
    228. A(C  24,C  25,H  73)          110.7090         0.323787   
    229. A(H  71,C  25,H  72)          109.2662         0.288384   
    230. A(C  24,C  25,H  72)          110.5325         0.323950   
    231. A(C  24,C  25,H  71)          109.4304         0.323764   
    232. A(H  72,C  25,H  73)          107.4797         0.288404   
    233. A(C  28,C  27,H  75)          108.4721         0.321957   
    234. A(C  21,C  27,C  28)          113.8928         0.360458   
    235. A(H  74,C  27,H  75)          108.0307         0.288112   
    236. A(C  21,C  27,H  75)          108.0997         0.321582   
    237. A(C  28,C  27,H  74)          109.6370         0.321393   
    238. A(C  21,C  27,H  74)          108.5466         0.321019   
    239. A(C  29,C  28,C  30)          110.8029         0.362261   
    240. A(C  27,C  28,C  30)          112.6042         0.361472   
    241. A(C  27,C  28,C  29)          109.6104         0.361683   
    242. A(C  30,C  28,H  76)          108.4752         0.320828   
    243. A(C  29,C  28,H  76)          108.1117         0.321007   
    244. A(C  27,C  28,H  76)          107.0618         0.320337   
    245. A(C  28,C  29,H  79)          111.2436         0.322038   
    246. A(H  78,C  29,H  79)          107.6581         0.287267   
    247. A(H  77,C  29,H  79)          107.9836         0.287536   
    248. A(H  77,C  29,H  78)          107.8947         0.287221   
    249. A(C  28,C  29,H  78)          110.6126         0.321668   
    250. A(C  28,C  29,H  77)          111.2967         0.321985   
    251. A(H  81,C  30,H  82)          108.4750         0.287563   
    252. A(H  80,C  30,H  82)          107.1531         0.287607   
    253. A(C  28,C  30,H  82)          110.7669         0.321883   
    254. A(H  80,C  30,H  81)          107.4425         0.287545   
    255. A(C  28,C  30,H  81)          110.6546         0.321810   
    256. A(C  28,C  30,H  80)          112.1805         0.321862   
    257. A(C  33,C  32,O  42)          121.4863         0.434281   
    258. A(C  18,C  32,O  42)          119.1055         0.430675   
    259. A(C  18,C  32,C  33)          119.2844         0.367611   
    260. A(C  32,C  33,C  34)          111.8950         0.366201   
    261. A(C  34,C  33,H  84)          112.0064         0.322035   
    262. A(H  83,C  33,H  84)          105.2268         0.286917   
    263. A(C  32,C  33,H  84)          109.5143         0.325693   
    264. A(C  34,C  33,H  83)          111.3032         0.320790   
    265. A(C  32,C  33,H  83)          106.5467         0.324427   
    266. A(C  33,C  34,C  35)          111.3023         0.362457   
    267. A(H  85,C  34,H  86)          107.1203         0.287272   
    268. A(C  35,C  34,H  86)          110.4321         0.322041   
    269. A(C  33,C  34,H  86)          109.3514         0.321581   
    270. A(C  35,C  34,H  85)          109.5918         0.322118   
    271. A(C  33,C  34,H  85)          108.9389         0.321658   
    272. A(C  34,C  35,C  36)          114.8245         0.363711   
    273. A(H  87,C  35,H  88)          105.5434         0.286527   
    274. A(C  36,C  35,H  88)          107.8603         0.322292   
    275. A(C  34,C  35,H  88)          108.8141         0.321686   
    276. A(C  36,C  35,H  87)          109.7900         0.322202   
    277. A(C  34,C  35,H  87)          109.5812         0.321596   
    278. A(C  35,C  36,C  37)          112.1371         0.363860   
    279. A(H  89,C  36,H  90)          105.8188         0.286150   
    280. A(C  37,C  36,H  90)          110.1002         0.321645   
    281. A(C  35,C  36,H  90)          110.4426         0.322125   
    282. A(C  37,C  36,H  89)          109.2918         0.321444   
    283. A(C  35,C  36,H  89)          108.8388         0.321924   
    284. A(C  36,C  37,C  38)          114.3115         0.363682   
    285. A(H  91,C  37,H  92)          105.3571         0.286252   
    286. A(C  38,C  37,H  92)          108.8079         0.321913   
    287. A(C  36,C  37,H  92)          109.0408         0.321585   
    288. A(C  38,C  37,H  91)          109.5452         0.321955   
    289. A(C  36,C  37,H  91)          109.3923         0.321626   
    290. A(C  37,C  38,C  39)          112.8823         0.363683   
    291. A(H  93,C  38,H  94)          105.8905         0.286000   
    292. A(C  39,C  38,H  94)          109.6485         0.321523   
    293. A(C  37,C  38,H  94)          109.8013         0.321851   
    294. A(C  39,C  38,H  93)          109.2100         0.321391   
    295. A(C  37,C  38,H  93)          109.1654         0.321718   
    296. A(C  38,C  39,C  40)          113.6938         0.363218   
    297. A(H  95,C  39,H  96)          105.6485         0.286140   
    298. A(C  40,C  39,H  96)          109.4574         0.321499   
    299. A(C  38,C  39,H  96)          109.1427         0.321565   
    300. A(C  40,C  39,H  95)          109.3249         0.321449   
    301. A(C  38,C  39,H  95)          109.2610         0.321515   
    302. A(C  39,C  40,C  41)          113.0518         0.363270   
    303. A(H  97,C  40,H  98)          105.9172         0.286320   
    304. A(C  41,C  40,H  98)          109.6591         0.321703   
    305. A(C  39,C  40,H  98)          109.2429         0.321593   
    306. A(C  41,C  40,H  97)          109.6074         0.321677   
    307. A(C  39,C  40,H  97)          109.1117         0.321567   
    308. A(H 100,C  41,H 101)          107.3863         0.287299   
    309. A(H  99,C  41,H 101)          107.7118         0.287482   
    310. A(C  40,C  41,H 101)          111.0613         0.322262   
    311. A(H  99,C  41,H 100)          107.7592         0.287489   
    312. A(C  40,C  41,H 100)          111.0490         0.322271   
    313. A(C  40,C  41,H  99)          111.6825         0.322486   
    314. A(C  17,O  43,H 102)          103.7767         0.350815   
    315. A(C  13,C  45,C  46)          113.1062         0.362668   
    316. A(C  46,C  45,H 104)          109.8581         0.322175   
    317. A(C  13,C  45,H 104)          107.8915         0.320835   
    318. A(C  46,C  45,H 103)          109.9373         0.322086   
    319. A(C  13,C  45,H 103)          108.9647         0.320747   
    320. A(H 103,C  45,H 104)          106.8727         0.286457   
    321. A(H 106,C  46,H 107)          107.4096         0.288019   
    322. A(H 105,C  46,H 107)          108.1434         0.288031   
    323. A(C  45,C  46,H 107)          111.0678         0.322973   
    324. A(H 105,C  46,H 106)          108.1718         0.288164   
    325. A(C  45,C  46,H 106)          111.4565         0.323129   
    326. A(C  45,C  46,H 105)          110.4547         0.323143   
    327. A(C  50,C  48,H 108)          107.8423         0.321196   
    328. A(C  49,C  48,H 108)          108.7265         0.321291   
    329. A(C  10,C  48,H 108)          107.0247         0.316707   
    330. A(C  49,C  48,C  50)          111.2747         0.363412   
    331. A(C  10,C  48,C  50)          110.1046         0.357996   
    332. A(C  10,C  48,C  49)          111.6893         0.358107   
    333. A(H 110,C  49,H 111)          108.4288         0.287977   
    334. A(H 109,C  49,H 111)          107.2706         0.287759   
    335. A(C  48,C  49,H 111)          110.3650         0.322768   
    336. A(H 109,C  49,H 110)          107.9364         0.287673   
    337. A(C  48,C  49,H 110)          110.8271         0.322667   
    338. A(C  48,C  49,H 109)          111.8699         0.322411   
    339. A(H 113,C  50,H 114)          108.3227         0.287830   
    340. A(H 112,C  50,H 114)          108.9320         0.287977   
    341. A(C  48,C  50,H 114)          110.3579         0.322446   
    342. A(H 112,C  50,H 113)          107.2123         0.288129   
    343. A(C  48,C  50,H 113)          110.2627         0.322625   
    344. A(C  48,C  50,H 112)          111.6423         0.322798   
    345. D(H  51,C   2,C   1,N   9)   -167.1487         0.010130   
    346. D(C   3,C   2,C   1,N   9)     69.5605         0.010130   
    347. D(N   6,C   2,C   1,N   9)    -47.8749         0.010130   
    348. D(N   6,C   2,C   1,O   0)    133.4220         0.010130   
    349. D(C   3,C   2,C   1,O   0)   -109.1427         0.010130   
    350. D(H  51,C   2,C   1,O   0)     14.1482         0.010130   
    351. D(C   4,C   3,C   2,N   6)    -29.1957         0.010373   
    352. D(H  53,C   3,C   2,H  51)   -154.6315         0.010373   
    353. D(H  53,C   3,C   2,C   1)    -34.9818         0.010373   
    354. D(C   4,C   3,C   2,H  51)     88.3538         0.010373   
    355. D(H  53,C   3,C   2,N   6)     87.8190         0.010373   
    356. D(H  52,C   3,C   2,H  51)    -34.4298         0.010373   
    357. D(C   4,C   3,C   2,C   1)   -151.9965         0.010373   
    358. D(H  52,C   3,C   2,C   1)     85.2198         0.010373   
    359. D(H  52,C   3,C   2,N   6)   -151.9793         0.010373   
    360. D(H  55,C   4,C   3,H  53)    165.3862         0.010749   
    361. D(H  55,C   4,C   3,H  52)     43.7918         0.010749   
    362. D(H  54,C   4,C   3,H  52)    -77.8034         0.010749   
    363. D(H  55,C   4,C   3,C   2)    -77.4187         0.010749   
    364. D(H  54,C   4,C   3,H  53)     43.7911         0.010749   
    365. D(C   5,C   4,C   3,C   2)     39.9669         0.010749   
    366. D(H  54,C   4,C   3,C   2)    160.9862         0.010749   
    367. D(C   5,C   4,C   3,H  53)    -77.2281         0.010749   
    368. D(C   5,C   4,C   3,H  52)    161.1774         0.010749   
    369. D(N   6,C   5,C   4,C   3)    -34.7521         0.011167   
    370. D(H  57,C   5,C   4,C   3)   -155.8289         0.011167   
    371. D(H  56,C   5,C   4,H  55)   -159.1058         0.011167   
    372. D(H  56,C   5,C   4,C   3)     83.1131         0.011167   
    373. D(H  57,C   5,C   4,H  54)     82.4930         0.011167   
    374. D(H  56,C   5,C   4,H  54)    -38.5649         0.011167   
    375. D(H  57,C   5,C   4,H  55)    -38.0479         0.011167   
    376. D(N   6,C   5,C   4,H  54)   -156.4302         0.011167   
    377. D(N   6,C   5,C   4,H  55)     83.0290         0.011167   
    378. D(C   5,N   6,C   2,C   3)      7.5801         0.013939   
    379. D(C   7,N   6,C   5,H  57)    -33.6184         0.014726   
    380. D(C   7,N   6,C   5,H  56)     86.2514         0.014726   
    381. D(C   7,N   6,C   5,C   4)   -156.2496         0.014726   
    382. D(C   2,N   6,C   5,H  57)    139.7985         0.014726   
    383. D(C   2,N   6,C   5,H  56)   -100.3317         0.014726   
    384. D(C   7,N   6,C   2,H  51)     62.5853         0.013939   
    385. D(C   2,N   6,C   5,C   4)     17.1673         0.014726   
    386. D(C   7,N   6,C   2,C   3)   -178.3261         0.013939   
    387. D(C   5,N   6,C   2,C   1)    131.8557         0.013939   
    388. D(C   7,N   6,C   2,C   1)    -54.0505         0.013939   
    389. D(C   5,N   6,C   2,H  51)   -111.5085         0.013939   
    390. D(C  24,C   7,N   6,C   5)     -1.6103         0.030206   
    391. D(C  24,C   7,N   6,C   2)   -174.6378         0.030206   
    392. D(O   8,C   7,N   6,C   5)    178.0261         0.030206   
    393. D(O   8,C   7,N   6,C   2)      4.9986         0.030206   
    394. D(H  58,N   9,C   1,O   0)   -175.4661         0.028708   
    395. D(C  10,N   9,C   1,C   2)    151.6148         0.028708   
    396. D(H  58,N   9,C   1,C   2)      5.8457         0.028708   
    397. D(C  10,N   9,C   1,O   0)    -29.6970         0.028708   
    398. D(H  59,C  10,N   9,C   1)     -7.9345         0.017739   
    399. D(C  48,C  10,N   9,H  58)   -102.2921         0.017739   
    400. D(C  48,C  10,N   9,C   1)    110.8646         0.017739   
    401. D(C  11,C  10,N   9,C   1)   -123.5513         0.017739   
    402. D(H  59,C  10,N   9,H  58)    138.9087         0.017739   
    403. D(C  11,C  10,N   9,H  58)     23.2920         0.017739   
    404. D(O  47,C  11,C  10,N   9)      0.1214         0.010058   
    405. D(N  12,C  11,C  10,H  59)     67.3928         0.010058   
    406. D(N  12,C  11,C  10,C  48)    -51.9429         0.010058   
    407. D(N  12,C  11,C  10,N   9)   -177.9973         0.010058   
    408. D(O  47,C  11,C  10,H  59)   -114.4885         0.010058   
    409. D(O  47,C  11,C  10,C  48)    126.1758         0.010058   
    410. D(H  60,N  12,C  11,O  47)    173.8765         0.032613   
    411. D(H  60,N  12,C  11,C  10)     -7.9670         0.032613   
    412. D(C  13,N  12,C  11,O  47)      4.3722         0.032613   
    413. D(C  13,N  12,C  11,C  10)   -177.4712         0.032613   
    414. D(H  61,C  13,N  12,C  11)     55.9011         0.015718   
    415. D(H  61,C  13,N  12,H  60)   -113.6307         0.015718   
    416. D(C  45,C  13,N  12,H  60)      6.8404         0.015718   
    417. D(C  45,C  13,N  12,C  11)    176.3722         0.015718   
    418. D(C  14,C  13,N  12,C  11)    -59.1141         0.015718   
    419. D(C  14,C  13,N  12,H  60)    131.3541         0.015718   
    420. D(O  44,C  14,C  13,C  45)   -100.4709         0.009417   
    421. D(O  44,C  14,C  13,N  12)    136.2696         0.009417   
    422. D(N  15,C  14,C  13,H  61)   -165.0638         0.009417   
    423. D(N  15,C  14,C  13,C  45)     76.2694         0.009417   
    424. D(O  44,C  14,C  13,H  61)     18.1959         0.009417   
    425. D(N  15,C  14,C  13,N  12)    -46.9901         0.009417   
    426. D(H  62,N  15,C  14,O  44)   -176.8054         0.029823   
    427. D(H  62,N  15,C  14,C  13)      6.5670         0.029823   
    428. D(C  16,N  15,C  14,O  44)     -5.5626         0.029823   
    429. D(C  16,N  15,C  14,C  13)    177.8098         0.029823   
    430. D(H  64,C  16,N  15,H  62)   -175.7048         0.016575   
    431. D(H  64,C  16,N  15,C  14)     13.1873         0.016575   
    432. D(H  63,C  16,N  15,H  62)    -58.3534         0.016575   
    433. D(H  63,C  16,N  15,C  14)    130.5387         0.016575   
    434. D(C  17,C  16,N  15,C  14)   -107.1808         0.016575   
    435. D(C  17,C  16,N  15,H  62)     63.9271         0.016575   
    436. D(H  65,C  17,C  16,H  64)    172.3271         0.009545   
    437. D(H  65,C  17,C  16,H  63)     54.9238         0.009545   
    438. D(H  65,C  17,C  16,N  15)    -68.5955         0.009545   
    439. D(O  43,C  17,C  16,H  64)     56.6280         0.009545   
    440. D(O  43,C  17,C  16,H  63)    -60.7754         0.009545   
    441. D(O  43,C  17,C  16,N  15)    175.7054         0.009545   
    442. D(C  18,C  17,C  16,H  64)    -69.1394         0.009545   
    443. D(C  18,C  17,C  16,H  63)    173.4573         0.009545   
    444. D(C  18,C  17,C  16,N  15)     49.9380         0.009545   
    445. D(H  66,C  18,C  17,H  65)     70.7730         0.010339   
    446. D(H  66,C  18,C  17,O  43)   -171.1252         0.010339   
    447. D(H  66,C  18,C  17,C  16)    -48.2895         0.010339   
    448. D(C  32,C  18,C  17,O  43)     70.3405         0.010339   
    449. D(C  32,C  18,C  17,C  16)   -166.8238         0.010339   
    450. D(C  32,C  18,C  17,H  65)    -47.7613         0.010339   
    451. D(C  19,C  18,C  17,H  65)   -172.2758         0.010339   
    452. D(C  19,C  18,C  17,O  43)    -54.1740         0.010339   
    453. D(C  19,C  18,C  17,C  16)     68.6617         0.010339   
    454. D(O  31,C  19,C  18,H  66)    137.8728         0.009692   
    455. D(O  31,C  19,C  18,C  32)   -110.4657         0.009692   
    456. D(O  31,C  19,C  18,C  17)     20.0562         0.009692   
    457. D(N  20,C  19,C  18,H  66)    -44.6597         0.009692   
    458. D(N  20,C  19,C  18,C  17)   -162.4763         0.009692   
    459. D(N  20,C  19,C  18,C  32)     67.0018         0.009692   
    460. D(H  67,N  20,C  19,O  31)   -174.4609         0.034602   
    461. D(H  67,N  20,C  19,C  18)      8.1122         0.034602   
    462. D(C  21,N  20,C  19,O  31)     -5.8483         0.034602   
    463. D(C  21,N  20,C  19,C  18)    176.7248         0.034602   
    464. D(H  68,C  21,N  20,H  67)    108.3991         0.015416   
    465. D(H  68,C  21,N  20,C  19)    -59.9938         0.015416   
    466. D(C  27,C  21,N  20,H  67)   -130.9579         0.015416   
    467. D(C  27,C  21,N  20,C  19)     60.6491         0.015416   
    468. D(C  22,C  21,N  20,H  67)     -6.9929         0.015416   
    469. D(C  22,C  21,N  20,C  19)   -175.3859         0.015416   
    470. D(N  23,C  22,C  21,C  27)    168.9795         0.009306   
    471. D(N  23,C  22,C  21,N  20)     44.4631         0.009306   
    472. D(O  26,C  22,C  21,H  68)    111.1591         0.009306   
    473. D(O  26,C  22,C  21,C  27)     -9.0340         0.009306   
    474. D(O  26,C  22,C  21,N  20)   -133.5505         0.009306   
    475. D(N  23,C  22,C  21,H  68)    -70.8273         0.009306   
    476. D(H  69,N  23,C  22,O  26)   -177.9069         0.030682   
    477. D(H  69,N  23,C  22,C  21)      4.0911         0.030682   
    478. D(C  24,N  23,C  22,O  26)      2.2892         0.030682   
    479. D(C  24,N  23,C  22,C  21)   -175.7128         0.030682   
    480. D(H  70,C  24,N  23,H  69)   -174.7702         0.016055   
    481. D(H  70,C  24,N  23,C  22)      5.0412         0.016055   
    482. D(C  25,C  24,N  23,H  69)     66.4597         0.016055   
    483. D(C  25,C  24,N  23,C  22)   -113.7289         0.016055   
    484. D(C   7,C  24,N  23,H  69)    -57.3270         0.016055   
    485. D(C   7,C  24,N  23,C  22)    122.4844         0.016055   
    486. D(H  70,C  24,C   7,O   8)   -128.0696         0.009473   
    487. D(H  70,C  24,C   7,N   6)     51.5660         0.009473   
    488. D(C  25,C  24,C   7,O   8)     -7.0548         0.009473   
    489. D(C  25,C  24,C   7,N   6)    172.5808         0.009473   
    490. D(N  23,C  24,C   7,O   8)    117.0486         0.009473   
    491. D(N  23,C  24,C   7,N   6)    -63.3158         0.009473   
    492. D(H  73,C  25,C  24,H  70)   -178.3530         0.011537   
    493. D(H  73,C  25,C  24,N  23)    -62.4366         0.011537   
    494. D(H  73,C  25,C  24,C   7)     60.9966         0.011537   
    495. D(H  72,C  25,C  24,H  70)     62.6679         0.011537   
    496. D(H  72,C  25,C  24,N  23)    178.5843         0.011537   
    497. D(H  72,C  25,C  24,C   7)    -57.9825         0.011537   
    498. D(H  71,C  25,C  24,H  70)    -57.7123         0.011537   
    499. D(H  71,C  25,C  24,N  23)     58.2041         0.011537   
    500. D(H  71,C  25,C  24,C   7)   -178.3628         0.011537   
    501. D(H  75,C  27,C  21,H  68)    103.9800         0.010594   
    502. D(H  75,C  27,C  21,C  22)   -136.7492         0.010594   
    503. D(H  75,C  27,C  21,N  20)    -15.6730         0.010594   
    504. D(H  74,C  27,C  21,H  68)   -139.0750         0.010594   
    505. D(H  74,C  27,C  21,C  22)    -19.8043         0.010594   
    506. D(H  74,C  27,C  21,N  20)    101.2719         0.010594   
    507. D(C  28,C  27,C  21,H  68)    -16.6419         0.010594   
    508. D(C  28,C  27,C  21,C  22)    102.6289         0.010594   
    509. D(C  28,C  27,C  21,N  20)   -136.2949         0.010594   
    510. D(H  76,C  28,C  27,H  75)    -62.4181         0.010735   
    511. D(H  76,C  28,C  27,H  74)    179.8272         0.010735   
    512. D(H  76,C  28,C  27,C  21)     57.9950         0.010735   
    513. D(C  30,C  28,C  27,H  75)    178.4484         0.010735   
    514. D(C  30,C  28,C  27,H  74)     60.6937         0.010735   
    515. D(C  30,C  28,C  27,C  21)    -61.1385         0.010735   
    516. D(C  29,C  28,C  27,H  75)     54.6181         0.010735   
    517. D(C  29,C  28,C  27,H  74)    -63.1366         0.010735   
    518. D(C  29,C  28,C  27,C  21)    175.0312         0.010735   
    519. D(H  79,C  29,C  28,C  30)     57.4780         0.010996   
    520. D(H  79,C  29,C  28,C  27)   -177.6428         0.010996   
    521. D(H  78,C  29,C  28,H  76)    179.1327         0.010996   
    522. D(H  78,C  29,C  28,C  30)    -62.1212         0.010996   
    523. D(H  78,C  29,C  28,C  27)     62.7580         0.010996   
    524. D(H  77,C  29,C  28,H  76)     59.2011         0.010996   
    525. D(H  77,C  29,C  28,C  30)    177.9472         0.010996   
    526. D(H  79,C  29,C  28,H  76)    -61.2681         0.010996   
    527. D(H  77,C  29,C  28,C  27)    -57.1736         0.010996   
    528. D(H  82,C  30,C  28,H  76)   -177.9707         0.010926   
    529. D(H  82,C  30,C  28,C  29)     63.5033         0.010926   
    530. D(H  82,C  30,C  28,C  27)    -59.6639         0.010926   
    531. D(H  81,C  30,C  28,H  76)     61.6890         0.010926   
    532. D(H  81,C  30,C  28,C  29)    -56.8371         0.010926   
    533. D(H  81,C  30,C  28,C  27)    179.9958         0.010926   
    534. D(H  80,C  30,C  28,H  76)    -58.2862         0.010926   
    535. D(H  80,C  30,C  28,C  29)   -176.8122         0.010926   
    536. D(H  80,C  30,C  28,C  27)     60.0207         0.010926   
    537. D(O  42,C  32,C  18,H  66)      9.2566         0.010650   
    538. D(O  42,C  32,C  18,C  19)   -103.6301         0.010650   
    539. D(O  42,C  32,C  18,C  17)    129.4786         0.010650   
    540. D(C  33,C  32,C  18,H  66)   -174.7264         0.010650   
    541. D(C  33,C  32,C  18,C  19)     72.3868         0.010650   
    542. D(C  33,C  32,C  18,C  17)    -54.5045         0.010650   
    543. D(H  84,C  33,C  32,O  42)    157.0262         0.011625   
    544. D(H  84,C  33,C  32,C  18)    -18.8927         0.011625   
    545. D(H  83,C  33,C  32,O  42)    -89.6469         0.011625   
    546. D(H  83,C  33,C  32,C  18)     94.4343         0.011625   
    547. D(C  34,C  33,C  32,O  42)     32.2144         0.011625   
    548. D(C  34,C  33,C  32,C  18)   -143.7045         0.011625   
    549. D(H  86,C  34,C  33,H  84)     65.2029         0.010904   
    550. D(H  86,C  34,C  33,H  83)    -52.2911         0.010904   
    551. D(H  86,C  34,C  33,C  32)   -171.3800         0.010904   
    552. D(H  85,C  34,C  33,H  84)   -178.0295         0.010904   
    553. D(H  85,C  34,C  33,H  83)     64.4765         0.010904   
    554. D(H  85,C  34,C  33,C  32)    -54.6124         0.010904   
    555. D(C  35,C  34,C  33,H  84)    -57.0785         0.010904   
    556. D(C  35,C  34,C  33,H  83)   -174.5726         0.010904   
    557. D(C  35,C  34,C  33,C  32)     66.3386         0.010904   
    558. D(H  88,C  35,C  34,H  86)   -170.7872         0.011084   
    559. D(H  88,C  35,C  34,H  85)     71.4353         0.011084   
    560. D(H  88,C  35,C  34,C  33)    -49.1323         0.011084   
    561. D(H  87,C  35,C  34,H  86)    -55.8475         0.011084   
    562. D(H  87,C  35,C  34,H  85)   -173.6251         0.011084   
    563. D(H  87,C  35,C  34,C  33)     65.8074         0.011084   
    564. D(C  36,C  35,C  34,H  86)     68.2421         0.011084   
    565. D(C  36,C  35,C  34,H  85)    -49.5354         0.011084   
    566. D(C  36,C  35,C  34,C  33)   -170.1030         0.011084   
    567. D(H  90,C  36,C  35,H  87)     59.1441         0.011327   
    568. D(H  90,C  36,C  35,C  34)    -64.8350         0.011327   
    569. D(H  89,C  36,C  35,H  88)    -70.5699         0.011327   
    570. D(H  89,C  36,C  35,H  87)    174.9012         0.011327   
    571. D(H  89,C  36,C  35,C  34)     50.9222         0.011327   
    572. D(C  37,C  36,C  35,H  88)     50.4715         0.011327   
    573. D(C  37,C  36,C  35,H  87)    -64.0574         0.011327   
    574. D(H  90,C  36,C  35,H  88)    173.6730         0.011327   
    575. D(C  37,C  36,C  35,C  34)    171.9635         0.011327   
    576. D(H  92,C  37,C  36,H  90)   -174.3102         0.011134   
    577. D(H  92,C  37,C  36,H  89)     69.8637         0.011134   
    578. D(H  92,C  37,C  36,C  35)    -50.9162         0.011134   
    579. D(H  91,C  37,C  36,H  90)    -59.5703         0.011134   
    580. D(H  91,C  37,C  36,H  89)   -175.3964         0.011134   
    581. D(H  91,C  37,C  36,C  35)     63.8237         0.011134   
    582. D(C  38,C  37,C  36,H  90)     63.6737         0.011134   
    583. D(C  38,C  37,C  36,H  89)    -52.1524         0.011134   
    584. D(C  38,C  37,C  36,C  35)   -172.9323         0.011134   
    585. D(H  94,C  38,C  37,H  92)    178.4101         0.011266   
    586. D(H  94,C  38,C  37,H  91)     63.7150         0.011266   
    587. D(H  94,C  38,C  37,C  36)    -59.4464         0.011266   
    588. D(H  93,C  38,C  37,H  92)    -65.9179         0.011266   
    589. D(H  93,C  38,C  37,H  91)    179.3870         0.011266   
    590. D(H  93,C  38,C  37,C  36)     56.2256         0.011266   
    591. D(C  39,C  38,C  37,H  92)     55.7356         0.011266   
    592. D(C  39,C  38,C  37,H  91)    -58.9595         0.011266   
    593. D(C  39,C  38,C  37,C  36)    177.8791         0.011266   
    594. D(H  95,C  39,C  38,H  94)    -62.9589         0.011134   
    595. D(H  95,C  39,C  38,H  93)   -178.5709         0.011134   
    596. D(H  95,C  39,C  38,C  37)     59.8008         0.011134   
    597. D(C  40,C  39,C  38,H  94)     59.4637         0.011134   
    598. D(C  40,C  39,C  38,H  93)    -56.1483         0.011134   
    599. D(C  40,C  39,C  38,C  37)   -177.7765         0.011134   
    600. D(H  96,C  39,C  38,H  94)   -178.0302         0.011134   
    601. D(H  96,C  39,C  38,H  93)     66.3578         0.011134   
    602. D(H  96,C  39,C  38,C  37)    -55.2704         0.011134   
    603. D(H  98,C  40,C  39,H  95)     64.7744         0.011108   
    604. D(H  98,C  40,C  39,C  38)    -57.6130         0.011108   
    605. D(H  97,C  40,C  39,H  96)    -64.5808         0.011108   
    606. D(H  97,C  40,C  39,H  95)   -179.8609         0.011108   
    607. D(H  97,C  40,C  39,C  38)     57.7518         0.011108   
    608. D(C  41,C  40,C  39,H  96)     57.6562         0.011108   
    609. D(C  41,C  40,C  39,H  95)    -57.6239         0.011108   
    610. D(H  98,C  40,C  39,H  96)   -179.9456         0.011108   
    611. D(C  41,C  40,C  39,C  38)    179.9888         0.011108   
    612. D(H 101,C  41,C  40,H  98)    -62.1641         0.011152   
    613. D(H 101,C  41,C  40,H  97)   -178.0393         0.011152   
    614. D(H 101,C  41,C  40,C  39)     60.0015         0.011152   
    615. D(H 100,C  41,C  40,H  98)    178.4100         0.011152   
    616. D(H 100,C  41,C  40,H  97)     62.5348         0.011152   
    617. D(H 100,C  41,C  40,C  39)    -59.4245         0.011152   
    618. D(H  99,C  41,C  40,H  98)     58.0971         0.011152   
    619. D(H  99,C  41,C  40,H  97)    -57.7781         0.011152   
    620. D(H  99,C  41,C  40,C  39)   -179.7374         0.011152   
    621. D(H 102,O  43,C  17,H  65)    169.2671         0.020139   
    622. D(H 102,O  43,C  17,C  18)     50.1945         0.020139   
    623. D(H 102,O  43,C  17,C  16)    -73.3910         0.020139   
    624. D(H 104,C  45,C  13,H  61)     63.2104         0.010768   
    625. D(H 104,C  45,C  13,C  14)    178.4623         0.010768   
    626. D(H 104,C  45,C  13,N  12)    -56.9025         0.010768   
    627. D(H 103,C  45,C  13,H  61)    178.8962         0.010768   
    628. D(H 103,C  45,C  13,C  14)    -65.8518         0.010768   
    629. D(H 103,C  45,C  13,N  12)     58.7834         0.010768   
    630. D(C  46,C  45,C  13,H  61)    -58.5135         0.010768   
    631. D(C  46,C  45,C  13,C  14)     56.7385         0.010768   
    632. D(C  46,C  45,C  13,N  12)   -178.6263         0.010768   
    633. D(H 107,C  46,C  45,H 104)    -62.2962         0.011296   
    634. D(H 107,C  46,C  45,H 103)   -179.6367         0.011296   
    635. D(H 107,C  46,C  45,C  13)     58.3160         0.011296   
    636. D(H 106,C  46,C  45,H 104)    177.9738         0.011296   
    637. D(H 106,C  46,C  45,H 103)     60.6333         0.011296   
    638. D(H 106,C  46,C  45,C  13)    -61.4141         0.011296   
    639. D(H 105,C  46,C  45,H 104)     57.6933         0.011296   
    640. D(H 105,C  46,C  45,H 103)    -59.6472         0.011296   
    641. D(H 105,C  46,C  45,C  13)    178.3054         0.011296   
    642. D(H 108,C  48,C  10,H  59)    -60.1792         0.009489   
    643. D(H 108,C  48,C  10,C  11)     59.4063         0.009489   
    644. D(H 108,C  48,C  10,N   9)   -178.3688         0.009489   
    645. D(C  50,C  48,C  10,H  59)     56.7774         0.009489   
    646. D(C  50,C  48,C  10,C  11)    176.3629         0.009489   
    647. D(C  50,C  48,C  10,N   9)    -61.4123         0.009489   
    648. D(C  49,C  48,C  10,H  59)   -179.0695         0.009489   
    649. D(C  49,C  48,C  10,C  11)    -59.4840         0.009489   
    650. D(C  49,C  48,C  10,N   9)     62.7409         0.009489   
    651. D(H 111,C  49,C  48,C  50)     63.5263         0.011173   
    652. D(H 111,C  49,C  48,C  10)    -59.9674         0.011173   
    653. D(H 110,C  49,C  48,H 108)     62.0269         0.011173   
    654. D(H 110,C  49,C  48,C  50)    -56.6050         0.011173   
    655. D(H 110,C  49,C  48,C  10)    179.9013         0.011173   
    656. D(H 109,C  49,C  48,H 108)    -58.4859         0.011173   
    657. D(H 109,C  49,C  48,C  50)   -177.1179         0.011173   
    658. D(H 111,C  49,C  48,H 108)   -177.8418         0.011173   
    659. D(H 109,C  49,C  48,C  10)     59.3885         0.011173   
    660. D(H 114,C  50,C  48,H 108)    -60.4621         0.011135   
    661. D(H 114,C  50,C  48,C  49)     58.6992         0.011135   
    662. D(H 114,C  50,C  48,C  10)   -176.9082         0.011135   
    663. D(H 113,C  50,C  48,H 108)    179.9065         0.011135   
    664. D(H 113,C  50,C  48,C  49)    -60.9322         0.011135   
    665. D(H 113,C  50,C  48,C  10)     63.4604         0.011135   
    666. D(H 112,C  50,C  48,H 108)     60.8390         0.011135   
    667. D(H 112,C  50,C  48,C  49)   -179.9997         0.011135   
    668. D(H 112,C  50,C  48,C  10)    -55.6070         0.011135   
    -----------------------------------------------------------------

Number of atoms                         .... 115
Number of degrees of freedom            .... 668

         *************************************************************
         *                GEOMETRY OPTIMIZATION CYCLE   1            *
         *************************************************************
---------------------------------
CARTESIAN COORDINATES (ANGSTROEM)
---------------------------------
  O      3.104010   -3.475543    2.704928
  C      2.342187   -2.765840    2.058707
  C      0.922307   -2.432271    2.535120
  C     -0.205524   -3.106601    1.731277
  C     -1.379902   -2.129111    1.880512
  C     -0.697580   -0.765009    1.763672
  N      0.603570   -0.993813    2.410634
  C      1.435507   -0.077119    2.987886
  O      2.488911   -0.422304    3.528466
  N      2.663096   -2.222552    0.840027
  C      4.036960   -1.901910    0.523868
  C      4.073125   -0.411907    0.154953
  N      5.267204    0.108627   -0.222617
  C      5.394601    1.531051   -0.536060
  C      4.460469    1.953810   -1.692007
  N      4.475503    1.131515   -2.784565
  C      3.622668    1.356384   -3.941653
  C      2.440196    0.360702   -4.087535
  C      1.665235    0.253849   -2.759976
  C      0.909675    1.556449   -2.433308
  N      0.555834    1.609557   -1.132840
  C     -0.112657    2.736432   -0.478026
  C     -0.207819    2.392609    1.027221
  N      0.932920    1.872707    1.564513
  C      1.002183    1.404495    2.944843
  C      1.936558    2.270701    3.782856
  O     -1.243846    2.542335    1.673785
  C     -1.486936    3.058061   -1.087402
  C     -1.739921    4.558339   -1.293911
  C     -3.076214    4.759889   -2.015372
  C     -1.705871    5.347846    0.019549
  O      0.626129    2.414142   -3.280251
  C      0.665797   -0.889956   -2.602755
  C     -0.426673   -1.066456   -3.636598
  C     -1.740872   -1.539704   -3.004564
  C     -2.334059   -0.467974   -2.086521
  C     -3.511693   -0.934973   -1.232823
  C     -3.929476    0.116162   -0.202358
  C     -4.989016   -0.361891    0.790078
  C     -5.344763    0.696416    1.836360
  C     -6.364921    0.218508    2.872316
  C     -6.709659    1.287548    3.911010
  O      0.722576   -1.600064   -1.601169
  O      1.641515    0.754715   -5.191206
  O      3.812096    2.993722   -1.627588
  C      6.862540    1.859009   -0.842196
  C      7.095146    3.337645   -1.149480
  O      3.055125    0.296310    0.161341
  C      4.660023   -2.814827   -0.567933
  C      3.932951   -2.672621   -1.906171
  C      4.670797   -4.269587   -0.093791
  H      0.899301   -2.724951    3.595796
  H     -0.417497   -4.115824    2.103259
  H      0.081929   -3.181613    0.671758
  H     -2.155681   -2.269447    1.118326
  H     -1.847387   -2.233581    2.871193
  H     -0.561327   -0.499108    0.700384
  H     -1.250435    0.052609    2.242884
  H      1.983259   -1.587883    0.417862
  H      4.618236   -2.042064    1.453254
  H      6.107726   -0.455562   -0.133850
  H      5.048977    2.125747    0.323236
  H      5.006728    0.267668   -2.718509
  H      4.216432    1.314891   -4.866014
  H      3.217460    2.371088   -3.834999
  H      2.840059   -0.637986   -4.332755
  H      2.392816    0.103143   -1.953385
  H      0.937308    0.873452   -0.540817
  H      0.546524    3.618896   -0.579550
  H      1.784778    1.791682    1.007386
  H     -0.026600    1.490348    3.327004
  H      1.589266    3.311874    3.758483
  H      1.957257    1.920311    4.822064
  H      2.963061    2.219872    3.397253
  H     -2.265924    2.638373   -0.434525
  H     -1.553693    2.557194   -2.060786
  H     -0.934823    4.935592   -1.950248
  H     -3.095663    4.225847   -2.976909
  H     -3.909305    4.382089   -1.401405
  H     -3.264848    5.824902   -2.214598
  H     -0.734900    5.264263    0.529160
  H     -1.890408    6.416441   -0.165157
  H     -2.471146    4.977525    0.717015
  H     -0.048347   -1.799039   -4.372307
  H     -0.553769   -0.131621   -4.199448
  H     -1.549382   -2.456217   -2.426214
  H     -2.454801   -1.801985   -3.800519
  H     -2.631901    0.408881   -2.686109
  H     -1.545298   -0.106450   -1.405914
  H     -3.226487   -1.865367   -0.710053
  H     -4.370438   -1.200756   -1.873049
  H     -4.293223    1.017580   -0.725163
  H     -3.037626    0.443998    0.359594
  H     -4.623192   -1.270359    1.301689
  H     -5.900218   -0.667358    0.246228
  H     -5.734711    1.595392    1.327196
  H     -4.423321    1.021426    2.350373
  H     -5.970690   -0.678310    3.380664
  H     -7.283885   -0.106336    2.354820
  H     -7.439874    0.919344    4.645951
  H     -5.811984    1.608101    4.461272
  H     -7.138219    2.180968    3.431847
  H      1.165812    1.557857   -4.863013
  H      7.198388    1.240707   -1.692177
  H      7.466080    1.558266    0.030639
  H      8.160908    3.528618   -1.331854
  H      6.533257    3.656611   -2.037330
  H      6.772601    3.970784   -0.311270
  H      5.710090   -2.493162   -0.698413
  H      3.963415   -1.638827   -2.281289
  H      4.385788   -3.322463   -2.667823
  H      2.875541   -2.949204   -1.797944
  H      5.191291   -4.378564    0.866479
  H      3.643231   -4.630294    0.050642
  H      5.160765   -4.911470   -0.839985

----------------------------
CARTESIAN COORDINATES (A.U.)
----------------------------
  NO LB      ZA    FRAG     MASS         X           Y           Z
   0 O     8.0000    0    15.999    5.865728   -6.567825    5.111574
   1 C     6.0000    0    12.011    4.426093   -5.226681    3.890392
   2 C     6.0000    0    12.011    1.742907   -4.596325    4.790682
   3 C     6.0000    0    12.011   -0.388383   -5.870625    3.271640
   4 C     6.0000    0    12.011   -2.607637   -4.023437    3.553652
   5 C     6.0000    0    12.011   -1.318236   -1.445657    3.332857
   6 N     7.0000    0    14.007    1.140581   -1.878035    4.555439
   7 C     6.0000    0    12.011    2.712714   -0.145733    5.646287
   8 O     8.0000    0    15.999    4.703359   -0.798040    6.667835
   9 N     7.0000    0    14.007    5.032523   -4.200014    1.587421
  10 C     6.0000    0    12.011    7.628749   -3.594088    0.989967
  11 C     6.0000    0    12.011    7.697091   -0.778392    0.292818
  12 N     7.0000    0    14.007    9.953572    0.205275   -0.420685
  13 C     6.0000    0    12.011   10.194319    2.893267   -1.013006
  14 C     6.0000    0    12.011    8.429065    3.692165   -3.197430
  15 N     7.0000    0    14.007    8.457476    2.138253   -5.262065
  16 C     6.0000    0    12.011    6.845851    2.563194   -7.448644
  17 C     6.0000    0    12.011    4.611302    0.681627   -7.724321
  18 C     6.0000    0    12.011    3.146838    0.479705   -5.215599
  19 C     6.0000    0    12.011    1.719037    2.941262   -4.598286
  20 N     7.0000    0    14.007    1.050373    3.041622   -2.140758
  21 C     6.0000    0    12.011   -0.212891    5.171107   -0.903338
  22 C     6.0000    0    12.011   -0.392720    4.521375    1.941166
  23 N     7.0000    0    14.007    1.762963    3.538904    2.956501
  24 C     6.0000    0    12.011    1.893852    2.654111    5.564947
  25 C     6.0000    0    12.011    3.659564    4.291004    7.148562
  26 O     8.0000    0    15.999   -2.350528    4.804317    3.162995
  27 C     6.0000    0    12.011   -2.809902    5.778898   -2.054892
  28 C     6.0000    0    12.011   -3.287975    8.614012   -2.445138
  29 C     6.0000    0    12.011   -5.813201    8.994886   -3.808500
  30 C     6.0000    0    12.011   -3.223629   10.105965    0.036943
  31 O     8.0000    0    15.999    1.183212    4.562068   -6.198776
  32 C     6.0000    0    12.011    1.258174   -1.681772   -4.918494
  33 C     6.0000    0    12.011   -0.806295   -2.015310   -6.872175
  34 C     6.0000    0    12.011   -3.289771   -2.909618   -5.677803
  35 C     6.0000    0    12.011   -4.410732   -0.884343   -3.942954
  36 C     6.0000    0    12.011   -6.636137   -1.766842   -2.329698
  37 C     6.0000    0    12.011   -7.425633    0.219515   -0.382401
  38 C     6.0000    0    12.011   -9.427873   -0.683874    1.493032
  39 C     6.0000    0    12.011  -10.100138    1.316035    3.470217
  40 C     6.0000    0    12.011  -12.027957    0.412920    5.427891
  41 C     6.0000    0    12.011  -12.679418    2.433113    7.390739
  42 O     8.0000    0    15.999    1.365470   -3.023683   -3.025771
  43 O     8.0000    0    15.999    3.102014    1.426204   -9.809958
  44 O     8.0000    0    15.999    7.203818    5.657316   -3.075696
  45 C     6.0000    0    12.011   12.968321    3.513018   -1.591520
  46 C     6.0000    0    12.011   13.407883    6.307234   -2.172201
  47 O     8.0000    0    15.999    5.773349    0.559945    0.304891
  48 C     6.0000    0    12.011    8.806168   -5.319252   -1.073238
  49 C     6.0000    0    12.011    7.432200   -5.050522   -3.602142
  50 C     6.0000    0    12.011    8.826527   -8.068349   -0.177240
  51 H     1.0000    0     1.008    1.699432   -5.149411    6.795069
  52 H     1.0000    0     1.008   -0.788954   -7.777780    3.974583
  53 H     1.0000    0     1.008    0.154823   -6.012377    1.269438
  54 H     1.0000    0     1.008   -4.073647   -4.288634    2.113330
  55 H     1.0000    0     1.008   -3.491056   -4.220856    5.425769
  56 H     1.0000    0     1.008   -1.060754   -0.943177    1.323534
  57 H     1.0000    0     1.008   -2.362980    0.099416    4.238436
  58 H     1.0000    0     1.008    3.747816   -3.000665    0.789645
  59 H     1.0000    0     1.008    8.727200   -3.858941    2.746252
  60 H     1.0000    0     1.008   11.541929   -0.860888   -0.252939
  61 H     1.0000    0     1.008    9.541184    4.017079    0.610828
  62 H     1.0000    0     1.008    9.461344    0.505819   -5.137237
  63 H     1.0000    0     1.008    7.967901    2.484784   -9.195435
  64 H     1.0000    0     1.008    6.080117    4.480708   -7.247099
  65 H     1.0000    0     1.008    5.366934   -1.205619   -8.187720
  66 H     1.0000    0     1.008    4.521768    0.194912   -3.691362
  67 H     1.0000    0     1.008    1.771256    1.650586   -1.021995
  68 H     1.0000    0     1.008    1.032781    6.838722   -1.095192
  69 H     1.0000    0     1.008    3.372741    3.385789    1.903683
  70 H     1.0000    0     1.008   -0.050267    2.816349    6.287126
  71 H     1.0000    0     1.008    3.003278    6.258534    7.102503
  72 H     1.0000    0     1.008    3.698679    3.628862    9.112381
  73 H     1.0000    0     1.008    5.599373    4.194951    6.419878
  74 H     1.0000    0     1.008   -4.281975    4.985802   -0.821133
  75 H     1.0000    0     1.008   -2.936055    4.832395   -3.894321
  76 H     1.0000    0     1.008   -1.766560    9.326917   -3.685435
  77 H     1.0000    0     1.008   -5.849956    7.985694   -5.625543
  78 H     1.0000    0     1.008   -7.387516    8.280948   -2.648272
  79 H     1.0000    0     1.008   -6.169669   11.007469   -4.184983
  80 H     1.0000    0     1.008   -1.388760    9.948014    0.999968
  81 H     1.0000    0     1.008   -3.572354   12.125316   -0.312102
  82 H     1.0000    0     1.008   -4.669788    9.406160    1.354962
  83 H     1.0000    0     1.008   -0.091363   -3.399691   -8.262463
  84 H     1.0000    0     1.008   -1.046472   -0.248728   -7.935807
  85 H     1.0000    0     1.008   -2.927908   -4.641578   -4.584879
  86 H     1.0000    0     1.008   -4.638901   -3.405258   -7.181940
  87 H     1.0000    0     1.008   -4.973572    0.772674   -5.076010
  88 H     1.0000    0     1.008   -2.920190   -0.201161   -2.656792
  89 H     1.0000    0     1.008   -6.097177   -3.525032   -1.341806
  90 H     1.0000    0     1.008   -8.258931   -2.269099   -3.539550
  91 H     1.0000    0     1.008   -8.113017    1.922948   -1.370359
  92 H     1.0000    0     1.008   -5.740282    0.839035    0.679535
  93 H     1.0000    0     1.008   -8.736567   -2.400631    2.459835
  94 H     1.0000    0     1.008  -11.149796   -1.261124    0.465303
  95 H     1.0000    0     1.008  -10.837033    3.014855    2.508037
  96 H     1.0000    0     1.008   -8.358865    1.930214    4.441561
  97 H     1.0000    0     1.008  -11.282969   -1.281821    6.388529
  98 H     1.0000    0     1.008  -13.764549   -0.200946    4.449965
  99 H     1.0000    0     1.008  -14.059324    1.737308    8.779575
 100 H     1.0000    0     1.008  -10.983058    3.038871    8.430583
 101 H     1.0000    0     1.008  -13.489280    4.121432    6.485250
 102 H     1.0000    0     1.008    2.203066    2.943923   -9.189762
 103 H     1.0000    0     1.008   13.602981    2.344597   -3.197751
 104 H     1.0000    0     1.008   14.108847    2.944696    0.057898
 105 H     1.0000    0     1.008   15.421880    6.668121   -2.516840
 106 H     1.0000    0     1.008   12.346066    6.909993   -3.849996
 107 H     1.0000    0     1.008   12.798362    7.503695   -0.588214
 108 H     1.0000    0     1.008   10.790507   -4.711394   -1.319809
 109 H     1.0000    0     1.008    7.489769   -3.096933   -4.311011
 110 H     1.0000    0     1.008    8.287939   -6.278546   -5.041454
 111 H     1.0000    0     1.008    5.433984   -5.573187   -3.397621
 112 H     1.0000    0     1.008    9.810119   -8.274286    1.637409
 113 H     1.0000    0     1.008    6.884709   -8.749987    0.095700
 114 H     1.0000    0     1.008    9.752432   -9.281334   -1.587342

--------------------------------
INTERNAL COORDINATES (ANGSTROEM)
--------------------------------
 O      0   0   0     0.000000000000     0.00000000     0.00000000
 C      1   0   0     1.225419827937     0.00000000     0.00000000
 C      2   1   0     1.534372566060   122.51105229     0.00000000
 C      3   2   1     1.540417178846   114.85558924   250.85730921
 C      4   3   2     1.535226917629   103.33348806   208.00345588
 C      5   4   3     1.529702318587   102.65900185    39.96690544
 N      6   5   4     1.471021069192   102.84086370   325.24790857
 C      7   6   5     1.365894794346   128.33249139   203.75038919
 O      8   7   6     1.233304497776   121.17364984   178.02607419
 N      2   1   3     1.372343003425   123.51816320   181.42152690
 C     10   2   1     1.445776567141   120.27823110   330.30300409
 C     11  10   2     1.535419717820   106.86647878   236.44873535
 N     12  11  10     1.356221611808   117.39274086   182.00273552
 C     13  12  11     1.462110499490   120.64995775   182.52880839
 C     14  13  12     1.545167281444   111.95477897   300.88585606
 N     15  14  13     1.367507577838   115.24732584   313.00993603
 C     16  15  14     1.454904361661   122.41289986   177.80980251
 C     17  16  15     1.552708665529   114.96199299   252.81919071
 C     18  17  16     1.540906850356   110.27505735    49.93803135
 C     19  18  17     1.540892282362   111.75450142    68.66168894
 N     20  19  18     1.348792077259   111.48914400   197.52369676
 C     21  20  19     1.464755536839   125.52441044   176.72482889
 C     22  21  20     1.546944904965   106.98260481   184.61412283
 N     23  22  21     1.363915140400   114.61929204    44.46306370
 C     24  23  22     1.459222925135   122.31970015   184.28716237
 C     25  24  23     1.525003214258   111.50834787   246.27110815
 O     23  22  21     1.230372219610   122.41782143   226.44954094
 C     22  21  20     1.537344108166   113.06191705    60.64913247
 C     28  22  21     1.535408869551   113.89283512   223.70507063
 C     29  28  22     1.531928333769   109.61044620   175.03119689
 C     29  28  22     1.532860218583   112.60419912   298.86149860
 O     20  19  18     1.238284708805   123.56007322    20.05621702
 C     19  18  17     1.527050409731   118.02144824   193.17624938
 C     33  19  18     1.514422488595   119.28439943   305.49549857
 C     34  33  19     1.533150300817   111.89495100   216.29554927
 C     35  34  33     1.530776322877   111.30233023    66.33855086
 C     36  35  34     1.527648252904   114.82452749   189.89702397
 C     37  36  35     1.530126072158   112.13708677   171.96351174
 C     38  37  36     1.528427165893   114.31150747   187.06773137
 C     39  38  37     1.530122057597   112.88227026   177.87909230
 C     40  39  38     1.530464875671   113.69377082   182.22346055
 C     41  40  39     1.529894416162   113.05183957   179.98876567
 O     33  19  18     1.229085781090   119.10551224   129.47856705
 O     18  17  16     1.418177720545   108.89560922   175.70539158
 O     15  14  13     1.227173837446   120.79660292   136.26961898
 C     14  13  12     1.534965955040   109.50826043   176.37219791
 C     46  14  13     1.528035230022   113.10618813   181.37366475
 O     12  11  10     1.240135795550   122.25005509     0.12137308
 C     11  10   2     1.553594370078   113.85697634   110.86463697
 C     49  11  10     1.529620326223   111.68926578    62.74085508
 C     49  11  10     1.530115229366   110.10458909   298.58768456
 H      3   2   1     1.100556445256   105.11587678    14.14815942
 H      4   3   2     1.096282086719   111.56137583    85.21984169
 H      4   3   2     1.100380558846   109.94002438   325.01815930
 H      5   4   3     1.096565187393   113.08692642   160.98615696
 H      5   4   3     1.100411952366   110.61214375   282.58127092
 H      6   5   4     1.104468067174   110.07486687    83.11313826
 H      6   5   4     1.097173824772   113.97952244   204.17106353
 H     10   2   1     1.021374705189   117.21941973   184.53394733
 H     11  10   2     1.105116474303   106.72581313   352.06548334
 H     13  12  11     1.016201983156   119.39489071   352.03303790
 H     14  13  12     1.100685793130   109.32387204    55.90108116
 H     16  15  14     1.016265088714   117.70649645     6.56700894
 H     17  16  15     1.099418637671   110.25854744   130.53874757
 H     17  16  15     1.097813477366   106.37698583    13.18733823
 H     18  17  16     1.103358853224   108.98445910   291.40454463
 H     19  18  17     1.096666234240   108.03059003   311.71049615
 H     21  20  19     1.018756701990   115.69748982     8.11218745
 H     22  21  20     1.106151073291   107.50275051   300.00620987
 H     24  23  22     1.021086425724   120.86815018     4.09106582
 H     25  24  23     1.100823977950   105.01108093     5.04118322
 H     26  25  24     1.097836722979   109.43044581    58.20408030
 H     26  25  24     1.096884618168   110.53254077   178.58433598
 H     26  25  24     1.097716251590   110.70897404   297.56341834
 H     28  22  21     1.099639896531   108.54657517   101.27194007
 H     28  22  21     1.096723061048   108.09974858   344.32695821
 H     29  28  22     1.105115577628   107.06175325    57.99497763
 H     30  29  28     1.100060637773   111.29667333   302.82639413
 H     30  29  28     1.101693896323   110.61257684    62.75796722
 H     30  29  28     1.099784927772   111.24363734   182.35721690
 H     31  29  28     1.099761082258   112.18052191    60.02065014
 H     31  29  28     1.100029106080   110.65457547   179.99578303
 H     31  29  28     1.099654999468   110.76691535   300.33610664
 H     34  33  19     1.105022651385   106.54672323    94.43428318
 H     34  33  19     1.098576487761   109.51429233   341.10733997
 H     35  34  33     1.100524539765   108.93889824   305.38758391
 H     35  34  33     1.100922648188   109.35138272   188.62001502
 H     36  35  34     1.103218366231   109.58118252    65.80736547
 H     36  35  34     1.102755917371   108.81406454   310.86772193
 H     37  36  35     1.104655428988   108.83878257    50.92216396
 H     37  36  35     1.103618495730   110.44264268   295.16500763
 H     38  37  36     1.103717126136   109.39227032    63.82372976
 H     38  37  36     1.103930291868   109.04084545   309.08382971
 H     39  38  37     1.104937720934   109.16538849    56.22564602
 H     39  38  37     1.104252442603   109.80131902   300.55357937
 H     40  39  38     1.104294427019   109.26102311    59.80084771
 H     40  39  38     1.104036270769   109.14270110   304.72958983
 H     41  40  39     1.103684023932   109.11166837    57.75177789
 H     41  40  39     1.103549612879   109.24289581   302.38699692
 H     42  41  40     1.099511272071   111.68248538   180.26261114
 H     42  41  40     1.100619265698   111.04898558   300.57554351
 H     42  41  40     1.100663708642   111.06133179    60.00145760
 H     44  18  17     0.989465654674   103.77673731   286.60899383
 H     46  14  13     1.103430071606   108.96469084    58.78336034
 H     46  14  13     1.102972368779   107.89145559   303.09748007
 H     47  46  14     1.097988594812   110.45467743   178.30538335
 H     47  46  14     1.098060858786   111.45648228   298.58590751
 H     47  46  14     1.098861424194   111.06777113    58.31595626
 H     49  11  10     1.105953680317   107.02471582   181.63116233
 H     50  49  11     1.100169130043   111.86989609    59.38849112
 H     50  49  11     1.098849242762   110.82706795   179.90131945
 H     50  49  11     1.098329451940   110.36496918   300.03261070
 H     51  49  11     1.097684136686   111.64225908   304.39295250
 H     51  49  11     1.098572880294   110.26274645    63.46036182
 H     51  49  11     1.099494475790   110.35793110   183.09176700

---------------------------
INTERNAL COORDINATES (A.U.)
---------------------------
 O      0   0   0     0.000000000000     0.00000000     0.00000000
 C      1   0   0     2.315707873877     0.00000000     0.00000000
 C      2   1   0     2.899543937256   122.51105229     0.00000000
 C      3   2   1     2.910966600007   114.85558924   250.85730921
 C      4   3   2     2.901158427742   103.33348806   208.00345588
 C      5   4   3     2.890718448555   102.65900185    39.96690544
 N      6   5   4     2.779826958002   102.84086370   325.24790857
 C      7   6   5     2.581167089063   128.33249139   203.75038919
 O      8   7   6     2.330607740530   121.17364984   178.02607419
 N      2   1   3     2.593352438276   123.51816320   181.42152690
 C     10   2   1     2.732121762737   120.27823110   330.30300409
 C     11  10   2     2.901522767302   106.86647878   236.44873535
 N     12  11  10     2.562887423223   117.39274086   182.00273552
 C     13  12  11     2.762988421567   120.64995775   182.52880839
 C     14  13  12     2.919942993024   111.95477897   300.88585606
 N     15  14  13     2.584214808175   115.24732584   313.00993603
 C     16  15  14     2.749370794588   122.41289986   177.80980251
 C     17  16  15     2.934194143615   114.96199299   252.81919071
 C     18  17  16     2.911891945057   110.27505735    49.93803135
 C     19  18  17     2.911864415537   111.75450142    68.66168894
 N     20  19  18     2.548847637622   111.48914400   197.52369676
 C     21  20  19     2.767986817771   125.52441044   176.72482889
 C     22  21  20     2.923302214649   106.98260481   184.61412283
 N     23  22  21     2.577426085264   114.61929204    44.46306370
 C     24  23  22     2.757531696844   122.31970015   184.28716237
 C     25  24  23     2.881838428298   111.50834787   246.27110815
 O     23  22  21     2.325066537848   122.41782143   226.44954094
 C     22  21  20     2.905159338031   113.06191705    60.64913247
 C     28  22  21     2.901502267046   113.89283512   223.70507063
 C     29  28  22     2.894925007618   109.61044620   175.03119689
 C     29  28  22     2.896686014704   112.60419912   298.86149860
 O     20  19  18     2.340018975464   123.56007322    20.05621702
 C     19  18  17     2.885707067083   118.02144824   193.17624938
 C     33  19  18     2.861843754496   119.28439943   305.49549857
 C     34  33  19     2.897234190683   111.89495100   216.29554927
 C     35  34  33     2.892748022528   111.30233023    66.33855086
 C     36  35  34     2.886836826951   114.82452749   189.89702397
 C     37  36  35     2.891519226752   112.13708677   171.96351174
 C     38  37  36     2.888308759183   114.31150747   187.06773137
 C     39  38  37     2.891511640330   112.88227026   177.87909230
 C     40  39  38     2.892159472604   113.69377082   182.22346055
 C     41  40  39     2.891081460361   113.05183957   179.98876567
 O     33  19  18     2.322635521356   119.10551224   129.47856705
 O     18  17  16     2.679967501059   108.89560922   175.70539158
 O     15  14  13     2.319022471486   120.79660292   136.26961898
 C     14  13  12     2.900665279918   109.50826043   176.37219791
 C     46  14  13     2.887568107725   113.10618813   181.37366475
 O     12  11  10     2.343517022462   122.25005509     0.12137308
 C     11  10   2     2.935867882650   113.85697634   110.86463697
 C     49  11  10     2.890563505440   111.68926578    62.74085508
 C     49  11  10     2.891498736843   110.10458909   298.58768456
 H      3   2   1     2.079750276456   105.11587678    14.14815942
 H      4   3   2     2.071672909423   111.56137583    85.21984169
 H      4   3   2     2.079417899309   109.94002438   325.01815930
 H      5   4   3     2.072207892165   113.08692642   160.98615696
 H      5   4   3     2.079477224466   110.61214375   282.58127092
[...]
freq.      86.79  E(vib)   ...       0.48 
freq.      91.92  E(vib)   ...       0.47 
freq.      95.11  E(vib)   ...       0.47 
freq.      99.54  E(vib)   ...       0.46 
freq.     104.55  E(vib)   ...       0.46 
freq.     107.92  E(vib)   ...       0.45 
freq.     114.97  E(vib)   ...       0.44 
freq.     119.65  E(vib)   ...       0.44 
freq.     128.79  E(vib)   ...       0.43 
freq.     129.79  E(vib)   ...       0.43 
freq.     131.19  E(vib)   ...       0.42 
freq.     139.34  E(vib)   ...       0.42 
freq.     144.17  E(vib)   ...       0.41 
freq.     152.48  E(vib)   ...       0.40 
freq.     153.13  E(vib)   ...       0.40 
freq.     157.28  E(vib)   ...       0.40 
freq.     161.96  E(vib)   ...       0.39 
freq.     167.25  E(vib)   ...       0.39 
freq.     175.02  E(vib)   ...       0.38 
freq.     189.37  E(vib)   ...       0.36 
freq.     194.45  E(vib)   ...       0.36 
freq.     198.89  E(vib)   ...       0.35 
freq.     210.24  E(vib)   ...       0.34 
freq.     215.18  E(vib)   ...       0.34 
freq.     218.54  E(vib)   ...       0.33 
freq.     220.25  E(vib)   ...       0.33 
freq.     222.25  E(vib)   ...       0.33 
freq.     223.73  E(vib)   ...       0.33 
freq.     225.79  E(vib)   ...       0.33 
freq.     234.32  E(vib)   ...       0.32 
freq.     236.79  E(vib)   ...       0.32 
freq.     238.13  E(vib)   ...       0.32 
freq.     240.62  E(vib)   ...       0.31 
freq.     243.70  E(vib)   ...       0.31 
freq.     253.11  E(vib)   ...       0.30 
freq.     269.11  E(vib)   ...       0.29 
freq.     269.89  E(vib)   ...       0.29 
freq.     273.21  E(vib)   ...       0.29 
freq.     284.89  E(vib)   ...       0.28 
freq.     289.37  E(vib)   ...       0.27 
freq.     294.76  E(vib)   ...       0.27 
freq.     303.61  E(vib)   ...       0.26 
freq.     309.09  E(vib)   ...       0.26 
freq.     319.06  E(vib)   ...       0.25 
freq.     328.61  E(vib)   ...       0.24 
freq.     336.59  E(vib)   ...       0.24 
freq.     342.61  E(vib)   ...       0.23 
freq.     348.46  E(vib)   ...       0.23 
freq.     351.47  E(vib)   ...       0.23 
freq.     368.66  E(vib)   ...       0.21 
freq.     376.53  E(vib)   ...       0.21 
freq.     392.22  E(vib)   ...       0.20 
freq.     394.04  E(vib)   ...       0.20 
freq.     399.99  E(vib)   ...       0.19 
freq.     401.87  E(vib)   ...       0.19 
freq.     424.14  E(vib)   ...       0.18 
freq.     436.02  E(vib)   ...       0.17 
freq.     436.19  E(vib)   ...       0.17 
freq.     445.53  E(vib)   ...       0.17 
freq.     450.05  E(vib)   ...       0.17 
freq.     461.77  E(vib)   ...       0.16 
freq.     469.19  E(vib)   ...       0.16 
freq.     485.54  E(vib)   ...       0.15 
freq.     495.19  E(vib)   ...       0.14 
freq.     499.88  E(vib)   ...       0.14 
freq.     504.32  E(vib)   ...       0.14 
freq.     528.63  E(vib)   ...       0.13 
freq.     532.35  E(vib)   ...       0.13 
freq.     548.42  E(vib)   ...       0.12 
freq.     555.14  E(vib)   ...       0.12 
freq.     559.92  E(vib)   ...       0.12 
freq.     581.31  E(vib)   ...       0.11 
freq.     592.64  E(vib)   ...       0.10 
freq.     606.19  E(vib)   ...       0.10 
freq.     613.42  E(vib)   ...       0.10 
freq.     642.76  E(vib)   ...       0.09 
freq.     650.26  E(vib)   ...       0.08 
freq.     661.25  E(vib)   ...       0.08 
freq.     666.41  E(vib)   ...       0.08 
freq.     688.29  E(vib)   ...       0.07 
freq.     694.85  E(vib)   ...       0.07 
freq.     702.34  E(vib)   ...       0.07 
freq.     703.81  E(vib)   ...       0.07 
freq.     710.24  E(vib)   ...       0.07 
freq.     712.96  E(vib)   ...       0.07 
freq.     724.79  E(vib)   ...       0.06 
freq.     727.09  E(vib)   ...       0.06 
freq.     731.68  E(vib)   ...       0.06 
freq.     736.51  E(vib)   ...       0.06 
freq.     756.25  E(vib)   ...       0.06 
freq.     756.78  E(vib)   ...       0.06 
freq.     774.05  E(vib)   ...       0.05 
freq.     784.51  E(vib)   ...       0.05 
freq.     793.98  E(vib)   ...       0.05 
freq.     799.80  E(vib)   ...       0.05 
freq.     817.42  E(vib)   ...       0.05 
freq.     830.54  E(vib)   ...       0.04 
freq.     844.02  E(vib)   ...       0.04 
freq.     847.07  E(vib)   ...       0.04 
freq.     854.76  E(vib)   ...       0.04 
freq.     859.14  E(vib)   ...       0.04 
freq.     862.57  E(vib)   ...       0.04 
freq.     875.93  E(vib)   ...       0.04 
freq.     877.76  E(vib)   ...       0.04 
freq.     887.49  E(vib)   ...       0.04 
freq.     889.30  E(vib)   ...       0.04 
freq.     896.00  E(vib)   ...       0.03 
freq.     900.48  E(vib)   ...       0.03 
freq.     902.80  E(vib)   ...       0.03 
freq.     906.99  E(vib)   ...       0.03 
freq.     915.61  E(vib)   ...       0.03 
freq.     922.03  E(vib)   ...       0.03 
freq.     927.40  E(vib)   ...       0.03 
freq.     932.09  E(vib)   ...       0.03 
freq.     933.82  E(vib)   ...       0.03 
freq.     944.22  E(vib)   ...       0.03 
freq.     945.34  E(vib)   ...       0.03 
freq.     952.15  E(vib)   ...       0.03 
freq.     965.12  E(vib)   ...       0.03 
freq.     971.86  E(vib)   ...       0.03 
freq.     982.39  E(vib)   ...       0.02 
freq.     984.83  E(vib)   ...       0.02 
freq.     986.08  E(vib)   ...       0.02 
freq.     995.13  E(vib)   ...       0.02 
freq.     999.72  E(vib)   ...       0.02 
freq.    1004.73  E(vib)   ...       0.02 
freq.    1009.47  E(vib)   ...       0.02 
freq.    1011.92  E(vib)   ...       0.02 
freq.    1015.18  E(vib)   ...       0.02 
freq.    1025.99  E(vib)   ...       0.02 
freq.    1030.69  E(vib)   ...       0.02 
freq.    1035.96  E(vib)   ...       0.02 
freq.    1036.70  E(vib)   ...       0.02 
freq.    1047.06  E(vib)   ...       0.02 
freq.    1050.60  E(vib)   ...       0.02 
freq.    1052.52  E(vib)   ...       0.02 
freq.    1053.81  E(vib)   ...       0.02 
freq.    1066.94  E(vib)   ...       0.02 
freq.    1072.81  E(vib)   ...       0.02 
freq.    1084.90  E(vib)   ...       0.02 
freq.    1085.28  E(vib)   ...       0.02 
freq.    1094.43  E(vib)   ...       0.02 
freq.    1097.73  E(vib)   ...       0.02 
freq.    1098.94  E(vib)   ...       0.02 
freq.    1099.15  E(vib)   ...       0.02 
freq.    1107.25  E(vib)   ...       0.02 
freq.    1112.37  E(vib)   ...       0.01 
freq.    1120.51  E(vib)   ...       0.01 
freq.    1125.61  E(vib)   ...       0.01 
freq.    1131.46  E(vib)   ...       0.01 
freq.    1133.16  E(vib)   ...       0.01 
freq.    1136.50  E(vib)   ...       0.01 
freq.    1150.10  E(vib)   ...       0.01 
freq.    1160.46  E(vib)   ...       0.01 
freq.    1162.12  E(vib)   ...       0.01 
freq.    1163.99  E(vib)   ...       0.01 
freq.    1173.84  E(vib)   ...       0.01 
freq.    1175.19  E(vib)   ...       0.01 
freq.    1182.92  E(vib)   ...       0.01 
freq.    1186.07  E(vib)   ...       0.01 
freq.    1189.15  E(vib)   ...       0.01 
freq.    1194.55  E(vib)   ...       0.01 
freq.    1206.02  E(vib)   ...       0.01 
freq.    1208.63  E(vib)   ...       0.01 
freq.    1214.55  E(vib)   ...       0.01 
freq.    1222.00  E(vib)   ...       0.01 
freq.    1225.71  E(vib)   ...       0.01 
freq.    1232.07  E(vib)   ...       0.01 
freq.    1235.32  E(vib)   ...       0.01 
freq.    1240.76  E(vib)   ...       0.01 
freq.    1247.62  E(vib)   ...       0.01 
freq.    1249.39  E(vib)   ...       0.01 
freq.    1249.80  E(vib)   ...       0.01 
freq.    1255.14  E(vib)   ...       0.01 
freq.    1256.14  E(vib)   ...       0.01 
freq.    1257.77  E(vib)   ...       0.01 
freq.    1265.74  E(vib)   ...       0.01 
freq.    1274.97  E(vib)   ...       0.01 
freq.    1279.44  E(vib)   ...       0.01 
freq.    1281.18  E(vib)   ...       0.01 
freq.    1285.86  E(vib)   ...       0.01 
freq.    1288.07  E(vib)   ...       0.01 
freq.    1290.25  E(vib)   ...       0.01 
freq.    1291.24  E(vib)   ...       0.01 
freq.    1294.55  E(vib)   ...       0.01 
freq.    1295.12  E(vib)   ...       0.01 
freq.    1299.67  E(vib)   ...       0.01 
freq.    1300.74  E(vib)   ...       0.01 
freq.    1302.31  E(vib)   ...       0.01 
freq.    1304.71  E(vib)   ...       0.01 
freq.    1307.63  E(vib)   ...       0.01 
freq.    1308.78  E(vib)   ...       0.01 
freq.    1312.30  E(vib)   ...       0.01 
freq.    1316.67  E(vib)   ...       0.01 
freq.    1319.30  E(vib)   ...       0.01 
freq.    1322.18  E(vib)   ...       0.01 
freq.    1324.33  E(vib)   ...       0.01 
freq.    1329.09  E(vib)   ...       0.01 
freq.    1333.34  E(vib)   ...       0.01 
freq.    1333.84  E(vib)   ...       0.01 
freq.    1338.51  E(vib)   ...       0.01 
freq.    1340.75  E(vib)   ...       0.01 
freq.    1348.04  E(vib)   ...       0.01 
freq.    1348.56  E(vib)   ...       0.01 
freq.    1351.61  E(vib)   ...       0.01 
freq.    1351.79  E(vib)   ...       0.01 
freq.    1353.72  E(vib)   ...       0.01 
freq.    1357.86  E(vib)   ...       0.01 
freq.    1360.79  E(vib)   ...       0.01 
freq.    1364.31  E(vib)   ...       0.01 
freq.    1373.38  E(vib)   ...       0.01 
freq.    1374.95  E(vib)   ...       0.01 
freq.    1375.87  E(vib)   ...       0.01 
freq.    1380.78  E(vib)   ...       0.01 
freq.    1395.56  E(vib)   ...       0.00 
freq.    1410.05  E(vib)   ...       0.00 
freq.    1425.46  E(vib)   ...       0.00 
freq.    1428.12  E(vib)   ...       0.00 
freq.    1429.54  E(vib)   ...       0.00 
freq.    1431.05  E(vib)   ...       0.00 
freq.    1431.66  E(vib)   ...       0.00 
freq.    1434.66  E(vib)   ...       0.00 
freq.    1435.13  E(vib)   ...       0.00 
freq.    1435.82  E(vib)   ...       0.00 
freq.    1436.88  E(vib)   ...       0.00 
freq.    1440.75  E(vib)   ...       0.00 
freq.    1441.43  E(vib)   ...       0.00 
freq.    1441.50  E(vib)   ...       0.00 
freq.    1441.86  E(vib)   ...       0.00 
freq.    1443.22  E(vib)   ...       0.00 
freq.    1443.90  E(vib)   ...       0.00 
freq.    1449.29  E(vib)   ...       0.00 
freq.    1450.71  E(vib)   ...       0.00 
freq.    1451.01  E(vib)   ...       0.00 
freq.    1451.18  E(vib)   ...       0.00 
freq.    1452.29  E(vib)   ...       0.00 
freq.    1454.60  E(vib)   ...       0.00 
freq.    1455.56  E(vib)   ...       0.00 
freq.    1457.85  E(vib)   ...       0.00 
freq.    1458.99  E(vib)   ...       0.00 
freq.    1459.54  E(vib)   ...       0.00 
freq.    1464.59  E(vib)   ...       0.00 
freq.    1465.83  E(vib)   ...       0.00 
freq.    1473.45  E(vib)   ...       0.00 
freq.    1485.99  E(vib)   ...       0.00 
freq.    1492.09  E(vib)   ...       0.00 
freq.    1499.28  E(vib)   ...       0.00 
freq.    1517.66  E(vib)   ...       0.00 
freq.    1636.32  E(vib)   ...       0.00 
freq.    1652.23  E(vib)   ...       0.00 
freq.    1660.82  E(vib)   ...       0.00 
freq.    1675.41  E(vib)   ...       0.00 
freq.    1679.53  E(vib)   ...       0.00 
freq.    1696.46  E(vib)   ...       0.00 
freq.    1707.04  E(vib)   ...       0.00 
freq.    2914.86  E(vib)   ...       0.00 
freq.    2922.61  E(vib)   ...       0.00 
freq.    2923.99  E(vib)   ...       0.00 
freq.    2927.31  E(vib)   ...       0.00 
freq.    2928.59  E(vib)   ...       0.00 
freq.    2928.93  E(vib)   ...       0.00 
freq.    2931.17  E(vib)   ...       0.00 
freq.    2938.78  E(vib)   ...       0.00 
freq.    2941.77  E(vib)   ...       0.00 
freq.    2943.21  E(vib)   ...       0.00 
freq.    2944.30  E(vib)   ...       0.00 
freq.    2944.56  E(vib)   ...       0.00 
freq.    2947.26  E(vib)   ...       0.00 
freq.    2947.96  E(vib)   ...       0.00 
freq.    2951.41  E(vib)   ...       0.00 
freq.    2951.73  E(vib)   ...       0.00 
freq.    2951.93  E(vib)   ...       0.00 
freq.    2957.32  E(vib)   ...       0.00 
freq.    2958.39  E(vib)   ...       0.00 
freq.    2961.02  E(vib)   ...       0.00 
freq.    2967.08  E(vib)   ...       0.00 
freq.    2970.49  E(vib)   ...       0.00 
freq.    2972.11  E(vib)   ...       0.00 
freq.    2972.35  E(vib)   ...       0.00 
freq.    2973.48  E(vib)   ...       0.00 
freq.    2978.02  E(vib)   ...       0.00 
freq.    2978.15  E(vib)   ...       0.00 
freq.    2982.25  E(vib)   ...       0.00 
freq.    2983.00  E(vib)   ...       0.00 
freq.    2983.04  E(vib)   ...       0.00 
freq.    2987.28  E(vib)   ...       0.00 
freq.    2990.08  E(vib)   ...       0.00 
freq.    2990.46  E(vib)   ...       0.00 
freq.    2991.84  E(vib)   ...       0.00 
freq.    2992.05  E(vib)   ...       0.00 
freq.    2992.13  E(vib)   ...       0.00 
freq.    3010.07  E(vib)   ...       0.00 
freq.    3016.35  E(vib)   ...       0.00 
freq.    3021.08  E(vib)   ...       0.00 
freq.    3023.71  E(vib)   ...       0.00 
freq.    3027.01  E(vib)   ...       0.00 
freq.    3027.26  E(vib)   ...       0.00 
freq.    3027.92  E(vib)   ...       0.00 
freq.    3030.11  E(vib)   ...       0.00 
freq.    3030.15  E(vib)   ...       0.00 
freq.    3033.12  E(vib)   ...       0.00 
freq.    3034.47  E(vib)   ...       0.00 
freq.    3040.78  E(vib)   ...       0.00 
freq.    3045.44  E(vib)   ...       0.00 
freq.    3046.59  E(vib)   ...       0.00 
freq.    3047.48  E(vib)   ...       0.00 
freq.    3049.40  E(vib)   ...       0.00 
freq.    3050.71  E(vib)   ...       0.00 
freq.    3051.98  E(vib)   ...       0.00 
freq.    3052.93  E(vib)   ...       0.00 
freq.    3054.41  E(vib)   ...       0.00 
freq.    3058.69  E(vib)   ...       0.00 
freq.    3064.42  E(vib)   ...       0.00 
freq.    3395.01  E(vib)   ...       0.00 
freq.    3430.12  E(vib)   ...       0.00 
freq.    3432.82  E(vib)   ...       0.00 
freq.    3460.43  E(vib)   ...       0.00 
freq.    3498.02  E(vib)   ...       0.00 
freq.    3501.39  E(vib)   ...       0.00 

------------
INNER ENERGY
------------

The inner energy is: U= E(el) + E(ZPE) + E(vib) + E(rot) + E(trans)
    E(el)   - is the total energy from the electronic structure calculation
              = E(kin-el) + E(nuc-el) + E(el-el) + E(nuc-nuc)
    E(ZPE)  - the the zero temperature vibrational energy from the frequency calculation
    E(vib)  - the the finite temperature correction to E(ZPE) due to population
              of excited vibrational states
    E(rot)  - is the rotational thermal energy
    E(trans)- is the translational thermal energy

Summary of contributions to the inner energy U:
Electronic energy                ...  -2380.08480151 Eh
Zero point energy                ...      0.97736624 Eh     613.31 kcal/mol
Thermal vibrational correction   ...      0.05571253 Eh      34.96 kcal/mol
Thermal rotational correction    ...      0.00141627 Eh       0.89 kcal/mol
Thermal translational correction ...      0.00141627 Eh       0.89 kcal/mol
-----------------------------------------------------------------------
Total thermal energy                  -2379.04889020 Eh


Summary of corrections to the electronic energy:
(perhaps to be used in another calculation)
Total thermal correction                  0.05854507 Eh      36.74 kcal/mol
Non-thermal (ZPE) correction              0.97736624 Eh     613.31 kcal/mol
-----------------------------------------------------------------------
Total correction                          1.03591131 Eh     650.04 kcal/mol


--------
ENTHALPY
--------

The enthalpy is H = U + kB*T
                kB is Boltzmann's constant
Total free energy                 ...  -2379.04889020 Eh 
Thermal Enthalpy correction       ...      0.00094421 Eh       0.59 kcal/mol
-----------------------------------------------------------------------
Total Enthalpy                    ...  -2379.04794599 Eh


Note: Only C1 symmetry has been detected, increase convergence thresholds 
      if your molecule has a higher symmetry. Symmetry factor of 1.0 is   
      used for the rotational entropy correction. 
 

Note: Rotational entropy computed according to Herzberg 
Infrared and Raman Spectra, Chapter V,1, Van Nostrand Reinhold, 1945 
Point Group:  C1, Symmetry Number:   1  
Rotational constants in cm-1:     0.002414     0.001572     0.001363 

Vibrational entropy computed according to the QRRHO of S. Grimme
Chem.Eur.J. 2012 18 9955


-------
ENTROPY
-------

The entropy contributions are T*S = T*(S(el)+S(vib)+S(rot)+S(trans))
     S(el)   - electronic entropy
     S(vib)  - vibrational entropy
     S(rot)  - rotational entropy
     S(trans)- translational entropy
The entropies will be listed as mutliplied by the temperature to get
units of energy

Electronic entropy                ...      0.00000000 Eh      0.00 kcal/mol
Vibrational entropy               ...      0.10244682 Eh     64.29 kcal/mol
Rotational entropy                ...      0.01851834 Eh     11.62 kcal/mol
Translational entropy             ...      0.02166895 Eh     13.60 kcal/mol
-----------------------------------------------------------------------
Final entropy term                ...      0.14263411 Eh     89.50 kcal/mol

In case the symmetry of your molecule has not been determined correctly
or in case you have a reason to use a different symmetry number we print 
out the resulting rotational entropy values for sn=1,12 :
 --------------------------------------------------------
|  sn= 1 | S(rot)=       0.01851834 Eh     11.62 kcal/mol|
|  sn= 2 | S(rot)=       0.01786388 Eh     11.21 kcal/mol|
|  sn= 3 | S(rot)=       0.01748105 Eh     10.97 kcal/mol|
|  sn= 4 | S(rot)=       0.01720943 Eh     10.80 kcal/mol|
|  sn= 5 | S(rot)=       0.01699874 Eh     10.67 kcal/mol|
|  sn= 6 | S(rot)=       0.01682660 Eh     10.56 kcal/mol|
|  sn= 7 | S(rot)=       0.01668105 Eh     10.47 kcal/mol|
|  sn= 8 | S(rot)=       0.01655497 Eh     10.39 kcal/mol|
|  sn= 9 | S(rot)=       0.01644376 Eh     10.32 kcal/mol|
|  sn=10 | S(rot)=       0.01634428 Eh     10.26 kcal/mol|
|  sn=11 | S(rot)=       0.01625429 Eh     10.20 kcal/mol|
|  sn=12 | S(rot)=       0.01617214 Eh     10.15 kcal/mol|
 --------------------------------------------------------


-------------------
GIBBS FREE ENERGY
-------------------

The Gibbs free energy is G = H - T*S

Total enthalpy                    ...  -2379.04794599 Eh 
Total entropy correction          ...     -0.14263411 Eh    -89.50 kcal/mol
-----------------------------------------------------------------------
Final Gibbs free energy         ...  -2379.19058010 Eh

For completeness - the Gibbs free energy minus the electronic energy
G-E(el)                           ...      0.89422141 Eh    561.13 kcal/mol

--------------------------------------------------------------------------
WARNING: No preset parameters were found for the device that Open MPI
detected:

  Local host:            eu-g1-003-2
  Device name:           mlx5_0
  Device vendor ID:      0x02c9
  Device vendor part ID: 4123

Default device parameters will be used, which may result in lower
performance.  You can edit any of the files specified by the
btl_openib_device_param_files MCA parameter to set values for your
device.

NOTE: You can turn off this warning by setting the MCA parameter
      btl_openib_warn_no_device_params_found to 0.
--------------------------------------------------------------------------
--------------------------------------------------------------------------
WARNING: There was an error initializing an OpenFabrics device.

  Local host:   eu-g1-003-2
  Local device: mlx5_0
--------------------------------------------------------------------------

Timings for individual modules:

Sum of individual times         ...    32753.920 sec (= 545.899 min)
GTO integral calculation        ...       13.225 sec (=   0.220 min)   0.0 %
SCF iterations                  ...      376.462 sec (=   6.274 min)   1.1 %
SCF Gradient evaluation         ...       77.118 sec (=   1.285 min)   0.2 %
Geometry relaxation             ...        3.855 sec (=   0.064 min)   0.0 %
Analytical frequency calculation...    32283.259 sec (= 538.054 min)  98.6 %
                             ****ORCA TERMINATED NORMALLY****
TOTAL RUN TIME: 0 days 9 hours 6 minutes 11 seconds 72 msec
