
                                 *****************
                                 * O   R   C   A *
                                 *****************

           --- An Ab Initio, DFT and Semiempirical electronic structure package ---

                  #######################################################
                  #                        -***-                        #
                  #          Department of theory and spectroscopy      #
                  #               Directorship: Frank Neese             #
                  #        Max Planck Institute fuer Kohlenforschung    #
                  #                Kaiser Wilhelm Platz 1               #
                  #                 D-45470 Muelheim/Ruhr               #
                  #                      Germany                        #
                  #                                                     #
                  #                  All rights reserved                #
                  #                        -***-                        #
                  #######################################################


                         Program Version 4.2.0 -  RELEASE  -


 With contributions from (in alphabetic order):
   Daniel Aravena         : Magnetic Suceptibility
   Michael Atanasov       : Ab Initio Ligand Field Theory (pilot matlab implementation)
   Alexander A. Auer      : GIAO ZORA, VPT2
   Ute Becker             : Parallelization
   Giovanni Bistoni       : ED, misc. LED, open-shell LED, HFLED
   Martin Brehm           : Molecular dynamics
   Dmytro Bykov           : SCF Hessian
   Vijay G. Chilkuri      : MRCI spin determinant printing, contributions to CSF-ICE
   Dipayan Datta          : RHF DLPNO-CCSD density
   Achintya Kumar Dutta   : EOM-CC, STEOM-CC
   Dmitry Ganyushin       : Spin-Orbit,Spin-Spin,Magnetic field MRCI
   Miquel Garcia          : C-PCM Hessian, Gaussian charge scheme
   Yang Guo               : DLPNO-NEVPT2, CIM, IAO-localization
   Andreas Hansen         : Spin unrestricted coupled pair/coupled cluster methods
   Benjamin Helmich-Paris : CASSCF linear response (MC-RPA)
   Lee Huntington         : MR-EOM, pCC
   Robert Izsak           : Overlap fitted RIJCOSX, COSX-SCS-MP3, EOM
   Christian Kollmar      : KDIIS, OOCD, Brueckner-CCSD(T), CCSD density
   Simone Kossmann        : Meta GGA functionals, TD-DFT gradient, OOMP2, MP2 Hessian
   Martin Krupicka        : AUTO-CI
   Lucas Lang             : DCDCAS
   Dagmar Lenk            : GEPOL surface, SMD
   Dimitrios Liakos       : Extrapolation schemes; Compound Job, initial MDCI parallelization
   Dimitrios Manganas     : Further ROCIS development; embedding schemes
   Dimitrios Pantazis     : SARC Basis sets
   Taras Petrenko         : DFT Hessian,TD-DFT gradient, ASA, ECA, R-Raman, ABS, FL, XAS/XES, NRVS
   Peter Pinski           : DLPNO-MP2, DLPNO-MP2 Gradient
   Christoph Reimann      : Effective Core Potentials
   Marius Retegan         : Local ZFS, SOC
   Christoph Riplinger    : Optimizer, TS searches, QM/MM, DLPNO-CCSD(T), (RO)-DLPNO pert. Triples
   Tobias Risthaus        : Range-separated hybrids, TD-DFT gradient, RPA, STAB
   Michael Roemelt        : Original ROCIS implementation
   Masaaki Saitow         : Open-shell DLPNO-CCSD energy and density
   Barbara Sandhoefer     : DKH picture change effects
   Avijit Sen             : IP-ROCIS
   Kantharuban Sivalingam : CASSCF convergence, NEVPT2, FIC-MRCI
   Bernardo de Souza      : ESD, SOC TD-DFT
   Georgi Stoychev        : AutoAux, RI-MP2 NMR
   Willem Van den Heuvel  : Paramagnetic NMR
   Boris Wezisla          : Elementary symmetry handling
   Frank Wennmohs         : Technical directorship


 We gratefully acknowledge several colleagues who have allowed us to
 interface, adapt or use parts of their codes:
   Stefan Grimme, W. Hujo, H. Kruse,             : VdW corrections, initial TS optimization,
                  C. Bannwarth                     DFT functionals, gCP, sTDA/sTD-DF
   Ed Valeev, F. Pavosevic, A. Kumar             : LibInt (2-el integral package), F12 methods
   Garnet Chan, S. Sharma, J. Yang, R. Olivares  : DMRG
   Ulf Ekstrom                                   : XCFun DFT Library
   Mihaly Kallay                                 : mrcc  (arbitrary order and MRCC methods)
   Andreas Klamt, Michael Diedenhofen            : otool_cosmo (COSMO solvation model)
   Jiri Pittner, Ondrej Demel                    : Mk-CCSD
   Frank Weinhold                                : gennbo (NPA and NBO analysis)
   Christopher J. Cramer and Donald G. Truhlar   : smd solvation model
   Lars Goerigk                                  : TD-DFT with DH, B97 family of functionals
   V. Asgeirsson, H. Jonsson                     : NEB implementation
   FAccTs GmbH                                   : IRC, NEB, NEB-TS, Multilevel, MM, QM/MM, CI optimization
   S Lehtola, MJT Oliveira, MAL Marques          : LibXC Library


 Your calculation uses the libint2 library for the computation of 2-el integrals
 For citations please refer to: http://libint.valeyev.net

 Your ORCA version has been built with support for libXC version: 4.2.3
 For citations please refer to: https://tddft.org/programs/libxc/

 This ORCA versions uses:
   CBLAS   interface :  Fast vector & matrix operations
   LAPACKE interface :  Fast linear algebra routines
   SCALAPACK package :  Parallel linear algebra routines




***************************************
The coordinates will be read from file: 46.xyz
***************************************


Your calculation utilizes the atom-pairwise dispersion correction
with the Becke-Johnson damping scheme (D3BJ)
Cite in your paper:
S.Grimme, S.Ehrlich, L.Goerigk, J Comput Chem, (2011), 32, 1456–1465 
S.Grimme, J.Antony, S.Ehrlich and H.Krieg, J.Chem.Phys., 132, (2010), 154104 
   

----- Orbital basis set information -----
Your calculation utilizes the basis: def2-TZVP
   F. Weigend and R. Ahlrichs, Phys. Chem. Chem. Phys. 7, 3297 (2005).

----- AuxJ basis set information -----
Your calculation utilizes the auxiliary basis: def2/J
   F. Weigend, Phys. Chem. Chem. Phys. 8, 1057 (2006).

================================================================================
                                        WARNINGS
                       Please study these warnings very carefully!
================================================================================


WARNING: Geometry Optimization
  ===> : Switching off AutoStart
         For restart on a previous wavefunction, please use MOREAD

INFO   : the flag for use of LIBINT has been found!

================================================================================
                                       INPUT FILE
================================================================================
NAME = 46.inp
|  1> !RI BP86 def2-tzvp def2/J D3BJ TIGHTSCF TightOpt Grid5 FinalGrid6 freq
|  2> %maxcore 4000
|  3> %pal nprocs 24
|  4> end
|  5> * xyzfile 0 1 46.xyz 
|  6> 
|  7>                          ****END OF INPUT****
================================================================================

                       *****************************
                       * Geometry Optimization Run *
                       *****************************

Geometry optimization settings:
Update method            Update   .... BFGS
Choice of coordinates    CoordSys .... Z-matrix Internals
Initial Hessian          InHess   .... Almoef's Model

Convergence Tolerances:
Energy Change            TolE     ....  1.0000e-06 Eh
Max. Gradient            TolMAXG  ....  1.0000e-04 Eh/bohr
RMS Gradient             TolRMSG  ....  3.0000e-05 Eh/bohr
Max. Displacement        TolMAXD  ....  1.0000e-03 bohr
RMS Displacement         TolRMSD  ....  6.0000e-04 bohr
Strict Convergence                ....  False
------------------------------------------------------------------------------
                        ORCA OPTIMIZATION COORDINATE SETUP
------------------------------------------------------------------------------

The optimization will be done in new redundant internal coordinates
Making redundant internal coordinates   ...  (new redundants) done
Evaluating the initial hessian          ...  (Almloef) done
Evaluating the coordinates              ...  done
Calculating the B-matrix                .... done
Calculating the G-matrix                .... done
Diagonalizing the G-matrix              .... done
Small eigenvalue found = 2.672e-04
Small eigenvalue found = 6.765e-04
Small eigenvalue found = 2.694e-03
Small eigenvalue found = 3.362e-03
Small eigenvalue found = 3.917e-03
Small eigenvalue found = 6.442e-03
Small eigenvalue found = 6.865e-03
Small eigenvalue found = 8.357e-03
Small eigenvalue found = 1.080e-02
Small eigenvalue found = 1.187e-02
Small eigenvalue found = 1.200e-02
Small eigenvalue found = 1.396e-02
Small eigenvalue found = 1.542e-02
Small eigenvalue found = 1.735e-02
Small eigenvalue found = 1.843e-02
Small eigenvalue found = 2.021e-02
Small eigenvalue found = 2.396e-02
Small eigenvalue found = 2.572e-02
Small eigenvalue found = 2.594e-02
Small eigenvalue found = 2.894e-02
The first mode is                       ....  326
The number of degrees of freedom        ....  339

    -----------------------------------------------------------------
                    Redundant Internal Coordinates


    -----------------------------------------------------------------
         Definition                    Initial Value    Approx d2E/dq
    -----------------------------------------------------------------
      1. B(C   1,O   0)                  1.2294         1.009370   
      2. B(C   2,C   1)                  1.5440         0.354857   
      3. B(C   3,C   2)                  1.5337         0.368473   
      4. B(C   4,C   3)                  1.5355         0.366117   
      5. B(C   5,C   4)                  1.5374         0.363511   
      6. B(N   6,C   5)                  1.4784         0.404460   
      7. B(N   6,C   2)                  1.4686         0.419210   
      8. B(C   7,N   6)                  1.3548         0.636921   
      9. B(O   8,C   7)                  1.2391         0.974041   
     10. B(N   9,C   1)                  1.3594         0.626149   
     11. B(C  10,N   9)                  1.4568         0.437864   
     12. B(C  11,C  10)                  1.5405         0.359491   
     13. B(N  12,C  11)                  1.3731         0.595504   
     14. B(C  13,N  12)                  1.4564         0.438440   
     15. B(C  14,C  13)                  1.5278         0.376639   
     16. B(N  15,C  14)                  1.3690         0.604428   
     17. B(C  16,N  15)                  1.4578         0.436193   
     18. B(C  17,C  16)                  1.5527         0.343696   
     19. B(C  18,C  17)                  1.5467         0.351379   
     20. B(C  19,C  18)                  1.5276         0.376929   
     21. B(N  20,C  19)                  1.3614         0.621510   
     22. B(C  21,N  20)                  1.4652         0.424489   
     23. B(C  22,C  21)                  1.5412         0.358490   
     24. B(N  23,C  22)                  1.3464         0.656831   
     25. B(C  24,N  23)                  1.4566         0.438200   
     26. B(C  24,C   7)                  1.5401         0.359920   
     27. B(C  25,C  24)                  1.5309         0.372374   
     28. B(O  26,C  22)                  1.2443         0.955562   
     29. B(C  27,C  21)                  1.5235         0.382580   
     30. B(C  28,C  27)                  1.5373         0.363741   
     31. B(C  29,C  28)                  1.5327         0.369842   
     32. B(C  30,C  28)                  1.5322         0.370521   
     33. B(O  31,C  19)                  1.2392         0.973691   
     34. B(C  32,C  18)                  1.5403         0.359667   
     35. B(C  33,C  32)                  1.5100         0.402034   
     36. B(C  34,C  33)                  1.5259         0.379310   
     37. B(C  35,C  34)                  1.5318         0.371137   
     38. B(C  36,C  35)                  1.5293         0.374600   
     39. B(C  37,C  36)                  1.5302         0.373258   
     40. B(C  38,C  37)                  1.5303         0.373231   
     41. B(C  39,C  38)                  1.5302         0.373311   
     42. B(C  40,C  39)                  1.5310         0.372208   
     43. B(C  41,C  40)                  1.5299         0.373720   
     44. B(O  42,C  32)                  1.2212         1.040380   
     45. B(O  43,C  17)                  1.4299         0.483285   
     46. B(O  44,C  14)                  1.2356         0.986594   
     47. B(C  45,C  13)                  1.5516         0.345086   
     48. B(C  46,C  45)                  1.5274         0.377188   
     49. B(O  47,C  11)                  1.2274         1.016786   
     50. B(C  48,C  10)                  1.5465         0.351631   
     51. B(C  49,C  48)                  1.5311         0.372066   
     52. B(C  50,C  48)                  1.5321         0.370694   
     53. B(H  51,C   2)                  1.0977         0.350110   
     54. B(H  52,C   3)                  1.1000         0.347152   
     55. B(H  53,C   3)                  1.0954         0.353004   
     56. B(H  54,C   4)                  1.0995         0.347738   
     57. B(H  55,C   4)                  1.0969         0.351070   
     58. B(H  56,C   5)                  1.0993         0.348018   
     59. B(H  57,C   5)                  1.1015         0.345196   
     60. B(H  58,N   9)                  1.0227         0.413011   
     61. B(H  59,C  10)                  1.0993         0.348049   
     62. B(H  60,N  12)                  1.0219         0.414189   
     63. B(H  61,C  13)                  1.1010         0.345798   
     64. B(H  62,O   8)                  1.9773         0.012384   
     65. B(H  62,N  15)                  1.0246         0.410174   
     66. B(H  63,C  16)                  1.1005         0.346526   
     67. B(H  64,C  16)                  1.0955         0.352929   
     68. B(H  65,C  17)                  1.1041         0.341936   
     69. B(H  66,C  18)                  1.1026         0.343775   
     70. B(H  67,N  20)                  1.0241         0.410885   
     71. B(H  68,C  21)                  1.0991         0.348300   
     72. B(H  69,N  23)                  1.0281         0.404798   
     73. B(H  70,C  24)                  1.0995         0.347751   
     74. B(H  71,C  25)                  1.0989         0.348563   
     75. B(H  72,C  25)                  1.0981         0.349526   
     76. B(H  73,C  25)                  1.0983         0.349315   
     77. B(H  74,C  27)                  1.1006         0.346295   
     78. B(H  75,C  27)                  1.1025         0.343988   
     79. B(H  76,C  28)                  1.1023         0.344174   
     80. B(H  77,C  29)                  1.0996         0.347583   
     81. B(H  78,C  29)                  1.1016         0.345017   
     82. B(H  79,C  29)                  1.0994         0.347871   
     83. B(H  80,H  58)                  4.8846         0.000000   
     84. B(H  80,C  30)                  1.0996         0.347635   
     85. B(H  81,C  30)                  1.0993         0.347945   
     86. B(H  82,C  30)                  1.1016         0.345030   
     87. B(H  83,C  33)                  1.1069         0.338424   
     88. B(H  84,C  33)                  1.1030         0.343263   
     89. B(H  85,H  73)                  4.2185         0.000001   
     90. B(H  85,C  34)                  1.1013         0.345409   
     91. B(H  86,C  34)                  1.1019         0.344731   
     92. B(H  87,C  35)                  1.1040         0.342054   
     93. B(H  88,C  35)                  1.1018         0.344788   
     94. B(H  89,C  36)                  1.1042         0.341791   
     95. B(H  90,C  36)                  1.1047         0.341209   
     96. B(H  91,C  37)                  1.1044         0.341594   
     97. B(H  92,C  37)                  1.1042         0.341766   
     98. B(H  93,C  38)                  1.1045         0.341469   
     99. B(H  94,C  38)                  1.1045         0.341437   
    100. B(H  95,C  39)                  1.1046         0.341350   
    101. B(H  96,C  39)                  1.1045         0.341378   
    102. B(H  97,C  40)                  1.1035         0.342703   
    103. B(H  98,C  40)                  1.1035         0.342723   
    104. B(H  99,C  41)                  1.0995         0.347750   
    105. B(H 100,C  41)                  1.1007         0.346169   
    106. B(H 101,C  41)                  1.1007         0.346167   
    107. B(H 102,O  43)                  0.9756         0.491083   
    108. B(H 103,H  74)                  2.2215         0.001080   
    109. B(H 103,C  45)                  1.1025         0.343932   
    110. B(H 104,C  45)                  1.1005         0.346508   
    111. B(H 105,C  46)                  1.0995         0.347710   
    112. B(H 106,C  46)                  1.0963         0.351828   
    113. B(H 107,C  46)                  1.0998         0.347370   
    114. B(H 108,O  26)                  2.4603         0.002100   
    115. B(H 108,C  48)                  1.1037         0.342479   
    116. B(H 109,C  49)                  1.0984         0.349187   
    117. B(H 110,C  49)                  1.1001         0.346933   
    118. B(H 111,C  49)                  1.0992         0.348168   
    119. B(H 112,C  50)                  1.0984         0.349161   
    120. B(H 113,C  50)                  1.0993         0.347957   
    121. B(H 114,C  50)                  1.1010         0.345815   
    122. A(O   0,C   1,N   9)          124.2671         0.468841   
    123. A(C   2,C   1,N   9)          116.4596         0.391297   
    124. A(O   0,C   1,C   2)          119.2582         0.425798   
    125. A(C   1,C   2,H  51)          106.3877         0.320120   
    126. A(N   6,C   2,H  51)          109.4819         0.327030   
    127. A(C   1,C   2,N   6)          114.3194         0.365055   
    128. A(C   1,C   2,C   3)          110.4776         0.359335   
    129. A(C   3,C   2,H  51)          113.5332         0.322098   
    130. A(C   3,C   2,N   6)          102.8293         0.367417   
    131. A(C   4,C   3,H  53)          113.9008         0.322194   
    132. A(C   4,C   3,H  52)          110.8892         0.321314   
    133. A(C   2,C   3,C   4)          102.3403         0.361253   
    134. A(C   2,C   3,H  53)          111.0325         0.322533   
    135. A(C   2,C   3,H  52)          109.7720         0.321651   
    136. A(H  52,C   3,H  53)          108.7612         0.288274   
    137. A(H  54,C   4,H  55)          107.9090         0.288102   
    138. A(C   3,C   4,H  55)          113.5360         0.321905   
    139. A(C   3,C   4,C   5)          103.8047         0.360419   
    140. A(C   3,C   4,H  54)          109.7623         0.321402   
    141. A(C   5,C   4,H  55)          111.9087         0.321528   
    142. A(C   5,C   4,H  54)          109.8715         0.321027   
    143. A(H  56,C   5,H  57)          108.3934         0.287379   
    144. A(C   4,C   5,N   6)          103.6656         0.364323   
    145. A(C   4,C   5,H  56)          112.2517         0.321069   
    146. A(N   6,C   5,H  57)          110.1797         0.324354   
    147. A(N   6,C   5,H  56)          110.9693         0.324788   
    148. A(C   4,C   5,H  57)          111.3489         0.320642   
    149. A(C   5,N   6,C   7)          127.1929         0.399015   
    150. A(C   2,N   6,C   7)          120.9796         0.401539   
    151. A(C   2,N   6,C   5)          111.7699         0.371012   
    152. A(O   8,C   7,C  24)          121.1446         0.424166   
    153. A(N   6,C   7,O   8)          122.2079         0.467248   
    154. A(N   6,C   7,C  24)          116.6087         0.393441   
    155. A(C   1,N   9,C  10)          120.9115         0.403417   
    156. A(C  10,N   9,H  58)          117.6599         0.335639   
    157. A(C   1,N   9,H  58)          119.5821         0.356437   
    158. A(C  48,C  10,H  59)          110.1114         0.319335   
    159. A(C  11,C  10,H  59)          104.6853         0.320491   
    160. A(N   9,C  10,C  11)          112.0600         0.368608   
    161. A(N   9,C  10,C  48)          110.4074         0.367213   
    162. A(N   9,C  10,H  59)          107.6615         0.329066   
    163. A(C  11,C  10,C  48)          111.6854         0.357275   
    164. A(N  12,C  11,O  47)          122.9750         0.465174   
    165. A(C  10,C  11,O  47)          121.8578         0.427349   
    166. A(C  10,C  11,N  12)          115.1625         0.388762   
    167. A(C  13,N  12,H  60)          120.5484         0.335872   
    168. A(C  11,N  12,C  13)          119.5467         0.399959   
    169. A(C  11,N  12,H  60)          117.6443         0.353587   
    170. A(C  14,C  13,C  45)          110.8034         0.358968   
    171. A(N  12,C  13,H  61)          105.3012         0.328785   
    172. A(C  14,C  13,H  61)          107.2818         0.322602   
    173. A(N  12,C  13,C  14)          113.3828         0.371657   
    174. A(C  45,C  13,H  61)          107.5848         0.318021   
    175. A(N  12,C  13,C  45)          112.0525         0.366115   
    176. A(C  13,C  14,N  15)          117.3206         0.392962   
    177. A(N  15,C  14,O  44)          121.2681         0.463876   
    178. A(C  13,C  14,O  44)          121.2399         0.428611   
    179. A(C  14,N  15,H  62)          121.4275         0.353894   
    180. A(C  16,N  15,H  62)          115.4711         0.335042   
    181. A(C  14,N  15,C  16)          118.9749         0.400645   
    182. A(H  63,C  16,H  64)          108.6886         0.288183   
    183. A(C  17,C  16,H  64)          111.7388         0.318872   
    184. A(N  15,C  16,H  63)          109.8594         0.328620   
    185. A(C  17,C  16,H  63)          107.3731         0.317921   
    186. A(N  15,C  16,C  17)          111.9728         0.365540   
    187. A(N  15,C  16,H  64)          107.1728         0.329616   
    188. A(O  43,C  17,H  65)          108.6526         0.333507   
    189. A(C  18,C  17,H  65)          107.6993         0.318376   
    190. A(C  16,C  17,H  65)          108.1270         0.317231   
    191. A(C  16,C  17,C  18)          114.8810         0.354517   
    192. A(C  18,C  17,O  43)          106.0984         0.373452   
    193. A(C  16,C  17,O  43)          111.1899         0.372032   
    194. A(C  19,C  18,H  66)          105.9696         0.322332   
    195. A(C  17,C  18,H  66)          106.2264         0.318655   
    196. A(C  17,C  18,C  32)          110.5001         0.357261   
    197. A(C  17,C  18,C  19)          116.0767         0.360122   
    198. A(C  19,C  18,C  32)          109.2861         0.361557   
    199. A(C  32,C  18,H  66)          108.4070         0.319870   
    200. A(C  18,C  19,N  20)          117.4233         0.394938   
    201. A(N  20,C  19,O  31)          122.2454         0.465126   
    202. A(C  18,C  19,O  31)          120.2900         0.427660   
    203. A(C  19,N  20,H  67)          117.8687         0.355675   
    204. A(C  19,N  20,C  21)          121.2234         0.400693   
    205. A(C  21,N  20,H  67)          115.7172         0.333628   
    206. A(C  27,C  21,H  68)          111.3650         0.323813   
    207. A(C  22,C  21,H  68)          108.7247         0.320382   
    208. A(N  20,C  21,H  68)          106.1480         0.327425   
    209. A(N  20,C  21,C  22)          107.0301         0.366477   
    210. A(C  22,C  21,C  27)          112.3933         0.362273   
    211. A(N  20,C  21,C  27)          110.8905         0.370591   
    212. A(C  21,C  22,N  23)          114.0055         0.395293   
    213. A(C  21,C  22,O  26)          122.3727         0.422416   
    214. A(N  23,C  22,O  26)          123.5030         0.468244   
    215. A(C  22,N  23,C  24)          122.2163         0.406895   
    216. A(C  24,N  23,H  69)          118.8134         0.334563   
    217. A(C  22,N  23,H  69)          116.5152         0.358122   
    218. A(C  25,C  24,H  70)          110.1149         0.322298   
    219. A(N  23,C  24,H  70)          108.5197         0.329061   
    220. A(C   7,C  24,H  70)          109.5612         0.320508   
    221. A(N  23,C  24,C  25)          109.3811         0.370894   
    222. A(C   7,C  24,N  23)          109.9634         0.368732   
    223. A(C   7,C  24,C  25)          109.2880         0.360851   
    224. A(H  71,C  25,H  73)          109.0735         0.287983   
    225. A(C  24,C  25,H  73)          109.8719         0.322535   
    226. A(H  71,C  25,H  72)          108.1989         0.288010   
    227. A(C  24,C  25,H  72)          110.3168         0.322567   
    228. A(C  24,C  25,H  71)          110.3692         0.322421   
    229. A(H  72,C  25,H  73)          108.9703         0.288107   
    230. A(C  28,C  27,H  75)          109.5267         0.320491   
    231. A(C  21,C  27,C  28)          114.8988         0.363174   
    232. A(H  74,C  27,H  75)          106.8950         0.286999   
    233. A(C  21,C  27,H  75)          107.9810         0.323152   
    234. A(C  28,C  27,H  74)          108.5117         0.320842   
    235. A(C  21,C  27,H  74)          108.7368         0.323507   
    236. A(C  29,C  28,C  30)          111.0428         0.362221   
    237. A(C  27,C  28,C  30)          109.4321         0.361194   
    238. A(C  27,C  28,C  29)          112.1076         0.361081   
    239. A(C  30,C  28,H  76)          107.8149         0.321490   
    240. A(C  29,C  28,H  76)          108.6327         0.321393   
    241. A(C  27,C  28,H  76)          107.6556         0.320520   
    242. A(C  28,C  29,H  79)          110.7676         0.321956   
    243. A(H  78,C  29,H  79)          107.6702         0.287337   
    244. A(H  77,C  29,H  79)          107.2827         0.287670   
    245. A(H  77,C  29,H  78)          107.7454         0.287300   
    246. A(C  28,C  29,H  78)          110.7744         0.321522   
    247. A(C  28,C  29,H  77)          112.3989         0.321912   
    248. A(H  81,C  30,H  82)          107.7063         0.287348   
    249. A(H  80,C  30,H  82)          107.7769         0.287308   
    250. A(C  28,C  30,H  82)          110.8847         0.321620   
    251. A(H  80,C  30,H  81)          107.9547         0.287686   
    252. A(C  28,C  30,H  81)          111.1812         0.322064   
    253. A(C  28,C  30,H  80)          111.1818         0.322017   
    254. A(C  33,C  32,O  42)          123.1991         0.437830   
    255. A(C  18,C  32,O  42)          120.6447         0.429148   
    256. A(C  18,C  32,C  33)          116.1481         0.365564   
    257. A(C  32,C  33,C  34)          114.3363         0.368912   
    258. A(C  34,C  33,H  84)          111.9572         0.322586   
    259. A(H  83,C  33,H  84)          105.3659         0.285878   
    260. A(C  32,C  33,H  84)          107.6028         0.325683   
    261. A(C  34,C  33,H  83)          111.6584         0.321837   
    262. A(C  32,C  33,H  83)          105.3073         0.324923   
    263. A(C  33,C  34,C  35)          112.6783         0.363892   
    264. A(H  85,C  34,H  86)          106.8501         0.286981   
    265. A(C  35,C  34,H  86)          109.5368         0.321662   
    266. A(C  33,C  34,H  86)          109.1001         0.322812   
    267. A(C  35,C  34,H  85)          109.4773         0.321766   
    268. A(C  33,C  34,H  85)          109.0270         0.322916   
    269. A(C  34,C  35,C  36)          113.1815         0.363115   
    270. A(H  87,C  35,H  88)          106.2202         0.286552   
    271. A(C  36,C  35,H  88)          109.2482         0.322161   
    272. A(C  34,C  35,H  88)          109.2032         0.321671   
    273. A(C  36,C  35,H  87)          109.5349         0.321741   
    274. A(C  34,C  35,H  87)          109.2154         0.321252   
    275. A(C  35,C  36,C  37)          113.3249         0.363469   
    276. A(H  89,C  36,H  90)          105.9772         0.286051   
    277. A(C  37,C  36,H  90)          109.3115         0.321421   
    278. A(C  35,C  36,H  90)          109.4850         0.321610   
    279. A(C  37,C  36,H  89)          109.3088         0.321511   
    280. A(C  35,C  36,H  89)          109.1705         0.321700   
    281. A(C  36,C  37,C  38)          113.5813         0.363242   
    282. A(H  91,C  37,H  92)          105.8846         0.286099   
    283. A(C  38,C  37,H  92)          109.3001         0.321504   
    284. A(C  36,C  37,H  92)          109.2248         0.321507   
    285. A(C  38,C  37,H  91)          109.2869         0.321477   
    286. A(C  36,C  37,H  91)          109.2764         0.321481   
    287. A(C  37,C  38,C  39)          113.5346         0.363251   
    288. A(H  93,C  38,H  94)          105.8901         0.286039   
    289. A(C  39,C  38,H  94)          109.2829         0.321464   
    290. A(C  37,C  38,H  94)          109.2903         0.321453   
    291. A(C  39,C  38,H  93)          109.2932         0.321469   
    292. A(C  37,C  38,H  93)          109.2667         0.321458   
    293. A(C  38,C  39,C  40)          113.6178         0.363080   
    294. A(H  95,C  39,H  96)          105.8439         0.286016   
    295. A(C  40,C  39,H  96)          109.2376         0.321299   
    296. A(C  38,C  39,H  96)          109.3176         0.321455   
    297. A(C  40,C  39,H  95)          109.2323         0.321295   
    298. A(C  38,C  39,H  95)          109.2993         0.321451   
    299. A(C  39,C  40,C  41)          113.1364         0.363148   
    300. A(H  97,C  40,H  98)          105.9349         0.286368   
    301. A(C  41,C  40,H  98)          109.6339         0.321720   
    302. A(C  39,C  40,H  98)          109.1239         0.321506   
    303. A(C  41,C  40,H  97)          109.6348         0.321717   
    304. A(C  39,C  40,H  97)          109.1216         0.321503   
    305. A(H 100,C  41,H 101)          107.4255         0.287266   
    306. A(H  99,C  41,H 101)          107.6891         0.287471   
    307. A(C  40,C  41,H 101)          111.0802         0.322247   
    308. A(H  99,C  41,H 100)          107.6935         0.287471   
    309. A(C  40,C  41,H 100)          111.0886         0.322247   
    310. A(C  40,C  41,H  99)          111.6710         0.322488   
    311. A(C  17,O  43,H 102)          105.8075         0.351291   
    312. A(C  13,C  45,C  46)          114.4296         0.359057   
    313. A(C  46,C  45,H 104)          109.7606         0.322787   
    314. A(C  13,C  45,H 104)          106.0019         0.318128   
    315. A(C  46,C  45,H 103)          110.3055         0.322393   
    316. A(C  13,C  45,H 103)          109.2661         0.317741   
    317. A(H 103,C  45,H 104)          106.7222         0.287020   
    318. A(H 106,C  46,H 107)          108.0102         0.288152   
    319. A(H 105,C  46,H 107)          107.9187         0.287622   
    320. A(C  45,C  46,H 107)          110.3839         0.322919   
    321. A(H 105,C  46,H 106)          108.7931         0.288196   
    322. A(C  45,C  46,H 106)          111.2063         0.323595   
    323. A(C  45,C  46,H 105)          110.4295         0.322971   
    324. A(C  50,C  48,H 108)          108.1413         0.321254   
    325. A(C  49,C  48,H 108)          108.5420         0.321449   
    326. A(C  10,C  48,H 108)          107.2617         0.318496   
    327. A(C  49,C  48,C  50)          111.0005         0.362621   
    328. A(C  10,C  48,C  50)          110.4264         0.359144   
    329. A(C  10,C  48,C  49)          111.3231         0.359370   
    330. A(H 110,C  49,H 111)          108.1157         0.287624   
    331. A(H 109,C  49,H 111)          108.1000         0.287916   
    332. A(C  48,C  49,H 111)          110.1419         0.322317   
    333. A(H 109,C  49,H 110)          107.1865         0.287756   
    334. A(C  48,C  49,H 110)          111.0132         0.322130   
    335. A(C  48,C  49,H 109)          112.1300         0.322472   
    336. A(H 113,C  50,H 114)          107.9366         0.287452   
    337. A(H 112,C  50,H 114)          107.9363         0.287607   
    338. A(C  48,C  50,H 114)          110.6179         0.321765   
    339. A(H 112,C  50,H 113)          108.0391         0.287885   
    340. A(C  48,C  50,H 113)          110.5158         0.322090   
    341. A(C  48,C  50,H 112)          111.6624         0.322272   
    342. D(H  51,C   2,C   1,N   9)   -116.9667         0.009492   
    343. D(C   3,C   2,C   1,N   9)    119.3856         0.009492   
    344. D(N   6,C   2,C   1,N   9)      3.9897         0.009492   
    345. D(N   6,C   2,C   1,O   0)   -174.6577         0.009492   
    346. D(C   3,C   2,C   1,O   0)    -59.2617         0.009492   
    347. D(H  51,C   2,C   1,O   0)     64.3859         0.009492   
    348. D(C   4,C   3,C   2,N   6)     36.2447         0.010859   
    349. D(H  53,C   3,C   2,H  51)    -83.6731         0.010859   
    350. D(H  53,C   3,C   2,C   1)     35.7412         0.010859   
    351. D(C   4,C   3,C   2,H  51)    154.4254         0.010859   
    352. D(H  53,C   3,C   2,N   6)    158.1462         0.010859   
    353. D(H  52,C   3,C   2,H  51)     36.6179         0.010859   
    354. D(C   4,C   3,C   2,C   1)    -86.1604         0.010859   
    355. D(H  52,C   3,C   2,C   1)    156.0321         0.010859   
    356. D(H  52,C   3,C   2,N   6)    -81.5628         0.010859   
    357. D(H  55,C   4,C   3,H  53)     79.6958         0.010730   
    358. D(H  55,C   4,C   3,H  52)    -43.3746         0.010730   
    359. D(H  54,C   4,C   3,H  52)   -164.2309         0.010730   
    360. D(H  55,C   4,C   3,C   2)   -160.3838         0.010730   
    361. D(H  54,C   4,C   3,H  53)    -41.1605         0.010730   
    362. D(C   5,C   4,C   3,C   2)    -38.6405         0.010730   
    363. D(H  54,C   4,C   3,C   2)     78.7599         0.010730   
    364. D(C   5,C   4,C   3,H  53)   -158.5609         0.010730   
    365. D(C   5,C   4,C   3,H  52)     78.3686         0.010730   
    366. D(N   6,C   5,C   4,C   3)     25.8946         0.010587   
    367. D(H  57,C   5,C   4,C   3)    -92.5433         0.010587   
    368. D(H  56,C   5,C   4,H  55)    -91.4548         0.010587   
    369. D(H  56,C   5,C   4,C   3)    145.7232         0.010587   
    370. D(H  57,C   5,C   4,H  54)    150.1323         0.010587   
    371. D(H  56,C   5,C   4,H  54)     28.3988         0.010587   
    372. D(H  57,C   5,C   4,H  55)     30.2787         0.010587   
    373. D(N   6,C   5,C   4,H  54)    -91.4298         0.010587   
    374. D(N   6,C   5,C   4,H  55)    148.7166         0.010587   
    375. D(C   5,N   6,C   2,C   3)    -21.0977         0.014985   
    376. D(C   7,N   6,C   5,H  57)    -60.9527         0.013961   
    377. D(C   7,N   6,C   5,H  56)     59.1051         0.013961   
    378. D(C   7,N   6,C   5,C   4)    179.8043         0.013961   
    379. D(C   2,N   6,C   5,H  57)    116.2793         0.013961   
    380. D(C   2,N   6,C   5,H  56)   -123.6629         0.013961   
    381. D(C   7,N   6,C   2,H  51)     35.3375         0.014985   
    382. D(C   2,N   6,C   5,C   4)     -2.9637         0.013961   
    383. D(C   7,N   6,C   2,C   3)    156.3306         0.014985   
    384. D(C   5,N   6,C   2,C   1)     98.6812         0.014985   
    385. D(C   7,N   6,C   2,C   1)    -83.8905         0.014985   
    386. D(C   5,N   6,C   2,H  51)   -142.0908         0.014985   
    387. D(C  24,C   7,N   6,C   5)      0.5506         0.032992   
    388. D(C  24,C   7,N   6,C   2)   -176.4509         0.032992   
    389. D(O   8,C   7,N   6,C   5)    178.3087         0.032992   
    390. D(O   8,C   7,N   6,C   2)      1.3072         0.032992   
    391. D(H  58,N   9,C   1,O   0)   -171.5792         0.031797   
    392. D(C  10,N   9,C   1,C   2)    174.0178         0.031797   
    393. D(H  58,N   9,C   1,C   2)      9.8487         0.031797   
    394. D(C  10,N   9,C   1,O   0)     -7.4101         0.031797   
    395. D(H  59,C  10,N   9,C   1)     36.2075         0.016348   
    396. D(C  48,C  10,N   9,H  58)    -39.0984         0.016348   
    397. D(C  48,C  10,N   9,C   1)    156.4379         0.016348   
    398. D(C  11,C  10,N   9,C   1)    -78.3808         0.016348   
    399. D(H  59,C  10,N   9,H  58)   -159.3289         0.016348   
    400. D(C  11,C  10,N   9,H  58)     86.0829         0.016348   
    401. D(O  47,C  11,C  10,N   9)    135.8261         0.009720   
    402. D(N  12,C  11,C  10,H  59)   -161.3397         0.009720   
    403. D(N  12,C  11,C  10,C  48)     79.5334         0.009720   
    404. D(N  12,C  11,C  10,N   9)    -44.9410         0.009720   
    405. D(O  47,C  11,C  10,H  59)     19.4274         0.009720   
    406. D(O  47,C  11,C  10,C  48)    -99.6994         0.009720   
    407. D(H  60,N  12,C  11,O  47)    166.5702         0.028545   
    408. D(H  60,N  12,C  11,C  10)    -12.6531         0.028545   
    409. D(C  13,N  12,C  11,O  47)      3.5448         0.028545   
    410. D(C  13,N  12,C  11,C  10)   -175.6785         0.028545   
    411. D(H  61,C  13,N  12,C  11)    -27.1907         0.016391   
    412. D(H  61,C  13,N  12,H  60)    170.2850         0.016391   
    413. D(C  45,C  13,N  12,H  60)    -73.0499         0.016391   
    414. D(C  45,C  13,N  12,C  11)     89.4744         0.016391   
    415. D(C  14,C  13,N  12,C  11)   -144.1812         0.016391   
    416. D(C  14,C  13,N  12,H  60)     53.2945         0.016391   
    417. D(O  44,C  14,C  13,C  45)    -57.5503         0.010597   
    418. D(O  44,C  14,C  13,N  12)    175.4469         0.010597   
    419. D(N  15,C  14,C  13,H  61)   -125.0793         0.010597   
    420. D(N  15,C  14,C  13,C  45)    117.7482         0.010597   
    421. D(O  44,C  14,C  13,H  61)     59.6222         0.010597   
    422. D(N  15,C  14,C  13,N  12)     -9.2546         0.010597   
    423. D(H  62,N  15,C  14,O  44)   -161.6132         0.029469   
    424. D(H  62,N  15,C  14,C  13)     23.0897         0.029469   
    425. D(C  16,N  15,C  14,O  44)     -5.4830         0.029469   
    426. D(C  16,N  15,C  14,C  13)    179.2199         0.029469   
    427. D(H  64,C  16,N  15,H  62)    -10.6115         0.016222   
    428. D(H  64,C  16,N  15,C  14)   -168.1246         0.016222   
    429. D(H  63,C  16,N  15,H  62)    107.3062         0.016222   
    430. D(H  63,C  16,N  15,C  14)    -50.2069         0.016222   
    431. D(C  17,C  16,N  15,C  14)     69.0072         0.016222   
    432. D(C  17,C  16,N  15,H  62)   -133.4798         0.016222   
    433. D(H  65,C  17,C  16,H  64)   -137.8743         0.009546   
    434. D(H  65,C  17,C  16,H  63)    103.0349         0.009546   
    435. D(H  65,C  17,C  16,N  15)    -17.6334         0.009546   
    436. D(O  43,C  17,C  16,H  64)    102.9264         0.009546   
    437. D(O  43,C  17,C  16,H  63)    -16.1645         0.009546   
    438. D(O  43,C  17,C  16,N  15)   -136.8327         0.009546   
    439. D(C  18,C  17,C  16,H  64)    -17.5789         0.009546   
    440. D(C  18,C  17,C  16,H  63)   -136.6698         0.009546   
    441. D(C  18,C  17,C  16,N  15)    102.6620         0.009546   
    442. D(H  66,C  18,C  17,H  65)    -64.0601         0.009941   
    443. D(H  66,C  18,C  17,O  43)     52.1411         0.009941   
    444. D(H  66,C  18,C  17,C  16)    175.4090         0.009941   
    445. D(C  32,C  18,C  17,O  43)    -65.2402         0.009941   
    446. D(C  32,C  18,C  17,C  16)     58.0276         0.009941   
    447. D(C  32,C  18,C  17,H  65)    178.5585         0.009941   
    448. D(C  19,C  18,C  17,H  65)     53.4200         0.009941   
    449. D(C  19,C  18,C  17,O  43)    169.6212         0.009941   
    450. D(C  19,C  18,C  17,C  16)    -67.1109         0.009941   
    451. D(O  31,C  19,C  18,H  66)    -73.9569         0.010613   
    452. D(O  31,C  19,C  18,C  32)     42.6654         0.010613   
    453. D(O  31,C  19,C  18,C  17)    168.4209         0.010613   
    454. D(N  20,C  19,C  18,H  66)    103.7589         0.010613   
    455. D(N  20,C  19,C  18,C  17)    -13.8633         0.010613   
    456. D(N  20,C  19,C  18,C  32)   -139.6189         0.010613   
    457. D(H  67,N  20,C  19,O  31)   -161.1787         0.031291   
    458. D(H  67,N  20,C  19,C  18)     21.1534         0.031291   
    459. D(C  21,N  20,C  19,O  31)     -7.7302         0.031291   
    460. D(C  21,N  20,C  19,C  18)    174.6019         0.031291   
    461. D(H  68,C  21,N  20,H  67)   -172.6162         0.015363   
    462. D(H  68,C  21,N  20,C  19)     33.3987         0.015363   
    463. D(C  27,C  21,N  20,H  67)    -51.5205         0.015363   
    464. D(C  27,C  21,N  20,C  19)    154.4944         0.015363   
    465. D(C  22,C  21,N  20,H  67)     71.3933         0.015363   
    466. D(C  22,C  21,N  20,C  19)    -82.5918         0.015363   
    467. D(N  23,C  22,C  21,C  27)   -169.2932         0.009671   
    468. D(N  23,C  22,C  21,N  20)     68.7309         0.009671   
    469. D(O  26,C  22,C  21,H  68)    138.3001         0.009671   
    470. D(O  26,C  22,C  21,C  27)     14.5408         0.009671   
    471. D(O  26,C  22,C  21,N  20)   -107.4350         0.009671   
    472. D(N  23,C  22,C  21,H  68)    -45.5339         0.009671   
    473. D(H  69,N  23,C  22,O  26)    171.7633         0.035273   
    474. D(H  69,N  23,C  22,C  21)     -4.3532         0.035273   
    475. D(C  24,N  23,C  22,O  26)      9.7727         0.035273   
    476. D(C  24,N  23,C  22,C  21)   -166.3439         0.035273   
    477. D(H  70,C  24,N  23,H  69)    117.9004         0.016373   
    478. D(H  70,C  24,N  23,C  22)    -80.5053         0.016373   
    479. D(C  25,C  24,N  23,H  69)     -2.2527         0.016373   
    480. D(C  25,C  24,N  23,C  22)    159.3416         0.016373   
    481. D(C   7,C  24,N  23,H  69)   -122.2746         0.016373   
    482. D(C   7,C  24,N  23,C  22)     39.3197         0.016373   
    483. D(H  70,C  24,C   7,O   8)    164.6218         0.009741   
    484. D(H  70,C  24,C   7,N   6)    -17.5946         0.009741   
    485. D(C  25,C  24,C   7,O   8)    -74.6463         0.009741   
    486. D(C  25,C  24,C   7,N   6)    103.1373         0.009741   
    487. D(N  23,C  24,C   7,O   8)     45.4320         0.009741   
    488. D(N  23,C  24,C   7,N   6)   -136.7844         0.009741   
    489. D(H  73,C  25,C  24,H  70)    179.9106         0.011076   
    490. D(H  73,C  25,C  24,N  23)    -60.9182         0.011076   
    491. D(H  73,C  25,C  24,C   7)     59.5170         0.011076   
    492. D(H  72,C  25,C  24,H  70)     59.7509         0.011076   
    493. D(H  72,C  25,C  24,N  23)    178.9222         0.011076   
    494. D(H  72,C  25,C  24,C   7)    -60.6426         0.011076   
    495. D(H  71,C  25,C  24,H  70)    -59.7683         0.011076   
    496. D(H  71,C  25,C  24,N  23)     59.4029         0.011076   
    497. D(H  71,C  25,C  24,C   7)    179.8381         0.011076   
    498. D(H  75,C  27,C  21,H  68)     66.9505         0.011657   
    499. D(H  75,C  27,C  21,C  22)   -170.7728         0.011657   
    500. D(H  75,C  27,C  21,N  20)    -51.0165         0.011657   
    501. D(H  74,C  27,C  21,H  68)   -177.4087         0.011657   
    502. D(H  74,C  27,C  21,C  22)    -55.1320         0.011657   
    503. D(H  74,C  27,C  21,N  20)     64.6243         0.011657   
    504. D(C  28,C  27,C  21,H  68)    -55.6014         0.011657   
    505. D(C  28,C  27,C  21,C  22)     66.6753         0.011657   
    506. D(C  28,C  27,C  21,N  20)   -173.5684         0.011657   
    507. D(H  76,C  28,C  27,H  75)   -175.7852         0.010600   
    508. D(H  76,C  28,C  27,H  74)     67.8605         0.010600   
    509. D(H  76,C  28,C  27,C  21)    -54.0688         0.010600   
    510. D(C  30,C  28,C  27,H  75)     67.2948         0.010600   
    511. D(C  30,C  28,C  27,H  74)    -49.0596         0.010600   
    512. D(C  30,C  28,C  27,C  21)   -170.9889         0.010600   
    513. D(C  29,C  28,C  27,H  75)    -56.3661         0.010600   
    514. D(C  29,C  28,C  27,H  74)   -172.7204         0.010600   
    515. D(C  29,C  28,C  27,C  21)     65.3503         0.010600   
    516. D(H  79,C  29,C  28,C  30)     56.7401         0.010935   
    517. D(H  79,C  29,C  28,C  27)    179.4937         0.010935   
    518. D(H  78,C  29,C  28,H  76)    178.9279         0.010935   
    519. D(H  78,C  29,C  28,C  30)    -62.6703         0.010935   
    520. D(H  78,C  29,C  28,C  27)     60.0833         0.010935   
    521. D(H  77,C  29,C  28,H  76)     58.3351         0.010935   
    522. D(H  77,C  29,C  28,C  30)    176.7370         0.010935   
    523. D(H  79,C  29,C  28,H  76)    -61.6618         0.010935   
    524. D(H  77,C  29,C  28,C  27)    -60.5094         0.010935   
    525. D(H  82,C  30,C  28,H  76)   -178.8525         0.010973   
    526. D(H  82,C  30,C  28,C  29)     62.2528         0.010973   
    527. D(H  82,C  30,C  28,C  27)    -62.0329         0.010973   
    528. D(H  81,C  30,C  28,H  76)     61.3484         0.010973   
    529. D(H  81,C  30,C  28,C  29)    -57.5464         0.010973   
    530. D(H  81,C  30,C  28,C  27)    178.1679         0.010973   
    531. D(H  80,C  30,C  28,H  76)    -58.9639         0.010973   
    532. D(H  80,C  30,C  28,C  29)   -177.8586         0.010973   
    533. D(H  80,C  30,C  28,C  27)     57.8557         0.010973   
    534. D(O  42,C  32,C  18,H  66)    163.1342         0.009729   
    535. D(O  42,C  32,C  18,C  19)     48.0687         0.009729   
    536. D(O  42,C  32,C  18,C  17)    -80.8360         0.009729   
    537. D(C  33,C  32,C  18,H  66)    -17.8693         0.009729   
    538. D(C  33,C  32,C  18,C  19)   -132.9348         0.009729   
    539. D(C  33,C  32,C  18,C  17)     98.1604         0.009729   
    540. D(H  84,C  33,C  32,O  42)    137.9112         0.011990   
    541. D(H  84,C  33,C  32,C  18)    -41.0570         0.011990   
    542. D(H  83,C  33,C  32,O  42)   -110.0605         0.011990   
    543. D(H  83,C  33,C  32,C  18)     70.9713         0.011990   
    544. D(C  34,C  33,C  32,O  42)     12.8792         0.011990   
    545. D(C  34,C  33,C  32,C  18)   -166.0890         0.011990   
    546. D(H  86,C  34,C  33,H  84)     71.4445         0.011469   
    547. D(H  86,C  34,C  33,H  83)    -46.4281         0.011469   
    548. D(H  86,C  34,C  33,C  32)   -165.8577         0.011469   
    549. D(H  85,C  34,C  33,H  84)   -172.2024         0.011469   
    550. D(H  85,C  34,C  33,H  83)     69.9250         0.011469   
    551. D(H  85,C  34,C  33,C  32)    -49.5046         0.011469   
    552. D(C  35,C  34,C  33,H  84)    -50.4426         0.011469   
    553. D(C  35,C  34,C  33,H  83)   -168.3152         0.011469   
    554. D(C  35,C  34,C  33,C  32)     72.2551         0.011469   
    555. D(H  88,C  35,C  34,H  86)   -178.2645         0.011007   
    556. D(H  88,C  35,C  34,H  85)     64.8799         0.011007   
    557. D(H  88,C  35,C  34,C  33)    -56.6246         0.011007   
    558. D(H  87,C  35,C  34,H  86)    -62.5024         0.011007   
    559. D(H  87,C  35,C  34,H  85)   -179.3580         0.011007   
    560. D(H  87,C  35,C  34,C  33)     59.1375         0.011007   
    561. D(C  36,C  35,C  34,H  86)     59.8049         0.011007   
    562. D(C  36,C  35,C  34,H  85)    -57.0507         0.011007   
    563. D(C  36,C  35,C  34,C  33)   -178.5552         0.011007   
    564. D(H  90,C  36,C  35,H  87)     64.9298         0.011201   
    565. D(H  90,C  36,C  35,C  34)    -57.1992         0.011201   
    566. D(H  89,C  36,C  35,H  88)    -63.5019         0.011201   
    567. D(H  89,C  36,C  35,H  87)   -179.4675         0.011201   
    568. D(H  89,C  36,C  35,C  34)     58.4035         0.011201   
    569. D(C  37,C  36,C  35,H  88)     58.5801         0.011201   
    570. D(C  37,C  36,C  35,H  87)    -57.3854         0.011201   
    571. D(H  90,C  36,C  35,H  88)   -179.1046         0.011201   
    572. D(C  37,C  36,C  35,C  34)   -179.5145         0.011201   
    573. D(H  92,C  37,C  36,H  90)   -179.7187         0.011126   
    574. D(H  92,C  37,C  36,H  89)     64.6979         0.011126   
    575. D(H  92,C  37,C  36,C  35)    -57.3070         0.011126   
    576. D(H  91,C  37,C  36,H  90)    -64.3119         0.011126   
    577. D(H  91,C  37,C  36,H  89)   -179.8953         0.011126   
    578. D(H  91,C  37,C  36,C  35)     58.0998         0.011126   
    579. D(C  38,C  37,C  36,H  90)     57.9953         0.011126   
    580. D(C  38,C  37,C  36,H  89)    -57.5881         0.011126   
    581. D(C  38,C  37,C  36,C  35)   -179.5930         0.011126   
    582. D(H  94,C  38,C  37,H  92)   -179.7481         0.011124   
    583. D(H  94,C  38,C  37,H  91)     64.7976         0.011124   
    584. D(H  94,C  38,C  37,C  36)    -57.5038         0.011124   
    585. D(H  93,C  38,C  37,H  92)    -64.3041         0.011124   
    586. D(H  93,C  38,C  37,H  91)   -179.7583         0.011124   
    587. D(H  93,C  38,C  37,C  36)     57.9403         0.011124   
    588. D(C  39,C  38,C  37,H  92)     57.9719         0.011124   
    589. D(C  39,C  38,C  37,H  91)    -57.4824         0.011124   
    590. D(C  39,C  38,C  37,C  36)   -179.7838         0.011124   
    591. D(H  95,C  39,C  38,H  94)    -64.4984         0.011129   
    592. D(H  95,C  39,C  38,H  93)   -179.9531         0.011129   
    593. D(H  95,C  39,C  38,C  37)     57.7857         0.011129   
    594. D(C  40,C  39,C  38,H  94)     57.7803         0.011129   
    595. D(C  40,C  39,C  38,H  93)    -57.6745         0.011129   
    596. D(C  40,C  39,C  38,C  37)   -179.9357         0.011129   
    597. D(H  96,C  39,C  38,H  94)   -179.9206         0.011129   
    598. D(H  96,C  39,C  38,H  93)     64.6247         0.011129   
    599. D(H  96,C  39,C  38,C  37)    -57.6365         0.011129   
    600. D(H  98,C  40,C  39,H  95)     64.7366         0.011067   
    601. D(H  98,C  40,C  39,C  38)    -57.5792         0.011067   
    602. D(H  97,C  40,C  39,H  96)    -64.5965         0.011067   
    603. D(H  97,C  40,C  39,H  95)   -179.9374         0.011067   
    604. D(H  97,C  40,C  39,C  38)     57.7468         0.011067   
    605. D(C  41,C  40,C  39,H  96)     57.7402         0.011067   
    606. D(C  41,C  40,C  39,H  95)    -57.6007         0.011067   
    607. D(H  98,C  40,C  39,H  96)   -179.9226         0.011067   
    608. D(C  41,C  40,C  39,C  38)   -179.9165         0.011067   
    609. D(H 101,C  41,C  40,H  98)    -62.2700         0.011152   
    610. D(H 101,C  41,C  40,H  97)   -178.1678         0.011152   
    611. D(H 101,C  41,C  40,C  39)     59.7823         0.011152   
    612. D(H 100,C  41,C  40,H  98)    178.2161         0.011152   
    613. D(H 100,C  41,C  40,H  97)     62.3184         0.011152   
    614. D(H 100,C  41,C  40,C  39)    -59.7316         0.011152   
    615. D(H  99,C  41,C  40,H  98)     57.9673         0.011152   
    616. D(H  99,C  41,C  40,H  97)    -57.9304         0.011152   
    617. D(H  99,C  41,C  40,C  39)   -179.9804         0.011152   
    618. D(H 102,O  43,C  17,H  65)    -56.4144         0.018431   
    619. D(H 102,O  43,C  17,C  18)   -171.9705         0.018431   
    620. D(H 102,O  43,C  17,C  16)     62.4702         0.018431   
    621. D(H 104,C  45,C  13,H  61)     79.3273         0.009617   
    622. D(H 104,C  45,C  13,C  14)   -163.6862         0.009617   
    623. D(H 104,C  45,C  13,N  12)    -35.9542         0.009617   
    624. D(H 103,C  45,C  13,H  61)   -166.0067         0.009617   
    625. D(H 103,C  45,C  13,C  14)    -49.0202         0.009617   
    626. D(H 103,C  45,C  13,N  12)     78.7118         0.009617   
    627. D(C  46,C  45,C  13,H  61)    -41.7754         0.009617   
    628. D(C  46,C  45,C  13,C  14)     75.2111         0.009617   
    629. D(C  46,C  45,C  13,N  12)   -157.0569         0.009617   
    630. D(H 107,C  46,C  45,H 104)    -60.0075         0.011348   
    631. D(H 107,C  46,C  45,H 103)   -177.3252         0.011348   
    632. D(H 107,C  46,C  45,C  13)     58.9989         0.011348   
    633. D(H 106,C  46,C  45,H 104)   -179.8733         0.011348   
    634. D(H 106,C  46,C  45,H 103)     62.8090         0.011348   
    635. D(H 106,C  46,C  45,C  13)    -60.8670         0.011348   
    636. D(H 105,C  46,C  45,H 104)     59.2448         0.011348   
    637. D(H 105,C  46,C  45,H 103)    -58.0728         0.011348   
    638. D(H 105,C  46,C  45,C  13)    178.2512         0.011348   
    639. D(H 108,C  48,C  10,H  59)    175.6271         0.009954   
    640. D(H 108,C  48,C  10,C  11)    -68.5149         0.009954   
    641. D(H 108,C  48,C  10,N   9)     56.8789         0.009954   
    642. D(C  50,C  48,C  10,H  59)     58.0044         0.009954   
    643. D(C  50,C  48,C  10,C  11)    173.8624         0.009954   
    644. D(C  50,C  48,C  10,N   9)    -60.7438         0.009954   
    645. D(C  49,C  48,C  10,H  59)    -65.7683         0.009954   
    646. D(C  49,C  48,C  10,C  11)     50.0897         0.009954   
    647. D(C  49,C  48,C  10,N   9)    175.4835         0.009954   
    648. D(H 111,C  49,C  48,C  50)     55.7696         0.011059   
    649. D(H 111,C  49,C  48,C  10)    179.2156         0.011059   
    650. D(H 110,C  49,C  48,H 108)    177.3353         0.011059   
    651. D(H 110,C  49,C  48,C  50)    -63.9447         0.011059   
    652. D(H 110,C  49,C  48,C  10)     59.5013         0.011059   
    653. D(H 109,C  49,C  48,H 108)     57.4729         0.011059   
    654. D(H 109,C  49,C  48,C  50)    176.1930         0.011059   
    655. D(H 111,C  49,C  48,H 108)    -62.9505         0.011059   
    656. D(H 109,C  49,C  48,C  10)    -60.3610         0.011059   
    657. D(H 114,C  50,C  48,H 108)    179.5001         0.010982   
    658. D(H 114,C  50,C  48,C  49)     60.5388         0.010982   
    659. D(H 114,C  50,C  48,C  10)    -63.4199         0.010982   
    660. D(H 113,C  50,C  48,H 108)     60.0210         0.010982   
    661. D(H 113,C  50,C  48,C  49)    -58.9403         0.010982   
    662. D(H 113,C  50,C  48,C  10)    177.1010         0.010982   
    663. D(H 112,C  50,C  48,H 108)    -60.2698         0.010982   
    664. D(H 112,C  50,C  48,C  49)   -179.2311         0.010982   
    665. D(H 112,C  50,C  48,C  10)     56.8102         0.010982   
    -----------------------------------------------------------------

Number of atoms                         .... 115
Number of degrees of freedom            .... 665

         *************************************************************
         *                GEOMETRY OPTIMIZATION CYCLE   1            *
         *************************************************************
---------------------------------
CARTESIAN COORDINATES (ANGSTROEM)
---------------------------------
  O      4.600423   -2.681168   -1.128112
  C      4.281911   -1.532264   -0.827989
  C      3.837116   -0.557625   -1.939812
  C      4.952801   -0.382225   -2.977526
  C      5.800451    0.740151   -2.361499
  C      4.759677    1.693235   -1.751479
  N      3.600357    0.816937   -1.480042
  C      2.413374    1.174844   -0.933807
  O      1.488673    0.365460   -0.774842
  N      4.318696   -1.033171    0.435954
  C      4.598343   -1.898175    1.574269
  C      3.365931   -2.723444    1.990336
  N      2.186855   -2.022343    2.050008
  C      0.980038   -2.685683    2.524059
  C     -0.286140   -2.230570    1.800342
  N     -0.178647   -1.151936    0.964151
  C     -1.360750   -0.697610    0.242036
  C     -2.416969   -0.071268    1.192273
  C     -2.467619    1.474530    1.180383
  C     -1.240982    2.190904    1.742193
  N     -0.353297    1.446858    2.457679
  C      0.907835    2.020354    2.934666
  C      1.906147    1.953281    1.762389
  N      1.607952    2.778400    0.741104
  C      2.244208    2.660275   -0.563814
  C      1.372776    3.347913   -1.618016
  O      2.856027    1.149739    1.741345
  C      1.409722    1.279258    4.167544
  C      2.645804    1.900690    4.837689
  C      2.348372    3.284144    5.426638
  C      3.175897    0.947120    5.913537
  O     -1.100491    3.411259    1.578842
  C     -2.753408    1.993972   -0.241276
  C     -4.187900    2.358165   -0.540838
  C     -4.492766    2.544236   -2.024300
  C     -4.511252    1.220044   -2.794059
  C     -4.781104    1.396439   -4.288944
  C     -4.811986    0.074544   -5.059169
  C     -5.071844    0.245003   -6.557529
  C     -5.107716   -1.077850   -7.325814
  C     -5.366043   -0.909407   -8.825431
  C     -5.401691   -2.238495   -9.582286
  O     -1.856049    2.078333   -1.065261
  O     -3.736043   -0.513749    0.862282
  O     -1.379740   -2.758416    2.028901
  C      0.811586   -2.559673    4.061325
  C     -0.066193   -3.639318    4.691212
  O      3.447351   -3.917915    2.260925
  C      5.157614   -1.071242    2.755367
  C      5.354460   -1.940916    4.000032
  C      6.466204   -0.382917    2.353929
  H      2.909456   -0.968382   -2.358834
  H      4.520922   -0.065323   -3.938246
  H      5.499636   -1.319216   -3.129045
  H      6.441315    0.329309   -1.568138
  H      6.446459    1.249683   -3.086943
  H      5.120019    2.166551   -0.827053
  H      4.478060    2.486958   -2.461415
  H      3.917529   -0.112041    0.626904
  H      5.337890   -2.644888    1.251973
  H      2.239433   -1.002379    2.015352
  H      1.124263   -3.752176    2.291543
  H      0.719934   -0.883049    0.551874
  H     -1.839041   -1.548964   -0.265354
  H     -1.021982    0.017369   -0.515663
  H     -2.184584   -0.391583    2.223005
  H     -3.310427    1.760208    1.831423
  H     -0.354656    0.432677    2.315589
  H      0.698085    3.075528    3.159538
  H      0.727187    3.303325    0.817253
  H      3.231179    3.142463   -0.516052
  H      1.238011    4.409767   -1.369409
  H      1.848102    3.284613   -2.605898
  H      0.388756    2.862271   -1.663503
  H      1.649733    0.243215    3.883959
  H      0.582529    1.228985    4.894623
  H      3.426399    2.006573    4.066615
  H      2.020713    4.003397    4.662111
  H      1.556724    3.221793    6.190204
  H      3.243550    3.703766    5.907538
  H      3.425842   -0.034655    5.486052
  H      4.081150    1.349673    6.390016
  H      2.423976    0.788685    6.702914
  H     -4.380832    3.283542    0.035080
  H     -4.830459    1.588458   -0.081105
  H     -3.737918    3.214479   -2.464671
  H     -5.467550    3.046590   -2.131820
  H     -5.277095    0.556081   -2.356516
  H     -3.545360    0.707824   -2.657280
  H     -4.006546    2.053432   -4.722175
  H     -5.741236    1.924128   -4.430302
  H     -5.588080   -0.581372   -4.626658
  H     -3.853612   -0.454039   -4.912780
  H     -4.293014    0.897491   -6.990561
  H     -6.028257    0.777733   -6.703693
  H     -5.887161   -1.730150   -6.893362
  H     -4.152029   -1.611763   -7.178869
  H     -4.585809   -0.258467   -9.255754
  H     -6.320387   -0.374667   -8.970042
  H     -5.588120   -2.089658  -10.655594
  H     -4.447782   -2.778165   -9.480106
  H     -6.195023   -2.894700   -9.192860
  H     -3.733857   -1.479883    0.997495
  H      0.419239   -1.558186    4.303408
  H      1.826657   -2.612534    4.483082
  H     -0.115367   -3.506176    5.781544
  H     -1.084236   -3.609369    4.285477
  H      0.350585   -4.637124    4.490626
  H      4.414967   -0.288644    2.987906
  H      4.413093   -2.390452    4.343799
  H      6.053982   -2.765725    3.798367
  H      5.765093   -1.337792    4.822105
  H      6.334100    0.254919    1.469513
  H      6.838161    0.246383    3.175010
  H      7.241292   -1.129368    2.120925

----------------------------
CARTESIAN COORDINATES (A.U.)
----------------------------
  NO LB      ZA    FRAG     MASS         X           Y           Z
   0 O     8.0000    0    15.999    8.693539   -5.066674   -2.131823
   1 C     6.0000    0    12.011    8.091640   -2.895559   -1.564673
   2 C     6.0000    0    12.011    7.251098   -1.053759   -3.665713
   3 C     6.0000    0    12.011    9.359437   -0.722300   -5.626709
   4 C     6.0000    0    12.011   10.961263    1.398683   -4.462587
   5 C     6.0000    0    12.011    8.994486    3.199750   -3.309815
   6 N     7.0000    0    14.007    6.803688    1.543787   -2.796874
   7 C     6.0000    0    12.011    4.560617    2.220133   -1.764640
   8 O     8.0000    0    15.999    2.813184    0.690618   -1.464238
   9 N     7.0000    0    14.007    8.161152   -1.952411    0.823834
  10 C     6.0000    0    12.011    8.689609   -3.587032    2.974937
  11 C     6.0000    0    12.011    6.360688   -5.146563    3.761191
  12 N     7.0000    0    14.007    4.132557   -3.821674    3.873954
  13 C     6.0000    0    12.011    1.852003   -5.075206    4.769781
  14 C     6.0000    0    12.011   -0.540727   -4.215166    3.402154
  15 N     7.0000    0    14.007   -0.337594   -2.176843    1.821982
  16 C     6.0000    0    12.011   -2.571444   -1.318291    0.457381
  17 C     6.0000    0    12.011   -4.567409   -0.134677    2.253069
  18 C     6.0000    0    12.011   -4.663124    2.786458    2.230600
  19 C     6.0000    0    12.011   -2.345116    4.140208    3.292268
  20 N     7.0000    0    14.007   -0.667635    2.734165    4.644339
  21 C     6.0000    0    12.011    1.715560    3.817916    5.545716
  22 C     6.0000    0    12.011    3.602096    3.691167    3.330433
  23 N     7.0000    0    14.007    3.038589    5.250415    1.400484
  24 C     6.0000    0    12.011    4.240939    5.027191   -1.065454
  25 C     6.0000    0    12.011    2.594171    6.326638   -3.057607
  26 O     8.0000    0    15.999    5.397108    2.172693    3.290665
  27 C     6.0000    0    12.011    2.663988    2.417447    7.875518
  28 C     6.0000    0    12.011    4.999846    3.591783    9.141908
  29 C     6.0000    0    12.011    4.437781    6.206133   10.254860
  30 C     6.0000    0    12.011    6.001576    1.789797   11.174965
  31 O     8.0000    0    15.999   -2.079626    6.446345    2.983579
  32 C     6.0000    0    12.011   -5.203186    3.768062   -0.455946
  33 C     6.0000    0    12.011   -7.913985    4.456287   -1.022036
  34 C     6.0000    0    12.011   -8.490098    4.807909   -3.825373
  35 C     6.0000    0    12.011   -8.525030    2.305548   -5.280006
  36 C     6.0000    0    12.011   -9.034976    2.638888   -8.104930
  37 C     6.0000    0    12.011   -9.093336    0.140868   -9.560443
  38 C     6.0000    0    12.011   -9.584396    0.462988  -12.391934
  39 C     6.0000    0    12.011   -9.652185   -2.036841  -13.843783
  40 C     6.0000    0    12.011  -10.140352   -1.718530  -16.677647
  41 C     6.0000    0    12.011  -10.207717   -4.230143  -18.107896
  42 O     8.0000    0    15.999   -3.507425    3.927480   -2.013051
  43 O     8.0000    0    15.999   -7.060097   -0.970845    1.629476
  44 O     8.0000    0    15.999   -2.607330   -5.212650    3.834067
  45 C     6.0000    0    12.011    1.533675   -4.837080    7.674792
  46 C     6.0000    0    12.011   -0.125087   -6.877315    8.865107
  47 O     8.0000    0    15.999    6.514549   -7.403786    4.272530
  48 C     6.0000    0    12.011    9.746479   -2.024355    5.206890
  49 C     6.0000    0    12.011   10.118463   -3.667800    7.558965
  50 C     6.0000    0    12.011   12.219355   -0.723607    4.448282
  51 H     1.0000    0     1.008    5.498075   -1.829977   -4.457550
  52 H     1.0000    0     1.008    8.543304   -0.123443   -7.442207
  53 H     1.0000    0     1.008   10.392807   -2.492956   -5.913038
  54 H     1.0000    0     1.008   12.172322    0.622304   -2.963352
  55 H     1.0000    0     1.008   12.182041    2.361559   -5.833477
  56 H     1.0000    0     1.008    9.675433    4.094189   -1.562903
  57 H     1.0000    0     1.008    8.462306    4.699670   -4.651400
  58 H     1.0000    0     1.008    7.403057   -0.211726    1.184676
  59 H     1.0000    0     1.008   10.087151   -4.998113    2.365886
  60 H     1.0000    0     1.008    4.231916   -1.894221    3.808463
  61 H     1.0000    0     1.008    2.124549   -7.090584    4.330389
  62 H     1.0000    0     1.008    1.360477   -1.668721    1.042890
  63 H     1.0000    0     1.008   -3.475284   -2.927117   -0.501447
  64 H     1.0000    0     1.008   -1.931267    0.032823   -0.974463
  65 H     1.0000    0     1.008   -4.128266   -0.739985    4.200871
  66 H     1.0000    0     1.008   -6.255801    3.326311    3.460888
  67 H     1.0000    0     1.008   -0.670203    0.817642    4.375828
  68 H     1.0000    0     1.008    1.319190    5.811905    5.970661
  69 H     1.0000    0     1.008    1.374184    6.242379    1.544384
  70 H     1.0000    0     1.008    6.106044    5.938395   -0.975197
  71 H     1.0000    0     1.008    2.339502    8.333252   -2.587808
  72 H     1.0000    0     1.008    3.492406    6.207020   -4.924433
  73 H     1.0000    0     1.008    0.734643    5.408908   -3.143565
  74 H     1.0000    0     1.008    3.117544    0.459610    7.339618
  75 H     1.0000    0     1.008    1.100820    2.322445    9.249498
  76 H     1.0000    0     1.008    6.474956    3.791873    7.684788
  77 H     1.0000    0     1.008    3.818594    7.565324    8.810113
  78 H     1.0000    0     1.008    2.941782    6.088307   11.697790
  79 H     1.0000    0     1.008    6.129422    6.999104   11.163630
  80 H     1.0000    0     1.008    6.473903   -0.065489   10.367136
  81 H     1.0000    0     1.008    7.712255    2.550512   12.075380
  82 H     1.0000    0     1.008    4.580651    1.490398   12.666673
  83 H     1.0000    0     1.008   -8.278573    6.204994    0.066292
  84 H     1.0000    0     1.008   -9.128245    3.001751   -0.153267
  85 H     1.0000    0     1.008   -7.063642    6.074484   -4.657554
  86 H     1.0000    0     1.008  -10.332173    5.757222   -4.028556
  87 H     1.0000    0     1.008   -9.972264    1.050842   -4.453170
  88 H     1.0000    0     1.008   -6.699759    1.337593   -5.021532
  89 H     1.0000    0     1.008   -7.571274    3.880424   -8.923617
  90 H     1.0000    0     1.008  -10.849364    3.636076   -8.372058
  91 H     1.0000    0     1.008  -10.559942   -1.098634   -8.743117
  92 H     1.0000    0     1.008   -7.282271   -0.858009   -9.283808
  93 H     1.0000    0     1.008   -8.112621    1.696013  -13.210245
  94 H     1.0000    0     1.008  -11.391755    1.469701  -12.668143
  95 H     1.0000    0     1.008  -11.125122   -3.269509  -13.026567
  96 H     1.0000    0     1.008   -7.846198   -3.045791  -13.566096
  97 H     1.0000    0     1.008   -8.665923   -0.488432  -17.490841
  98 H     1.0000    0     1.008  -11.943800   -0.708018  -16.950924
  99 H     1.0000    0     1.008  -10.560017   -3.948881  -20.136155
 100 H     1.0000    0     1.008   -8.405089   -5.249972  -17.914804
 101 H     1.0000    0     1.008  -11.706896   -5.470190  -17.371988
 102 H     1.0000    0     1.008   -7.055967   -2.796573    1.884993
 103 H     1.0000    0     1.008    0.792248   -2.944544    8.132263
 104 H     1.0000    0     1.008    3.451881   -4.936973    8.471797
 105 H     1.0000    0     1.008   -0.218013   -6.625713   10.925535
 106 H     1.0000    0     1.008   -2.048909   -6.820718    8.098378
 107 H     1.0000    0     1.008    0.662509   -8.762893    8.486054
 108 H     1.0000    0     1.008    8.343079   -0.545458    5.646323
 109 H     1.0000    0     1.008    8.339536   -4.517300    8.208591
 110 H     1.0000    0     1.008   11.440367   -5.226462    7.177874
 111 H     1.0000    0     1.008   10.894447   -2.528061    9.112457
 112 H     1.0000    0     1.008   11.969715    0.481727    2.776977
 113 H     1.0000    0     1.008   12.922251    0.465596    5.999899
 114 H     1.0000    0     1.008   13.684059   -2.134196    4.007968

--------------------------------
INTERNAL COORDINATES (ANGSTROEM)
--------------------------------
 O      0   0   0     0.000000000000     0.00000000     0.00000000
 C      1   0   0     1.229432656681     0.00000000     0.00000000
 C      2   1   0     1.543992638340   119.25822130     0.00000000
 C      3   2   1     1.533743267110   110.47760715   300.73829976
 C      4   3   2     1.535489027878   102.34033022   273.83964697
 C      5   4   3     1.537433921567   103.80465990   321.35945437
 N      3   2   1     1.468626722943   114.31938980   185.34233290
 C      7   3   2     1.354768126781   120.97955203   276.10947601
 O      8   7   3     1.239131143251   122.20786738     1.30718003
 N      2   1   3     1.359411394813   124.26713649   181.46533123
 C     10   2   1     1.456775650048   120.91145600   352.58987960
 C     11  10   2     1.540460522228   112.06000767   281.61921648
 N     12  11  10     1.373070939084   115.16249166   315.05899178
 C     13  12  11     1.456417746801   119.54667281   184.32148401
 C     14  13  12     1.527776596868   113.38275076   215.81881999
 N     15  14  13     1.369022192077   117.32058978   350.74543115
 C     16  15  14     1.457816713406   118.97488343   179.21991850
 C     17  16  15     1.552691880706   111.97282672    69.00715106
 C     18  17  16     1.546673775692   114.88097179   102.66198092
 C     19  18  17     1.527566915952   116.07671964   292.88911045
 N     20  19  18     1.361435436251   117.42326081   346.13668560
 C     21  20  19     1.465220197906   121.22339064   174.60189489
 C     22  21  20     1.541219668291   107.03009969   277.40820372
 N     23  22  21     1.346389402619   114.00552076    68.73094931
 C     24  23  22     1.456566983403   122.21627921   193.65608094
 C     25  24  23     1.530875981005   109.38108002   159.34160023
 O     23  22  21     1.244344767898   122.37270399   252.56497780
 C     22  21  20     1.523516355231   110.89054741   154.49440266
 C     28  22  21     1.537261404070   114.89880431   186.43156757
 C     29  28  22     1.532733603178   112.10758365    65.35026380
 C     29  28  22     1.532233996108   109.43214251   189.01110931
 O     20  19  18     1.239228885385   120.29003518   168.42094276
 C     19  18  17     1.540327451184   110.50008021    58.02763169
 C     33  19  18     1.510014414835   116.14807724    98.16044818
 C     34  33  19     1.525852425113   114.33626873   193.91096315
 C     35  34  33     1.531781844242   112.67826447    72.25514935
 C     36  35  34     1.529253788013   113.18149289   181.44482043
 C     37  36  35     1.530231160181   113.32489823   180.48554973
 C     38  37  36     1.530250358472   113.58128069   180.40696823
 C     39  38  37     1.530192044317   113.53460004   180.21622724
 C     40  39  38     1.530998057486   113.61783606   180.06432613
 C     41  40  39     1.529894253961   113.13637087   180.08354862
 O     33  19  18     1.221195798511   120.64469407   279.16395229
 O     18  17  16     1.429908807353   111.18992083   223.16727072
 O     15  14  13     1.235645466802   121.23986853   175.44694267
 C     14  13  12     1.551592948431   112.05254332    89.47443220
 C     46  14  13     1.527379655947   114.42963533   202.94313509
 O     12  11  10     1.227440135818   121.85776726   135.82614151
 C     11  10   2     1.546478508700   110.40737046   156.43793875
 C     49  11  10     1.531101335482   111.32306309   175.48352338
 C     49  11  10     1.532106971376   110.42637309   299.25619036
 H      3   2   1     1.097658235858   106.38773992    64.38590816
 H      4   3   2     1.099967868679   109.77196079   156.03214343
 H      4   3   2     1.095417398676   111.03254486    35.74122695
 H      5   4   3     1.099509280415   109.76233300    78.75987610
 H      5   4   3     1.096913010055   113.53601748   199.61620091
 H      6   5   4     1.099289776421   112.25171363   145.72324343
 H      6   5   4     1.101506048606   111.34887476   267.45671336
 H     10   2   1     1.022681896620   119.58205964   188.42076656
 H     11  10   2     1.099265516654   107.66145479    36.20749050
 H     13  12  11     1.021906446949   117.64432803   347.34693970
 H     14  13  12     1.101031563515   105.30119359   332.80933362
 H     16  15  14     1.024558353130   121.42746999    23.08974220
 H     17  16  15     1.100459629339   109.85942283   309.79312146
 H     17  16  15     1.095475360375   107.17281145   191.87539702
 H     18  17  16     1.104089352101   108.12703157   342.36660896
 H     19  18  17     1.102629107958   106.22638993   175.40899991
 H     21  20  19     1.024086820568   117.86868161    21.15339179
 H     22  21  20     1.099069592761   106.14796451    33.39869873
 H     24  23  22     1.028149850358   116.51518577   355.64676337
 H     25  24  23     1.099499085493   108.51967050   279.49474655
 H     26  25  24     1.098863903147   110.36915992    59.40291982
 H     26  25  24     1.098112964405   110.31675689   178.92218157
 H     26  25  24     1.098276929058   109.87188950   299.08184608
 H     28  22  21     1.100641121729   108.73683802    64.62429452
 H     28  22  21     1.102460210614   107.98099080   308.98350111
 H     29  28  22     1.102313426661   107.65562048   305.93119521
 H     30  29  28     1.099630629761   112.39892315   299.49060750
 H     30  29  28     1.101647214098   110.77436846    60.08334497
 H     30  29  28     1.099405119193   110.76764776   179.49367800
 H     31  29  28     1.099589952820   111.18181832    57.85567428
 H     31  29  28     1.099346922315   111.18115798   178.16793222
 H     31  29  28     1.101637016440   110.88472514   297.96707869
 H     34  33  19     1.106899180542   105.30728686    70.97130650
 H     34  33  19     1.103034748297   107.60283596   318.94302106
 H     35  34  33     1.101338623577   109.02697068   310.49537981
 H     35  34  33     1.101873332900   109.10011059   194.14229125
 H     36  35  34     1.103995376954   109.21537588    59.13750142
 H     36  35  34     1.101827752486   109.20317638   303.37544100
 H     37  36  35     1.104204753227   109.17045600    58.40351093
 H     37  36  35     1.104668468719   109.48504272   302.80082228
 H     38  37  36     1.104361142874   109.27644551    58.09977979
 H     38  37  36     1.104224142003   109.22475500   302.69303789
 H     39  38  37     1.104460866364   109.26666126    57.94030649
 H     39  38  37     1.104486934871   109.29028595   302.49621205
 H     40  39  38     1.104555907948   109.29932029    57.78565149
 H     40  39  38     1.104533735332   109.31762794   302.36348172
 H     41  40  39     1.103478859228   109.12158548    57.74684503
 H     41  40  39     1.103463291106   109.12389577   302.42081108
 H     42  41  40     1.099499480325   111.67099891   180.01963189
 H     42  41  40     1.100739985833   111.08864401   300.26841972
 H     42  41  40     1.100741377478   111.08015153    59.78227155
 H     44  18  17     0.975551970327   105.80749890    62.47019890
 H     46  14  13     1.102504413652   109.26609514    78.71181767
 H     46  14  13     1.100473383004   106.00187779   324.04584711
 H     47  46  14     1.099530750068   110.42954777   178.25120994
 H     47  46  14     1.096325777322   111.20630554   299.13304541
 H     47  46  14     1.099796967228   110.38387215    58.99887569
 H     49  11  10     1.103657163572   107.26174207    56.87887362
 H     50  49  11     1.098376775257   112.12995551   299.63899523
 H     50  49  11     1.100140048963   111.01319766    59.50130376
 H     50  49  11     1.099172671457   110.14186492   179.21557389
 H     51  49  11     1.098397559122   111.66240645    56.81016150
 H     51  49  11     1.099337468056   110.51575051   177.10096554
 H     51  49  11     1.101018750818   110.61788850   296.58012032

---------------------------
INTERNAL COORDINATES (A.U.)
---------------------------
 O      0   0   0     0.000000000000     0.00000000     0.00000000
 C      1   0   0     2.323291021226     0.00000000     0.00000000
 C      2   1   0     2.917723239254   119.25822130     0.00000000
 C      3   2   1     2.898354734584   110.47760715   300.73829976
 C      4   3   2     2.901653744330   102.34033022   273.83964697
 C      5   4   3     2.905329060762   103.80465990   321.35945437
 N      3   2   1     2.775302299320   114.31938980   185.34233290
 C      7   3   2     2.560140734581   120.97955203   276.10947601
 O      8   7   3     2.341618504758   122.20786738     1.30718003
 N      2   1   3     2.568915239528   124.26713649   181.46533123
 C     10   2   1     2.752907017156   120.91145600   352.58987960
 C     11  10   2     2.911048507129   112.06000767   281.61921648
 N     12  11  10     2.594728037315   115.16249166   315.05899178
 C     13  12  11     2.752230678036   119.54667281   184.32148401
 C     14  13  12     2.887079361895   113.38275076   215.81881999
 N     15  14  13     2.587077014287   117.32058978   350.74543115
 C     16  15  14     2.754874341790   118.97488343   179.21991850
 C     17  16  15     2.934162424898   111.97282672    69.00715106
 C     18  17  16     2.922789854577   114.88097179   102.66198092
 C     19  18  17     2.886683122388   116.07671964   292.88911045
 N     20  19  18     2.572740123530   117.42326081   346.13668560
 C     21  20  19     2.768864899933   121.22339064   174.60189489
 C     22  21  20     2.912483085283   107.03009969   277.40820372
 N     23  22  21     2.544307240563   114.00552076    68.73094931
 C     24  23  22     2.752512694343   122.21627921   193.65608094
 C     25  24  23     2.892936349098   109.38108002   159.34160023
 O     23  22  21     2.351470827504   122.37270399   252.56497780
 C     22  21  20     2.879028671936   110.89054741   154.49440266
 C     28  22  21     2.905003049939   114.89880431   186.43156757
 C     29  28  22     2.896446746264   112.10758365    65.35026380
 C     29  28  22     2.895502625727   109.43214251   189.01110931
 O     20  19  18     2.341803210623   120.29003518   168.42094276
 C     19  18  17     2.910797039299   110.50008021    58.02763169
 C     33  19  18     2.853513702311   116.14807724    98.16044818
 C     34  33  19     2.883443204243   114.33626873   193.91096315
 C     35  34  33     2.894648182531   112.67826447    72.25514935
 C     36  35  34     2.889870848606   113.18149289   181.44482043
 C     37  36  35     2.891717814334   113.32489823   180.48554973
 C     38  37  36     2.891754093846   113.58128069   180.40696823
 C     39  38  37     2.891643896065   113.53460004   180.21622724
 C     40  39  38     2.893167040214   113.61783606   180.06432613
 C     41  40  39     2.891081153847   113.13637087   180.08354862
 O     33  19  18     2.307725615080   120.64469407   279.16395229
 O     18  17  16     2.702136042379   111.18992083   223.16727072
 O     15  14  13     2.335031530877   121.23986853   175.44694267
 C     14  13  12     2.932085743857   112.05254332    89.47443220
 C     46  14  13     2.886329252263   114.42963533   202.94313509
 O     12  11  10     2.319525702479   121.85776726   135.82614151
 C     11  10   2     2.922420853438   110.40737046   156.43793875
 C     49  11  10     2.893362207342   111.32306309   175.48352338
 C     49  11  10     2.895262583773   110.42637309   299.25619036
 H      3   2   1     2.074273454416   106.38773992    64.38590816
 H      4   3   2     2.078638027916   109.77196079   156.03214343
 H      4   3   2     2.070038885830   111.03254486    35.74122695
 H      5   4   3     2.077771421689   109.76233300    78.75987610
 H      5   4   3     2.072865181739   113.53601748   199.61620091
 H      6   5   4     2.077356619254   112.25171363   145.72324343
 H      6   5   4     2.081544766722   111.34887476   267.45671336
[...]
freq.      85.32  E(vib)   ...       0.48 
freq.      86.93  E(vib)   ...       0.48 
freq.      88.61  E(vib)   ...       0.47 
freq.      94.72  E(vib)   ...       0.47 
freq.     100.91  E(vib)   ...       0.46 
freq.     104.29  E(vib)   ...       0.46 
freq.     108.80  E(vib)   ...       0.45 
freq.     113.56  E(vib)   ...       0.44 
freq.     126.77  E(vib)   ...       0.43 
freq.     135.77  E(vib)   ...       0.42 
freq.     137.16  E(vib)   ...       0.42 
freq.     142.36  E(vib)   ...       0.41 
freq.     148.46  E(vib)   ...       0.41 
freq.     151.30  E(vib)   ...       0.40 
freq.     152.99  E(vib)   ...       0.40 
freq.     158.54  E(vib)   ...       0.39 
freq.     164.32  E(vib)   ...       0.39 
freq.     168.83  E(vib)   ...       0.38 
freq.     175.84  E(vib)   ...       0.38 
freq.     179.54  E(vib)   ...       0.37 
freq.     188.06  E(vib)   ...       0.36 
freq.     195.71  E(vib)   ...       0.36 
freq.     205.42  E(vib)   ...       0.35 
freq.     211.26  E(vib)   ...       0.34 
freq.     215.32  E(vib)   ...       0.34 
freq.     223.07  E(vib)   ...       0.33 
freq.     225.38  E(vib)   ...       0.33 
freq.     227.77  E(vib)   ...       0.33 
freq.     233.33  E(vib)   ...       0.32 
freq.     237.16  E(vib)   ...       0.32 
freq.     237.61  E(vib)   ...       0.32 
freq.     239.19  E(vib)   ...       0.31 
freq.     246.60  E(vib)   ...       0.31 
freq.     251.66  E(vib)   ...       0.30 
freq.     255.85  E(vib)   ...       0.30 
freq.     260.71  E(vib)   ...       0.30 
freq.     273.71  E(vib)   ...       0.28 
freq.     282.20  E(vib)   ...       0.28 
freq.     288.51  E(vib)   ...       0.27 
freq.     295.66  E(vib)   ...       0.27 
freq.     300.14  E(vib)   ...       0.26 
freq.     302.74  E(vib)   ...       0.26 
freq.     319.63  E(vib)   ...       0.25 
freq.     322.52  E(vib)   ...       0.25 
freq.     334.96  E(vib)   ...       0.24 
freq.     337.17  E(vib)   ...       0.24 
freq.     340.49  E(vib)   ...       0.23 
freq.     344.02  E(vib)   ...       0.23 
freq.     353.09  E(vib)   ...       0.22 
freq.     368.68  E(vib)   ...       0.21 
freq.     384.29  E(vib)   ...       0.20 
freq.     388.20  E(vib)   ...       0.20 
freq.     393.77  E(vib)   ...       0.20 
freq.     400.09  E(vib)   ...       0.19 
freq.     407.35  E(vib)   ...       0.19 
freq.     411.19  E(vib)   ...       0.19 
freq.     428.40  E(vib)   ...       0.18 
freq.     431.64  E(vib)   ...       0.18 
freq.     434.68  E(vib)   ...       0.17 
freq.     449.14  E(vib)   ...       0.17 
freq.     452.96  E(vib)   ...       0.16 
freq.     470.17  E(vib)   ...       0.16 
freq.     476.08  E(vib)   ...       0.15 
freq.     496.05  E(vib)   ...       0.14 
freq.     503.01  E(vib)   ...       0.14 
freq.     518.87  E(vib)   ...       0.13 
freq.     526.65  E(vib)   ...       0.13 
freq.     547.32  E(vib)   ...       0.12 
freq.     551.47  E(vib)   ...       0.12 
freq.     565.31  E(vib)   ...       0.11 
freq.     573.49  E(vib)   ...       0.11 
freq.     580.08  E(vib)   ...       0.11 
freq.     602.20  E(vib)   ...       0.10 
freq.     609.62  E(vib)   ...       0.10 
freq.     620.03  E(vib)   ...       0.09 
freq.     643.64  E(vib)   ...       0.09 
freq.     670.56  E(vib)   ...       0.08 
freq.     678.14  E(vib)   ...       0.08 
freq.     697.41  E(vib)   ...       0.07 
freq.     703.27  E(vib)   ...       0.07 
freq.     710.62  E(vib)   ...       0.07 
freq.     712.30  E(vib)   ...       0.07 
freq.     715.81  E(vib)   ...       0.07 
freq.     717.21  E(vib)   ...       0.07 
freq.     723.40  E(vib)   ...       0.07 
freq.     724.44  E(vib)   ...       0.06 
freq.     737.51  E(vib)   ...       0.06 
freq.     746.56  E(vib)   ...       0.06 
freq.     752.52  E(vib)   ...       0.06 
freq.     754.88  E(vib)   ...       0.06 
freq.     773.73  E(vib)   ...       0.05 
freq.     783.47  E(vib)   ...       0.05 
freq.     793.95  E(vib)   ...       0.05 
freq.     812.08  E(vib)   ...       0.05 
freq.     815.96  E(vib)   ...       0.05 
freq.     825.18  E(vib)   ...       0.04 
freq.     835.10  E(vib)   ...       0.04 
freq.     842.16  E(vib)   ...       0.04 
freq.     854.67  E(vib)   ...       0.04 
freq.     857.69  E(vib)   ...       0.04 
freq.     863.73  E(vib)   ...       0.04 
freq.     868.84  E(vib)   ...       0.04 
freq.     872.79  E(vib)   ...       0.04 
freq.     877.39  E(vib)   ...       0.04 
freq.     885.59  E(vib)   ...       0.04 
freq.     900.08  E(vib)   ...       0.03 
freq.     902.80  E(vib)   ...       0.03 
freq.     904.72  E(vib)   ...       0.03 
freq.     907.41  E(vib)   ...       0.03 
freq.     908.57  E(vib)   ...       0.03 
freq.     913.43  E(vib)   ...       0.03 
freq.     922.85  E(vib)   ...       0.03 
freq.     927.49  E(vib)   ...       0.03 
freq.     927.59  E(vib)   ...       0.03 
freq.     934.31  E(vib)   ...       0.03 
freq.     939.78  E(vib)   ...       0.03 
freq.     943.03  E(vib)   ...       0.03 
freq.     950.40  E(vib)   ...       0.03 
freq.     960.58  E(vib)   ...       0.03 
freq.     962.71  E(vib)   ...       0.03 
freq.     972.72  E(vib)   ...       0.03 
freq.     975.63  E(vib)   ...       0.03 
freq.     982.66  E(vib)   ...       0.02 
freq.     999.94  E(vib)   ...       0.02 
freq.    1004.43  E(vib)   ...       0.02 
freq.    1010.38  E(vib)   ...       0.02 
freq.    1019.88  E(vib)   ...       0.02 
freq.    1020.86  E(vib)   ...       0.02 
freq.    1023.87  E(vib)   ...       0.02 
freq.    1026.82  E(vib)   ...       0.02 
freq.    1032.50  E(vib)   ...       0.02 
freq.    1041.58  E(vib)   ...       0.02 
freq.    1045.16  E(vib)   ...       0.02 
freq.    1047.54  E(vib)   ...       0.02 
freq.    1050.62  E(vib)   ...       0.02 
freq.    1052.67  E(vib)   ...       0.02 
freq.    1059.98  E(vib)   ...       0.02 
freq.    1062.51  E(vib)   ...       0.02 
freq.    1069.59  E(vib)   ...       0.02 
freq.    1071.09  E(vib)   ...       0.02 
freq.    1080.51  E(vib)   ...       0.02 
freq.    1082.38  E(vib)   ...       0.02 
freq.    1085.40  E(vib)   ...       0.02 
freq.    1093.09  E(vib)   ...       0.02 
freq.    1106.00  E(vib)   ...       0.02 
freq.    1106.37  E(vib)   ...       0.02 
freq.    1118.12  E(vib)   ...       0.01 
freq.    1118.97  E(vib)   ...       0.01 
freq.    1119.75  E(vib)   ...       0.01 
freq.    1131.68  E(vib)   ...       0.01 
freq.    1134.86  E(vib)   ...       0.01 
freq.    1140.52  E(vib)   ...       0.01 
freq.    1152.50  E(vib)   ...       0.01 
freq.    1156.19  E(vib)   ...       0.01 
freq.    1159.15  E(vib)   ...       0.01 
freq.    1163.43  E(vib)   ...       0.01 
freq.    1164.08  E(vib)   ...       0.01 
freq.    1166.62  E(vib)   ...       0.01 
freq.    1176.53  E(vib)   ...       0.01 
freq.    1185.84  E(vib)   ...       0.01 
freq.    1204.53  E(vib)   ...       0.01 
freq.    1209.64  E(vib)   ...       0.01 
freq.    1210.50  E(vib)   ...       0.01 
freq.    1213.84  E(vib)   ...       0.01 
freq.    1216.50  E(vib)   ...       0.01 
freq.    1218.77  E(vib)   ...       0.01 
freq.    1225.01  E(vib)   ...       0.01 
freq.    1228.46  E(vib)   ...       0.01 
freq.    1237.23  E(vib)   ...       0.01 
freq.    1241.04  E(vib)   ...       0.01 
freq.    1242.95  E(vib)   ...       0.01 
freq.    1244.58  E(vib)   ...       0.01 
freq.    1250.26  E(vib)   ...       0.01 
freq.    1251.38  E(vib)   ...       0.01 
freq.    1254.51  E(vib)   ...       0.01 
freq.    1260.70  E(vib)   ...       0.01 
freq.    1270.04  E(vib)   ...       0.01 
freq.    1275.03  E(vib)   ...       0.01 
freq.    1280.01  E(vib)   ...       0.01 
freq.    1282.52  E(vib)   ...       0.01 
freq.    1283.43  E(vib)   ...       0.01 
freq.    1284.33  E(vib)   ...       0.01 
freq.    1285.74  E(vib)   ...       0.01 
freq.    1290.18  E(vib)   ...       0.01 
freq.    1294.47  E(vib)   ...       0.01 
freq.    1297.85  E(vib)   ...       0.01 
freq.    1298.94  E(vib)   ...       0.01 
freq.    1301.71  E(vib)   ...       0.01 
freq.    1303.49  E(vib)   ...       0.01 
freq.    1304.37  E(vib)   ...       0.01 
freq.    1305.68  E(vib)   ...       0.01 
freq.    1310.66  E(vib)   ...       0.01 
freq.    1315.29  E(vib)   ...       0.01 
freq.    1317.66  E(vib)   ...       0.01 
freq.    1318.97  E(vib)   ...       0.01 
freq.    1322.40  E(vib)   ...       0.01 
freq.    1323.42  E(vib)   ...       0.01 
freq.    1325.39  E(vib)   ...       0.01 
freq.    1334.52  E(vib)   ...       0.01 
freq.    1335.06  E(vib)   ...       0.01 
freq.    1339.83  E(vib)   ...       0.01 
freq.    1346.67  E(vib)   ...       0.01 
freq.    1346.72  E(vib)   ...       0.01 
freq.    1349.12  E(vib)   ...       0.01 
freq.    1350.57  E(vib)   ...       0.01 
freq.    1353.56  E(vib)   ...       0.01 
freq.    1354.58  E(vib)   ...       0.01 
freq.    1360.34  E(vib)   ...       0.01 
freq.    1362.64  E(vib)   ...       0.01 
freq.    1363.74  E(vib)   ...       0.01 
freq.    1364.21  E(vib)   ...       0.01 
freq.    1373.56  E(vib)   ...       0.01 
freq.    1374.85  E(vib)   ...       0.01 
freq.    1382.54  E(vib)   ...       0.01 
freq.    1391.91  E(vib)   ...       0.00 
freq.    1407.05  E(vib)   ...       0.00 
freq.    1424.09  E(vib)   ...       0.00 
freq.    1427.97  E(vib)   ...       0.00 
freq.    1428.37  E(vib)   ...       0.00 
freq.    1433.01  E(vib)   ...       0.00 
freq.    1433.28  E(vib)   ...       0.00 
freq.    1435.17  E(vib)   ...       0.00 
freq.    1435.56  E(vib)   ...       0.00 
freq.    1437.48  E(vib)   ...       0.00 
freq.    1438.59  E(vib)   ...       0.00 
freq.    1440.91  E(vib)   ...       0.00 
freq.    1443.14  E(vib)   ...       0.00 
freq.    1443.45  E(vib)   ...       0.00 
freq.    1444.02  E(vib)   ...       0.00 
freq.    1445.82  E(vib)   ...       0.00 
freq.    1446.16  E(vib)   ...       0.00 
freq.    1450.40  E(vib)   ...       0.00 
freq.    1450.92  E(vib)   ...       0.00 
freq.    1450.98  E(vib)   ...       0.00 
freq.    1453.00  E(vib)   ...       0.00 
freq.    1455.72  E(vib)   ...       0.00 
freq.    1456.74  E(vib)   ...       0.00 
freq.    1458.81  E(vib)   ...       0.00 
freq.    1458.96  E(vib)   ...       0.00 
freq.    1460.54  E(vib)   ...       0.00 
freq.    1461.66  E(vib)   ...       0.00 
freq.    1463.57  E(vib)   ...       0.00 
freq.    1464.49  E(vib)   ...       0.00 
freq.    1470.59  E(vib)   ...       0.00 
freq.    1488.99  E(vib)   ...       0.00 
freq.    1500.65  E(vib)   ...       0.00 
freq.    1512.71  E(vib)   ...       0.00 
freq.    1526.56  E(vib)   ...       0.00 
freq.    1630.53  E(vib)   ...       0.00 
freq.    1638.24  E(vib)   ...       0.00 
freq.    1651.12  E(vib)   ...       0.00 
freq.    1655.60  E(vib)   ...       0.00 
freq.    1681.44  E(vib)   ...       0.00 
freq.    1696.72  E(vib)   ...       0.00 
freq.    1710.34  E(vib)   ...       0.00 
freq.    2924.47  E(vib)   ...       0.00 
freq.    2925.58  E(vib)   ...       0.00 
freq.    2928.62  E(vib)   ...       0.00 
freq.    2931.53  E(vib)   ...       0.00 
freq.    2932.49  E(vib)   ...       0.00 
freq.    2936.22  E(vib)   ...       0.00 
freq.    2940.92  E(vib)   ...       0.00 
freq.    2942.57  E(vib)   ...       0.00 
freq.    2944.26  E(vib)   ...       0.00 
freq.    2949.51  E(vib)   ...       0.00 
freq.    2950.68  E(vib)   ...       0.00 
freq.    2953.39  E(vib)   ...       0.00 
freq.    2953.65  E(vib)   ...       0.00 
freq.    2953.85  E(vib)   ...       0.00 
freq.    2954.63  E(vib)   ...       0.00 
freq.    2956.47  E(vib)   ...       0.00 
freq.    2956.68  E(vib)   ...       0.00 
freq.    2958.65  E(vib)   ...       0.00 
freq.    2960.49  E(vib)   ...       0.00 
freq.    2962.09  E(vib)   ...       0.00 
freq.    2966.91  E(vib)   ...       0.00 
freq.    2968.52  E(vib)   ...       0.00 
freq.    2969.39  E(vib)   ...       0.00 
freq.    2973.02  E(vib)   ...       0.00 
freq.    2973.21  E(vib)   ...       0.00 
freq.    2973.67  E(vib)   ...       0.00 
freq.    2975.19  E(vib)   ...       0.00 
freq.    2979.04  E(vib)   ...       0.00 
freq.    2983.34  E(vib)   ...       0.00 
freq.    2984.71  E(vib)   ...       0.00 
freq.    2988.46  E(vib)   ...       0.00 
freq.    2990.01  E(vib)   ...       0.00 
freq.    2990.58  E(vib)   ...       0.00 
freq.    2991.24  E(vib)   ...       0.00 
freq.    2998.97  E(vib)   ...       0.00 
freq.    3001.91  E(vib)   ...       0.00 
freq.    3004.74  E(vib)   ...       0.00 
freq.    3007.34  E(vib)   ...       0.00 
freq.    3011.66  E(vib)   ...       0.00 
freq.    3015.63  E(vib)   ...       0.00 
freq.    3018.63  E(vib)   ...       0.00 
freq.    3020.16  E(vib)   ...       0.00 
freq.    3024.30  E(vib)   ...       0.00 
freq.    3025.91  E(vib)   ...       0.00 
freq.    3027.04  E(vib)   ...       0.00 
freq.    3027.70  E(vib)   ...       0.00 
freq.    3029.74  E(vib)   ...       0.00 
freq.    3031.76  E(vib)   ...       0.00 
freq.    3033.53  E(vib)   ...       0.00 
freq.    3033.93  E(vib)   ...       0.00 
freq.    3037.96  E(vib)   ...       0.00 
freq.    3040.43  E(vib)   ...       0.00 
freq.    3045.91  E(vib)   ...       0.00 
freq.    3047.56  E(vib)   ...       0.00 
freq.    3061.78  E(vib)   ...       0.00 
freq.    3064.60  E(vib)   ...       0.00 
freq.    3064.97  E(vib)   ...       0.00 
freq.    3066.32  E(vib)   ...       0.00 
freq.    3307.58  E(vib)   ...       0.00 
freq.    3353.59  E(vib)   ...       0.00 
freq.    3377.62  E(vib)   ...       0.00 
freq.    3390.82  E(vib)   ...       0.00 
freq.    3410.75  E(vib)   ...       0.00 
freq.    3648.78  E(vib)   ...       0.00 

------------
INNER ENERGY
------------

The inner energy is: U= E(el) + E(ZPE) + E(vib) + E(rot) + E(trans)
    E(el)   - is the total energy from the electronic structure calculation
              = E(kin-el) + E(nuc-el) + E(el-el) + E(nuc-nuc)
    E(ZPE)  - the the zero temperature vibrational energy from the frequency calculation
    E(vib)  - the the finite temperature correction to E(ZPE) due to population
              of excited vibrational states
    E(rot)  - is the rotational thermal energy
    E(trans)- is the translational thermal energy

Summary of contributions to the inner energy U:
Electronic energy                ...  -2380.08737521 Eh
Zero point energy                ...      0.97744321 Eh     613.35 kcal/mol
Thermal vibrational correction   ...      0.05574833 Eh      34.98 kcal/mol
Thermal rotational correction    ...      0.00141627 Eh       0.89 kcal/mol
Thermal translational correction ...      0.00141627 Eh       0.89 kcal/mol
-----------------------------------------------------------------------
Total thermal energy                  -2379.05135112 Eh


Summary of corrections to the electronic energy:
(perhaps to be used in another calculation)
Total thermal correction                  0.05858087 Eh      36.76 kcal/mol
Non-thermal (ZPE) correction              0.97744321 Eh     613.35 kcal/mol
-----------------------------------------------------------------------
Total correction                          1.03602409 Eh     650.11 kcal/mol


--------
ENTHALPY
--------

The enthalpy is H = U + kB*T
                kB is Boltzmann's constant
Total free energy                 ...  -2379.05135112 Eh 
Thermal Enthalpy correction       ...      0.00094421 Eh       0.59 kcal/mol
-----------------------------------------------------------------------
Total Enthalpy                    ...  -2379.05040691 Eh


Note: Only C1 symmetry has been detected, increase convergence thresholds 
      if your molecule has a higher symmetry. Symmetry factor of 1.0 is   
      used for the rotational entropy correction. 
 

Note: Rotational entropy computed according to Herzberg 
Infrared and Raman Spectra, Chapter V,1, Van Nostrand Reinhold, 1945 
Point Group:  C1, Symmetry Number:   1  
Rotational constants in cm-1:     0.002363     0.001075     0.000971 

Vibrational entropy computed according to the QRRHO of S. Grimme
Chem.Eur.J. 2012 18 9955


-------
ENTROPY
-------

The entropy contributions are T*S = T*(S(el)+S(vib)+S(rot)+S(trans))
     S(el)   - electronic entropy
     S(vib)  - vibrational entropy
     S(rot)  - rotational entropy
     S(trans)- translational entropy
The entropies will be listed as mutliplied by the temperature to get
units of energy

Electronic entropy                ...      0.00000000 Eh      0.00 kcal/mol
Vibrational entropy               ...      0.10287131 Eh     64.55 kcal/mol
Rotational entropy                ...      0.01886792 Eh     11.84 kcal/mol
Translational entropy             ...      0.02166895 Eh     13.60 kcal/mol
-----------------------------------------------------------------------
Final entropy term                ...      0.14340818 Eh     89.99 kcal/mol

In case the symmetry of your molecule has not been determined correctly
or in case you have a reason to use a different symmetry number we print 
out the resulting rotational entropy values for sn=1,12 :
 --------------------------------------------------------
|  sn= 1 | S(rot)=       0.01886792 Eh     11.84 kcal/mol|
|  sn= 2 | S(rot)=       0.01821346 Eh     11.43 kcal/mol|
|  sn= 3 | S(rot)=       0.01783063 Eh     11.19 kcal/mol|
|  sn= 4 | S(rot)=       0.01755900 Eh     11.02 kcal/mol|
|  sn= 5 | S(rot)=       0.01734832 Eh     10.89 kcal/mol|
|  sn= 6 | S(rot)=       0.01717617 Eh     10.78 kcal/mol|
|  sn= 7 | S(rot)=       0.01703063 Eh     10.69 kcal/mol|
|  sn= 8 | S(rot)=       0.01690455 Eh     10.61 kcal/mol|
|  sn= 9 | S(rot)=       0.01679334 Eh     10.54 kcal/mol|
|  sn=10 | S(rot)=       0.01669386 Eh     10.48 kcal/mol|
|  sn=11 | S(rot)=       0.01660387 Eh     10.42 kcal/mol|
|  sn=12 | S(rot)=       0.01652171 Eh     10.37 kcal/mol|
 --------------------------------------------------------


-------------------
GIBBS FREE ENERGY
-------------------

The Gibbs free energy is G = H - T*S

Total enthalpy                    ...  -2379.05040691 Eh 
Total entropy correction          ...     -0.14340818 Eh    -89.99 kcal/mol
-----------------------------------------------------------------------
Final Gibbs free energy         ...  -2379.19381509 Eh

For completeness - the Gibbs free energy minus the electronic energy
G-E(el)                           ...      0.89356012 Eh    560.72 kcal/mol

--------------------------------------------------------------------------
WARNING: No preset parameters were found for the device that Open MPI
detected:

  Local host:            eu-g1-020-1
  Device name:           mlx5_0
  Device vendor ID:      0x02c9
  Device vendor part ID: 4123

Default device parameters will be used, which may result in lower
performance.  You can edit any of the files specified by the
btl_openib_device_param_files MCA parameter to set values for your
device.

NOTE: You can turn off this warning by setting the MCA parameter
      btl_openib_warn_no_device_params_found to 0.
--------------------------------------------------------------------------
--------------------------------------------------------------------------
WARNING: There was an error initializing an OpenFabrics device.

  Local host:   eu-g1-020-1
  Local device: mlx5_0
--------------------------------------------------------------------------

Timings for individual modules:

Sum of individual times         ...    25768.687 sec (= 429.478 min)
GTO integral calculation        ...       13.789 sec (=   0.230 min)   0.1 %
SCF iterations                  ...      375.963 sec (=   6.266 min)   1.5 %
SCF Gradient evaluation         ...       72.416 sec (=   1.207 min)   0.3 %
Geometry relaxation             ...        4.188 sec (=   0.070 min)   0.0 %
Analytical frequency calculation...    25302.331 sec (= 421.706 min)  98.2 %
                             ****ORCA TERMINATED NORMALLY****
TOTAL RUN TIME: 0 days 7 hours 9 minutes 47 seconds 292 msec
