
                                 *****************
                                 * O   R   C   A *
                                 *****************

           --- An Ab Initio, DFT and Semiempirical electronic structure package ---

                  #######################################################
                  #                        -***-                        #
                  #          Department of theory and spectroscopy      #
                  #               Directorship: Frank Neese             #
                  #        Max Planck Institute fuer Kohlenforschung    #
                  #                Kaiser Wilhelm Platz 1               #
                  #                 D-45470 Muelheim/Ruhr               #
                  #                      Germany                        #
                  #                                                     #
                  #                  All rights reserved                #
                  #                        -***-                        #
                  #######################################################


                         Program Version 4.2.0 -  RELEASE  -


 With contributions from (in alphabetic order):
   Daniel Aravena         : Magnetic Suceptibility
   Michael Atanasov       : Ab Initio Ligand Field Theory (pilot matlab implementation)
   Alexander A. Auer      : GIAO ZORA, VPT2
   Ute Becker             : Parallelization
   Giovanni Bistoni       : ED, misc. LED, open-shell LED, HFLED
   Martin Brehm           : Molecular dynamics
   Dmytro Bykov           : SCF Hessian
   Vijay G. Chilkuri      : MRCI spin determinant printing, contributions to CSF-ICE
   Dipayan Datta          : RHF DLPNO-CCSD density
   Achintya Kumar Dutta   : EOM-CC, STEOM-CC
   Dmitry Ganyushin       : Spin-Orbit,Spin-Spin,Magnetic field MRCI
   Miquel Garcia          : C-PCM Hessian, Gaussian charge scheme
   Yang Guo               : DLPNO-NEVPT2, CIM, IAO-localization
   Andreas Hansen         : Spin unrestricted coupled pair/coupled cluster methods
   Benjamin Helmich-Paris : CASSCF linear response (MC-RPA)
   Lee Huntington         : MR-EOM, pCC
   Robert Izsak           : Overlap fitted RIJCOSX, COSX-SCS-MP3, EOM
   Christian Kollmar      : KDIIS, OOCD, Brueckner-CCSD(T), CCSD density
   Simone Kossmann        : Meta GGA functionals, TD-DFT gradient, OOMP2, MP2 Hessian
   Martin Krupicka        : AUTO-CI
   Lucas Lang             : DCDCAS
   Dagmar Lenk            : GEPOL surface, SMD
   Dimitrios Liakos       : Extrapolation schemes; Compound Job, initial MDCI parallelization
   Dimitrios Manganas     : Further ROCIS development; embedding schemes
   Dimitrios Pantazis     : SARC Basis sets
   Taras Petrenko         : DFT Hessian,TD-DFT gradient, ASA, ECA, R-Raman, ABS, FL, XAS/XES, NRVS
   Peter Pinski           : DLPNO-MP2, DLPNO-MP2 Gradient
   Christoph Reimann      : Effective Core Potentials
   Marius Retegan         : Local ZFS, SOC
   Christoph Riplinger    : Optimizer, TS searches, QM/MM, DLPNO-CCSD(T), (RO)-DLPNO pert. Triples
   Tobias Risthaus        : Range-separated hybrids, TD-DFT gradient, RPA, STAB
   Michael Roemelt        : Original ROCIS implementation
   Masaaki Saitow         : Open-shell DLPNO-CCSD energy and density
   Barbara Sandhoefer     : DKH picture change effects
   Avijit Sen             : IP-ROCIS
   Kantharuban Sivalingam : CASSCF convergence, NEVPT2, FIC-MRCI
   Bernardo de Souza      : ESD, SOC TD-DFT
   Georgi Stoychev        : AutoAux, RI-MP2 NMR
   Willem Van den Heuvel  : Paramagnetic NMR
   Boris Wezisla          : Elementary symmetry handling
   Frank Wennmohs         : Technical directorship


 We gratefully acknowledge several colleagues who have allowed us to
 interface, adapt or use parts of their codes:
   Stefan Grimme, W. Hujo, H. Kruse,             : VdW corrections, initial TS optimization,
                  C. Bannwarth                     DFT functionals, gCP, sTDA/sTD-DF
   Ed Valeev, F. Pavosevic, A. Kumar             : LibInt (2-el integral package), F12 methods
   Garnet Chan, S. Sharma, J. Yang, R. Olivares  : DMRG
   Ulf Ekstrom                                   : XCFun DFT Library
   Mihaly Kallay                                 : mrcc  (arbitrary order and MRCC methods)
   Andreas Klamt, Michael Diedenhofen            : otool_cosmo (COSMO solvation model)
   Jiri Pittner, Ondrej Demel                    : Mk-CCSD
   Frank Weinhold                                : gennbo (NPA and NBO analysis)
   Christopher J. Cramer and Donald G. Truhlar   : smd solvation model
   Lars Goerigk                                  : TD-DFT with DH, B97 family of functionals
   V. Asgeirsson, H. Jonsson                     : NEB implementation
   FAccTs GmbH                                   : IRC, NEB, NEB-TS, Multilevel, MM, QM/MM, CI optimization
   S Lehtola, MJT Oliveira, MAL Marques          : LibXC Library


 Your calculation uses the libint2 library for the computation of 2-el integrals
 For citations please refer to: http://libint.valeyev.net

 Your ORCA version has been built with support for libXC version: 4.2.3
 For citations please refer to: https://tddft.org/programs/libxc/

 This ORCA versions uses:
   CBLAS   interface :  Fast vector & matrix operations
   LAPACKE interface :  Fast linear algebra routines
   SCALAPACK package :  Parallel linear algebra routines




***************************************
The coordinates will be read from file: 47.xyz
***************************************


Your calculation utilizes the atom-pairwise dispersion correction
with the Becke-Johnson damping scheme (D3BJ)
Cite in your paper:
S.Grimme, S.Ehrlich, L.Goerigk, J Comput Chem, (2011), 32, 1456–1465 
S.Grimme, J.Antony, S.Ehrlich and H.Krieg, J.Chem.Phys., 132, (2010), 154104 
   

----- Orbital basis set information -----
Your calculation utilizes the basis: def2-TZVP
   F. Weigend and R. Ahlrichs, Phys. Chem. Chem. Phys. 7, 3297 (2005).

----- AuxJ basis set information -----
Your calculation utilizes the auxiliary basis: def2/J
   F. Weigend, Phys. Chem. Chem. Phys. 8, 1057 (2006).

================================================================================
                                        WARNINGS
                       Please study these warnings very carefully!
================================================================================


WARNING: Geometry Optimization
  ===> : Switching off AutoStart
         For restart on a previous wavefunction, please use MOREAD

INFO   : the flag for use of LIBINT has been found!

================================================================================
                                       INPUT FILE
================================================================================
NAME = 47.inp
|  1> !RI BP86 def2-tzvp def2/J D3BJ TIGHTSCF TightOpt Grid5 FinalGrid6 freq
|  2> %maxcore 4000
|  3> %pal nprocs 24
|  4> end
|  5> * xyzfile 0 1 47.xyz 
|  6> 
|  7>                          ****END OF INPUT****
================================================================================

                       *****************************
                       * Geometry Optimization Run *
                       *****************************

Geometry optimization settings:
Update method            Update   .... BFGS
Choice of coordinates    CoordSys .... Z-matrix Internals
Initial Hessian          InHess   .... Almoef's Model

Convergence Tolerances:
Energy Change            TolE     ....  1.0000e-06 Eh
Max. Gradient            TolMAXG  ....  1.0000e-04 Eh/bohr
RMS Gradient             TolRMSG  ....  3.0000e-05 Eh/bohr
Max. Displacement        TolMAXD  ....  1.0000e-03 bohr
RMS Displacement         TolRMSD  ....  6.0000e-04 bohr
Strict Convergence                ....  False
------------------------------------------------------------------------------
                        ORCA OPTIMIZATION COORDINATE SETUP
------------------------------------------------------------------------------

The optimization will be done in new redundant internal coordinates
Making redundant internal coordinates   ...  (new redundants) done
Evaluating the initial hessian          ...  (Almloef) done
Evaluating the coordinates              ...  done
Calculating the B-matrix                .... done
Calculating the G-matrix                .... done
Diagonalizing the G-matrix              .... done
Small eigenvalue found = 1.155e-03
Small eigenvalue found = 2.426e-03
Small eigenvalue found = 3.198e-03
Small eigenvalue found = 4.241e-03
Small eigenvalue found = 5.520e-03
Small eigenvalue found = 6.483e-03
Small eigenvalue found = 6.784e-03
Small eigenvalue found = 9.350e-03
Small eigenvalue found = 1.099e-02
Small eigenvalue found = 1.344e-02
Small eigenvalue found = 1.394e-02
Small eigenvalue found = 1.494e-02
Small eigenvalue found = 1.594e-02
Small eigenvalue found = 1.899e-02
Small eigenvalue found = 2.087e-02
Small eigenvalue found = 2.258e-02
Small eigenvalue found = 2.457e-02
Small eigenvalue found = 2.837e-02
The first mode is                       ....  328
The number of degrees of freedom        ....  339

    -----------------------------------------------------------------
                    Redundant Internal Coordinates


    -----------------------------------------------------------------
         Definition                    Initial Value    Approx d2E/dq
    -----------------------------------------------------------------
      1. B(C   1,O   0)                  1.2275         1.016533   
      2. B(C   2,C   1)                  1.5303         0.373227   
      3. B(C   3,C   2)                  1.5424         0.356981   
      4. B(C   4,C   3)                  1.5332         0.369262   
      5. B(C   5,C   4)                  1.5308         0.372473   
      6. B(N   6,C   2)                  1.4751         0.409336   
      7. B(N   6,C   5)                  1.4813         0.400149   
      8. B(C   7,N   6)                  1.3591         0.626969   
      9. B(O   8,C   7)                  1.2443         0.955811   
     10. B(N   9,C   1)                  1.3685         0.605671   
     11. B(C  10,N   9)                  1.4518         0.445979   
     12. B(C  11,C  10)                  1.5399         0.360290   
     13. B(N  12,C  11)                  1.3482         0.652501   
     14. B(C  13,N  12)                  1.4621         0.429352   
     15. B(C  14,C  13)                  1.5450         0.353568   
     16. B(N  15,C  14)                  1.3520         0.643335   
     17. B(C  16,N  15)                  1.4550         0.440767   
     18. B(C  17,C  16)                  1.5455         0.352903   
     19. B(C  18,C  17)                  1.5448         0.353771   
     20. B(C  19,C  18)                  1.5239         0.382021   
     21. B(N  20,C  19)                  1.3582         0.628969   
     22. B(C  21,N  20)                  1.4548         0.440991   
     23. B(C  22,C  21)                  1.5376         0.363290   
     24. B(N  23,C  22)                  1.3656         0.612013   
     25. B(C  24,N  23)                  1.4676         0.420791   
     26. B(C  24,C   7)                  1.5365         0.364778   
     27. B(C  25,C  24)                  1.5242         0.381561   
     28. B(O  26,C  22)                  1.2346         0.990489   
     29. B(C  27,C  21)                  1.5402         0.359825   
     30. B(C  28,C  27)                  1.5384         0.362183   
     31. B(C  29,C  28)                  1.5331         0.369277   
     32. B(C  30,C  28)                  1.5320         0.370827   
     33. B(O  31,C  19)                  1.2389         0.975027   
     34. B(C  32,C  18)                  1.5441         0.354740   
     35. B(C  33,C  32)                  1.5163         0.392857   
     36. B(C  34,C  33)                  1.5420         0.357432   
     37. B(C  35,C  34)                  1.5330         0.369459   
     38. B(C  36,C  35)                  1.5376         0.363223   
     39. B(C  37,C  36)                  1.5349         0.366959   
     40. B(C  38,C  37)                  1.5313         0.371795   
     41. B(C  39,C  38)                  1.5314         0.371658   
     42. B(C  40,C  39)                  1.5300         0.373602   
     43. B(C  41,C  40)                  1.5292         0.374742   
     44. B(O  42,C  32)                  1.2205         1.042894   
     45. B(O  43,C  17)                  1.4174         0.505954   
     46. B(O  44,C  14)                  1.2389         0.975028   
     47. B(C  45,C  13)                  1.5368         0.364388   
     48. B(C  46,C  45)                  1.5304         0.373037   
     49. B(O  47,C  11)                  1.2423         0.962939   
     50. B(C  48,C  10)                  1.5400         0.360101   
     51. B(C  49,C  48)                  1.5304         0.372960   
     52. B(C  50,C  48)                  1.5286         0.375545   
     53. B(H  51,C   2)                  1.1000         0.347102   
     54. B(H  52,C   3)                  1.0954         0.352992   
     55. B(H  53,C   3)                  1.1008         0.346084   
     56. B(H  54,C   4)                  1.0972         0.350754   
     57. B(H  55,C   4)                  1.1004         0.346541   
     58. B(H  56,C   5)                  1.0990         0.348411   
     59. B(H  57,C   5)                  1.0955         0.352890   
     60. B(H  58,N   9)                  1.0178         0.420524   
     61. B(H  59,C  10)                  1.1048         0.340988   
     62. B(H  60,N  12)                  1.0277         0.405482   
     63. B(H  61,C  13)                  1.1005         0.346423   
     64. B(H  62,N  15)                  1.0158         0.423541   
     65. B(H  63,C  16)                  1.0995         0.347777   
     66. B(H  64,C  16)                  1.0966         0.351531   
     67. B(H  65,C  17)                  1.1025         0.343903   
     68. B(H  66,C  18)                  1.1058         0.339805   
     69. B(H  67,N  20)                  1.0165         0.422461   
     70. B(H  68,C  21)                  1.1028         0.343502   
     71. B(H  69,O  44)                  1.8578         0.019215   
     72. B(H  69,N  23)                  1.0325         0.398322   
     73. B(H  70,C  24)                  1.0980         0.349624   
     74. B(H  71,C  25)                  1.0975         0.350284   
     75. B(H  72,C  25)                  1.0984         0.349134   
     76. B(H  73,C  25)                  1.0962         0.351944   
     77. B(H  74,C  27)                  1.1014         0.345275   
     78. B(H  75,C  27)                  1.1015         0.345171   
     79. B(H  76,C  28)                  1.1019         0.344745   
     80. B(H  77,C  29)                  1.0995         0.347707   
     81. B(H  78,C  29)                  1.1012         0.345539   
     82. B(H  79,C  29)                  1.0998         0.347345   
     83. B(H  80,H  56)                  4.9596         0.000000   
     84. B(H  80,C  30)                  1.1001         0.347033   
     85. B(H  81,C  30)                  1.0999         0.347215   
     86. B(H  82,C  30)                  1.1020         0.344608   
     87. B(H  83,C  33)                  1.0998         0.347424   
     88. B(H  84,C  33)                  1.0987         0.348822   
     89. B(H  85,C  34)                  1.1021         0.344451   
     90. B(H  86,O  47)                  2.2940         0.003870   
     91. B(H  86,C  34)                  1.0997         0.347507   
     92. B(H  87,C  35)                  1.1043         0.341715   
     93. B(H  88,C  35)                  1.1020         0.344550   
     94. B(H  89,C  36)                  1.1019         0.344729   
     95. B(H  90,C  36)                  1.1051         0.340682   
     96. B(H  91,C  37)                  1.1007         0.346166   
     97. B(H  92,C  37)                  1.1038         0.342304   
     98. B(H  93,C  38)                  1.1036         0.342564   
     99. B(H  94,C  38)                  1.1046         0.341353   
    100. B(H  95,C  39)                  1.1037         0.342374   
    101. B(H  96,C  39)                  1.1043         0.341721   
    102. B(H  97,C  40)                  1.1031         0.343126   
    103. B(H  98,C  40)                  1.1040         0.342093   
    104. B(H  99,C  41)                  1.0986         0.348959   
    105. B(H 100,C  41)                  1.1011         0.345713   
    106. B(H 101,O   0)                  3.1295         0.000180   
    107. B(H 101,C  41)                  1.1006         0.346292   
    108. B(H 102,O  43)                  0.9894         0.466685   
    109. B(H 103,H  95)                  2.9321         0.000079   
    110. B(H 103,C  45)                  1.1011         0.345666   
    111. B(H 104,C  45)                  1.1004         0.346606   
    112. B(H 105,C  46)                  1.0983         0.349227   
    113. B(H 106,C  46)                  1.0990         0.348327   
    114. B(H 107,C  46)                  1.1001         0.347044   
    115. B(H 108,H  94)                  2.1894         0.001215   
    116. B(H 108,C  48)                  1.0999         0.347245   
    117. B(H 109,C  49)                  1.0992         0.348183   
    118. B(H 110,C  49)                  1.1002         0.346879   
    119. B(H 111,C  49)                  1.0988         0.348617   
    120. B(H 112,H  67)                  1.8138         0.004828   
    121. B(H 112,C  50)                  1.0974         0.350462   
    122. B(H 113,C  50)                  1.0983         0.349322   
    123. B(H 114,C  50)                  1.1019         0.344677   
    124. A(O   0,C   1,N   9)          123.7345         0.466597   
    125. A(C   2,C   1,N   9)          115.3827         0.392477   
    126. A(O   0,C   1,C   2)          120.8164         0.430214   
    127. A(C   1,C   2,H  51)          105.7042         0.322320   
    128. A(N   6,C   2,H  51)          110.0065         0.325287   
    129. A(C   1,C   2,N   6)          114.2497         0.366724   
    130. A(C   1,C   2,C   3)          111.7470         0.360487   
    131. A(C   3,C   2,H  51)          111.7676         0.319981   
    132. A(C   3,C   2,N   6)          103.5178         0.363941   
    133. A(C   4,C   3,H  53)          110.1707         0.321602   
    134. A(C   4,C   3,H  52)          114.1534         0.322644   
    135. A(C   2,C   3,C   4)          103.4743         0.359832   
    136. A(C   2,C   3,H  53)          109.5724         0.319828   
    137. A(C   2,C   3,H  52)          111.5049         0.320863   
    138. A(H  52,C   3,H  53)          107.8930         0.288133   
    139. A(H  54,C   4,H  55)          108.0748         0.287906   
    140. A(C   3,C   4,H  55)          110.2041         0.321671   
    141. A(C   3,C   4,C   5)          103.2686         0.362449   
    142. A(C   3,C   4,H  54)          113.0982         0.322308   
    143. A(C   5,C   4,H  55)          110.0665         0.322128   
    144. A(C   5,C   4,H  54)          112.0848         0.322766   
    145. A(H  56,C   5,H  57)          107.2488         0.288423   
    146. A(C   4,C   5,N   6)          102.7437         0.365174   
    147. A(C   4,C   5,H  56)          112.4218         0.322412   
    148. A(N   6,C   5,H  57)          110.7393         0.324958   
    149. A(N   6,C   5,H  56)          110.6766         0.324277   
    150. A(C   4,C   5,H  57)          113.0392         0.323088   
    151. A(C   5,N   6,C   7)          128.0673         0.397164   
    152. A(C   2,N   6,C   7)          119.3447         0.398751   
    153. A(C   2,N   6,C   5)          112.1008         0.368815   
    154. A(O   8,C   7,C  24)          121.2483         0.423750   
    155. A(N   6,C   7,O   8)          120.6587         0.464294   
    156. A(N   6,C   7,C  24)          117.8133         0.393280   
    157. A(C   1,N   9,C  10)          121.7945         0.402360   
    158. A(C  10,N   9,H  58)          118.9312         0.337679   
    159. A(C   1,N   9,H  58)          117.4752         0.355517   
    160. A(C  48,C  10,H  59)          107.5618         0.319508   
    161. A(C  11,C  10,H  59)          105.1504         0.319535   
    162. A(N   9,C  10,C  11)          111.6278         0.369914   
    163. A(N   9,C  10,C  48)          113.4143         0.369881   
    164. A(N   9,C  10,H  59)          104.3875         0.328950   
    165. A(C  11,C  10,C  48)          113.7986         0.358859   
    166. A(N  12,C  11,O  47)          122.7329         0.468337   
    167. A(C  10,C  11,O  47)          121.7011         0.423376   
    168. A(C  10,C  11,N  12)          115.4405         0.395182   
    169. A(C  13,N  12,H  60)          116.1339         0.333525   
    170. A(C  11,N  12,C  13)          122.8721         0.404958   
    171. A(C  11,N  12,H  60)          120.8471         0.357822   
    172. A(C  14,C  13,C  45)          117.5793         0.358432   
    173. A(N  12,C  13,H  61)          104.6450         0.327749   
    174. A(C  14,C  13,H  61)          103.6466         0.319377   
    175. A(N  12,C  13,C  14)          109.3838         0.366324   
    176. A(C  45,C  13,H  61)          108.2825         0.320955   
    177. A(N  12,C  13,C  45)          112.1634         0.368222   
    178. A(C  13,C  14,N  15)          117.6654         0.392905   
    179. A(N  15,C  14,O  44)          122.8062         0.468193   
    180. A(C  13,C  14,O  44)          119.5106         0.422895   
    181. A(C  14,N  15,H  62)          116.9614         0.359618   
    182. A(C  16,N  15,H  62)          118.6318         0.337420   
    183. A(C  14,N  15,C  16)          122.8653         0.405824   
    184. A(H  63,C  16,H  64)          108.5858         0.288166   
    185. A(C  17,C  16,H  64)          109.8135         0.320044   
    186. A(N  15,C  16,H  63)          109.8860         0.329383   
    187. A(C  17,C  16,H  63)          107.8895         0.319483   
    188. A(N  15,C  16,C  17)          113.3493         0.367857   
    189. A(N  15,C  16,H  64)          107.2331         0.329968   
    190. A(O  43,C  17,H  65)          106.6151         0.336378   
    191. A(C  18,C  17,H  65)          108.1348         0.319027   
    192. A(C  16,C  17,H  65)          108.0521         0.318899   
    193. A(C  16,C  17,C  18)          112.2051         0.356521   
    194. A(C  18,C  17,O  43)          111.7706         0.376860   
    195. A(C  16,C  17,O  43)          109.8218         0.376700   
    196. A(C  19,C  18,H  66)          110.4274         0.322428   
    197. A(C  17,C  18,H  66)          107.5780         0.318404   
    198. A(C  17,C  18,C  32)          112.5080         0.356835   
    199. A(C  17,C  18,C  19)          110.6445         0.361365   
    200. A(C  19,C  18,C  32)          109.1041         0.361533   
    201. A(C  32,C  18,H  66)          106.4894         0.318546   
    202. A(C  18,C  19,N  20)          115.2441         0.396699   
    203. A(N  20,C  19,O  31)          122.8243         0.466260   
    204. A(C  18,C  19,O  31)          121.9311         0.428795   
    205. A(C  19,N  20,H  67)          116.9724         0.358083   
    206. A(C  19,N  20,C  21)          121.8485         0.404245   
    207. A(C  21,N  20,H  67)          117.4529         0.337305   
    208. A(C  27,C  21,H  68)          109.2228         0.319851   
    209. A(C  22,C  21,H  68)          106.4750         0.320352   
    210. A(N  20,C  21,H  68)          104.6793         0.328738   
    211. A(N  20,C  21,C  22)          111.9033         0.369726   
    212. A(C  22,C  21,C  27)          112.0515         0.359319   
    213. A(N  20,C  21,C  27)          112.0532         0.369118   
    214. A(C  21,C  22,N  23)          116.0620         0.391342   
    215. A(C  21,C  22,O  26)          120.9561         0.426149   
    216. A(N  23,C  22,O  26)          122.9685         0.465271   
    217. A(C  22,N  23,C  24)          120.7620         0.398994   
    218. A(C  24,N  23,H  69)          116.7959         0.331434   
    219. A(C  22,N  23,H  69)          120.4717         0.352886   
    220. A(C  25,C  24,H  70)          111.0302         0.323873   
    221. A(N  23,C  24,H  70)          105.5562         0.327158   
    222. A(C   7,C  24,H  70)          110.2463         0.321494   
    223. A(N  23,C  24,C  25)          111.0035         0.369865   
    224. A(C   7,C  24,N  23)          107.4188         0.367020   
    225. A(C   7,C  24,C  25)          111.3708         0.363185   
    226. A(H  71,C  25,H  73)          108.8101         0.288543   
    227. A(C  24,C  25,H  73)          110.5346         0.324225   
    228. A(H  71,C  25,H  72)          108.8770         0.288182   
    229. A(C  24,C  25,H  72)          110.4194         0.323799   
    230. A(C  24,C  25,H  71)          109.6507         0.323974   
    231. A(H  72,C  25,H  73)          108.5068         0.288395   
    232. A(C  28,C  27,H  75)          109.1008         0.320446   
    233. A(C  21,C  27,C  28)          114.2450         0.359133   
    234. A(H  74,C  27,H  75)          107.5573         0.287021   
    235. A(C  21,C  27,H  75)          107.3803         0.320105   
    236. A(C  28,C  27,H  74)          109.5225         0.320462   
    237. A(C  21,C  27,H  74)          108.8144         0.320120   
    238. A(C  29,C  28,C  30)          110.7487         0.362177   
    239. A(C  27,C  28,C  30)          109.8976         0.360980   
    240. A(C  27,C  28,C  29)          111.2217         0.360723   
    241. A(C  30,C  28,H  76)          108.0749         0.321620   
    242. A(C  29,C  28,H  76)          109.1602         0.321400   
    243. A(C  27,C  28,H  76)          107.6297         0.320382   
    244. A(C  28,C  29,H  79)          110.8667         0.321795   
    245. A(H  78,C  29,H  79)          107.9869         0.287337   
    246. A(H  77,C  29,H  79)          107.6690         0.287618   
    247. A(H  77,C  29,H  78)          107.0608         0.287384   
    248. A(C  28,C  29,H  78)          110.5319         0.321521   
    249. A(C  28,C  29,H  77)          112.5284         0.321850   
    250. A(H  81,C  30,H  82)          107.6347         0.287199   
    251. A(H  80,C  30,H  82)          107.9391         0.287176   
    252. A(C  28,C  30,H  82)          110.7636         0.321599   
    253. A(H  80,C  30,H  81)          107.9734         0.287514   
    254. A(C  28,C  30,H  81)          111.1942         0.321996   
    255. A(C  28,C  30,H  80)          111.1860         0.321969   
    256. A(C  33,C  32,O  42)          121.4661         0.436201   
    257. A(C  18,C  32,O  42)          120.9239         0.428273   
    258. A(C  18,C  32,C  33)          117.3925         0.363264   
    259. A(C  32,C  33,C  34)          109.4217         0.363734   
    260. A(C  34,C  33,H  84)          110.8356         0.320306   
    261. A(H  83,C  33,H  84)          108.2996         0.287772   
    262. A(C  32,C  33,H  84)          107.7511         0.325307   
    263. A(C  34,C  33,H  83)          109.4011         0.320096   
    264. A(C  32,C  33,H  83)          111.1208         0.325092   
    265. A(C  33,C  34,C  35)          114.0783         0.359942   
    266. A(H  85,C  34,H  86)          106.4508         0.287216   
    267. A(C  35,C  34,H  86)          109.1284         0.321846   
    268. A(C  33,C  34,H  86)          109.0052         0.320108   
    269. A(C  35,C  34,H  85)          109.2595         0.321381   
    270. A(C  33,C  34,H  85)          108.6416         0.319647   
    271. A(C  34,C  35,C  36)          111.6943         0.360929   
    272. A(H  87,C  35,H  88)          106.2837         0.286477   
    273. A(C  36,C  35,H  88)          110.4176         0.320502   
    274. A(C  34,C  35,H  88)          109.5728         0.321396   
    275. A(C  36,C  35,H  87)          109.2065         0.320070   
    276. A(C  34,C  35,H  87)          109.5150         0.320962   
    277. A(C  35,C  36,C  37)          112.6396         0.360512   
    278. A(H  89,C  36,H  90)          105.8754         0.286365   
    279. A(C  37,C  36,H  90)          109.2806         0.320447   
    280. A(C  35,C  36,H  90)          108.6222         0.319912   
    281. A(C  37,C  36,H  89)          110.0761         0.321066   
    282. A(C  35,C  36,H  89)          110.1075         0.320529   
    283. A(C  36,C  37,C  38)          114.7499         0.361949   
    284. A(H  91,C  37,H  92)          106.0758         0.286763   
    285. A(C  38,C  37,H  92)          109.8630         0.321383   
    286. A(C  36,C  37,H  92)          109.3375         0.320696   
    287. A(C  38,C  37,H  91)          107.2694         0.321974   
    288. A(C  36,C  37,H  91)          109.1722         0.321285   
    289. A(C  37,C  38,C  39)          112.4380         0.362736   
    290. A(H  93,C  38,H  94)          105.6791         0.286171   
    291. A(C  39,C  38,H  94)          108.5878         0.321218   
    292. A(C  37,C  38,H  94)          108.6901         0.321237   
    293. A(C  39,C  38,H  93)          110.3008         0.321404   
    294. A(C  37,C  38,H  93)          110.8791         0.321424   
    295. A(C  38,C  39,C  40)          114.3550         0.363037   
    296. A(H  95,C  39,H  96)          105.4757         0.286194   
    297. A(C  40,C  39,H  96)          109.5563         0.321549   
    298. A(C  38,C  39,H  96)          109.8048         0.321275   
    299. A(C  40,C  39,H  95)          108.9329         0.321649   
    300. A(C  38,C  39,H  95)          108.3280         0.321375   
    301. A(C  39,C  40,C  41)          112.8018         0.363550   
    302. A(H  97,C  40,H  98)          105.8814         0.286341   
    303. A(C  41,C  40,H  98)          109.0158         0.321767   
    304. A(C  39,C  40,H  98)          109.1564         0.321606   
    305. A(C  41,C  40,H  97)          110.1250         0.321925   
    306. A(C  39,C  40,H  97)          109.6187         0.321765   
    307. A(H 100,C  41,H 101)          107.9705         0.287223   
    308. A(H  99,C  41,H 101)          107.1136         0.287643   
    309. A(C  40,C  41,H 101)          110.7389         0.322410   
    310. A(H  99,C  41,H 100)          108.0079         0.287568   
    311. A(C  40,C  41,H 100)          111.1694         0.322322   
    312. A(C  40,C  41,H  99)          111.6635         0.322816   
    313. A(C  17,O  43,H 102)          103.9720         0.350987   
    314. A(C  13,C  45,C  46)          113.2133         0.361721   
    315. A(C  46,C  45,H 104)          109.5107         0.322217   
    316. A(C  13,C  45,H 104)          106.6571         0.320982   
    317. A(C  46,C  45,H 103)          111.6801         0.322074   
    318. A(C  13,C  45,H 103)          110.1926         0.320840   
    319. A(H 103,C  45,H 104)          105.1468         0.287258   
    320. A(H 106,C  46,H 107)          107.4255         0.287659   
    321. A(H 105,C  46,H 107)          107.6541         0.287775   
    322. A(C  45,C  46,H 107)          110.7955         0.322284   
    323. A(H 105,C  46,H 106)          107.7858         0.287941   
    324. A(C  45,C  46,H 106)          112.2723         0.322479   
    325. A(C  45,C  46,H 105)          110.7159         0.322615   
    326. A(C  50,C  48,H 108)          107.6551         0.322669   
    327. A(C  49,C  48,H 108)          108.8406         0.322304   
    328. A(C  10,C  48,H 108)          105.6049         0.320458   
    329. A(C  49,C  48,C  50)          111.6425         0.363576   
    330. A(C  10,C  48,C  50)          113.0056         0.361404   
    331. A(C  10,C  48,C  49)          109.8154         0.360979   
    332. A(H 110,C  49,H 111)          107.8873         0.287675   
    333. A(H 109,C  49,H 111)          108.2578         0.287844   
    334. A(C  48,C  49,H 111)          110.5973         0.322512   
    335. A(H 109,C  49,H 110)          107.5886         0.287619   
    336. A(C  48,C  49,H 110)          111.0327         0.322248   
    337. A(C  48,C  49,H 109)          111.3384         0.322446   
    338. A(H 113,C  50,H 114)          106.8265         0.287480   
    339. A(H 112,C  50,H 114)          109.7435         0.287626   
    340. A(C  48,C  50,H 114)          112.1220         0.322276   
    341. A(H 112,C  50,H 113)          106.3286         0.288229   
    342. A(C  48,C  50,H 113)          111.0702         0.322984   
    343. A(C  48,C  50,H 112)          110.5253         0.323157   
    344. D(H  51,C   2,C   1,N   9)   -145.3891         0.010419   
    345. D(C   3,C   2,C   1,N   9)     92.8148         0.010419   
    346. D(N   6,C   2,C   1,N   9)    -24.2953         0.010419   
    347. D(N   6,C   2,C   1,O   0)    158.5602         0.010419   
    348. D(C   3,C   2,C   1,O   0)    -84.3297         0.010419   
    349. D(H  51,C   2,C   1,O   0)     37.4664         0.010419   
    350. D(C   4,C   3,C   2,N   6)    -27.9081         0.010236   
    351. D(H  53,C   3,C   2,H  51)   -152.0712         0.010236   
    352. D(H  53,C   3,C   2,C   1)    -33.8372         0.010236   
    353. D(C   4,C   3,C   2,H  51)     90.4441         0.010236   
    354. D(H  53,C   3,C   2,N   6)     89.5766         0.010236   
    355. D(H  52,C   3,C   2,H  51)    -32.6934         0.010236   
    356. D(C   4,C   3,C   2,C   1)   -151.3219         0.010236   
    357. D(H  52,C   3,C   2,C   1)     85.5406         0.010236   
    358. D(H  52,C   3,C   2,N   6)   -151.0456         0.010236   
    359. D(H  55,C   4,C   3,H  53)    164.0483         0.010903   
    360. D(H  55,C   4,C   3,H  52)     42.4842         0.010903   
    361. D(H  54,C   4,C   3,H  52)    -78.6049         0.010903   
    362. D(H  55,C   4,C   3,C   2)    -78.8865         0.010903   
    363. D(H  54,C   4,C   3,H  53)     42.9593         0.010903   
    364. D(C   5,C   4,C   3,C   2)     38.6567         0.010903   
    365. D(H  54,C   4,C   3,C   2)    160.0245         0.010903   
    366. D(C   5,C   4,C   3,H  53)    -78.4085         0.010903   
    367. D(C   5,C   4,C   3,H  52)    160.0273         0.010903   
    368. D(N   6,C   5,C   4,C   3)    -33.9381         0.011082   
    369. D(H  57,C   5,C   4,C   3)   -153.3254         0.011082   
    370. D(H  56,C   5,C   4,H  55)   -157.2903         0.011082   
    371. D(H  56,C   5,C   4,C   3)     85.0700         0.011082   
    372. D(H  57,C   5,C   4,H  54)     84.6243         0.011082   
    373. D(H  56,C   5,C   4,H  54)    -36.9803         0.011082   
    374. D(H  57,C   5,C   4,H  55)    -35.6857         0.011082   
    375. D(N   6,C   5,C   4,H  54)   -155.9884         0.011082   
    376. D(N   6,C   5,C   4,H  55)     83.7016         0.011082   
    377. D(C   5,N   6,C   2,C   3)      6.7877         0.014295   
    378. D(C   7,N   6,C   5,H  57)    -33.7893         0.013671   
    379. D(C   7,N   6,C   5,H  56)     85.0137         0.013671   
    380. D(C   7,N   6,C   5,C   4)   -154.7656         0.013671   
    381. D(C   2,N   6,C   5,H  57)    138.0455         0.013671   
    382. D(C   2,N   6,C   5,H  56)   -103.1514         0.013671   
    383. D(C   7,N   6,C   2,H  51)     59.8510         0.014295   
    384. D(C   2,N   6,C   5,C   4)     17.0692         0.013671   
    385. D(C   7,N   6,C   2,C   3)    179.4177         0.014295   
    386. D(C   5,N   6,C   2,C   1)    128.5393         0.014295   
    387. D(C   7,N   6,C   2,C   1)    -58.8307         0.014295   
    388. D(C   5,N   6,C   2,H  51)   -112.7790         0.014295   
    389. D(C  24,C   7,N   6,C   5)    -16.9041         0.031887   
    390. D(C  24,C   7,N   6,C   2)    171.7785         0.031887   
    391. D(O   8,C   7,N   6,C   5)    169.0961         0.031887   
    392. D(O   8,C   7,N   6,C   2)     -2.2212         0.031887   
    393. D(H  58,N   9,C   1,O   0)   -174.2021         0.029599   
    394. D(C  10,N   9,C   1,C   2)    173.3003         0.029599   
    395. D(H  58,N   9,C   1,C   2)      8.7469         0.029599   
    396. D(C  10,N   9,C   1,O   0)     -9.6486         0.029599   
    397. D(H  59,C  10,N   9,C   1)      3.5075         0.016964   
    398. D(C  48,C  10,N   9,H  58)    -75.3781         0.016964   
    399. D(C  48,C  10,N   9,C   1)    120.2858         0.016964   
    400. D(C  11,C  10,N   9,C   1)   -109.5689         0.016964   
    401. D(H  59,C  10,N   9,H  58)    167.8436         0.016964   
    402. D(C  11,C  10,N   9,H  58)     54.7672         0.016964   
    403. D(O  47,C  11,C  10,N   9)   -150.1285         0.009760   
    404. D(N  12,C  11,C  10,H  59)    -78.7583         0.009760   
    405. D(N  12,C  11,C  10,C  48)    163.7860         0.009760   
    406. D(N  12,C  11,C  10,N   9)     33.8405         0.009760   
    407. D(O  47,C  11,C  10,H  59)     97.2727         0.009760   
    408. D(O  47,C  11,C  10,C  48)    -20.1830         0.009760   
    409. D(H  60,N  12,C  11,O  47)    171.6884         0.034769   
    410. D(H  60,N  12,C  11,C  10)    -12.3260         0.034769   
    411. D(C  13,N  12,C  11,O  47)     -3.7333         0.034769   
    412. D(C  13,N  12,C  11,C  10)    172.2523         0.034769   
    413. D(H  61,C  13,N  12,C  11)    176.4286         0.015717   
    414. D(H  61,C  13,N  12,H  60)      0.8065         0.015717   
    415. D(C  45,C  13,N  12,H  60)    117.9713         0.015717   
    416. D(C  45,C  13,N  12,C  11)    -66.4065         0.015717   
    417. D(C  14,C  13,N  12,C  11)     65.9138         0.015717   
    418. D(C  14,C  13,N  12,H  60)   -109.7084         0.015717   
    419. D(O  44,C  14,C  13,C  45)   -164.4678         0.009429   
    420. D(O  44,C  14,C  13,N  12)     66.1150         0.009429   
    421. D(N  15,C  14,C  13,H  61)    133.4469         0.009429   
    422. D(N  15,C  14,C  13,C  45)     14.0397         0.009429   
    423. D(O  44,C  14,C  13,H  61)    -45.0607         0.009429   
    424. D(N  15,C  14,C  13,N  12)   -115.3774         0.009429   
    425. D(H  62,N  15,C  14,O  44)   -171.1715         0.033717   
    426. D(H  62,N  15,C  14,C  13)     10.3738         0.033717   
    427. D(C  16,N  15,C  14,O  44)     -5.5462         0.033717   
    428. D(C  16,N  15,C  14,C  13)    175.9991         0.033717   
    429. D(H  64,C  16,N  15,H  62)   -178.5906         0.016566   
    430. D(H  64,C  16,N  15,C  14)     16.0117         0.016566   
    431. D(H  63,C  16,N  15,H  62)    -60.7466         0.016566   
    432. D(H  63,C  16,N  15,C  14)    133.8556         0.016566   
    433. D(C  17,C  16,N  15,C  14)   -105.3507         0.016566   
    434. D(C  17,C  16,N  15,H  62)     60.0470         0.016566   
    435. D(H  65,C  17,C  16,H  64)    177.3449         0.010021   
    436. D(H  65,C  17,C  16,H  63)     59.1620         0.010021   
    437. D(H  65,C  17,C  16,N  15)    -62.7528         0.010021   
    438. D(O  43,C  17,C  16,H  64)     61.4217         0.010021   
    439. D(O  43,C  17,C  16,H  63)    -56.7612         0.010021   
    440. D(O  43,C  17,C  16,N  15)   -178.6760         0.010021   
    441. D(C  18,C  17,C  16,H  64)    -63.5356         0.010021   
    442. D(C  18,C  17,C  16,H  63)    178.2815         0.010021   
    443. D(C  18,C  17,C  16,N  15)     56.3667         0.010021   
    444. D(H  66,C  18,C  17,H  65)     58.7763         0.010067   
    445. D(H  66,C  18,C  17,O  43)    175.8283         0.010067   
    446. D(H  66,C  18,C  17,C  16)    -60.2947         0.010067   
    447. D(C  32,C  18,C  17,O  43)     58.8558         0.010067   
    448. D(C  32,C  18,C  17,C  16)   -177.2673         0.010067   
    449. D(C  32,C  18,C  17,H  65)    -58.1963         0.010067   
    450. D(C  19,C  18,C  17,H  65)    179.4798         0.010067   
    451. D(C  19,C  18,C  17,O  43)    -63.4681         0.010067   
    452. D(C  19,C  18,C  17,C  16)     60.4088         0.010067   
    453. D(O  31,C  19,C  18,H  66)    152.2407         0.010883   
    454. D(O  31,C  19,C  18,C  32)    -91.0452         0.010883   
    455. D(O  31,C  19,C  18,C  17)     33.2475         0.010883   
    456. D(N  20,C  19,C  18,H  66)    -28.0187         0.010883   
    457. D(N  20,C  19,C  18,C  17)   -147.0119         0.010883   
    458. D(N  20,C  19,C  18,C  32)     88.6954         0.010883   
    459. D(H  67,N  20,C  19,O  31)    170.5684         0.032107   
    460. D(H  67,N  20,C  19,C  18)     -9.1697         0.032107   
    461. D(C  21,N  20,C  19,O  31)     12.8834         0.032107   
    462. D(C  21,N  20,C  19,C  18)   -166.8546         0.032107   
    463. D(H  68,C  21,N  20,H  67)    177.2318         0.016583   
    464. D(H  68,C  21,N  20,C  19)    -25.1849         0.016583   
    465. D(C  27,C  21,N  20,H  67)    -64.5168         0.016583   
    466. D(C  27,C  21,N  20,C  19)     93.0665         0.016583   
    467. D(C  22,C  21,N  20,H  67)     62.3152         0.016583   
    468. D(C  22,C  21,N  20,C  19)   -140.1015         0.016583   
    469. D(N  23,C  22,C  21,C  27)    157.1545         0.009910   
    470. D(N  23,C  22,C  21,N  20)     30.3215         0.009910   
    471. D(O  26,C  22,C  21,H  68)     95.2164         0.009910   
    472. D(O  26,C  22,C  21,C  27)    -24.1395         0.009910   
    473. D(O  26,C  22,C  21,N  20)   -150.9724         0.009910   
    474. D(N  23,C  22,C  21,H  68)    -83.4897         0.009910   
    475. D(H  69,N  23,C  22,O  26)   -173.9018         0.030270   
    476. D(H  69,N  23,C  22,C  21)      4.7756         0.030270   
    477. D(C  24,N  23,C  22,O  26)    -10.3818         0.030270   
    478. D(C  24,N  23,C  22,C  21)    168.2956         0.030270   
    479. D(H  70,C  24,N  23,H  69)    158.1996         0.015098   
    480. D(H  70,C  24,N  23,C  22)     -5.9033         0.015098   
    481. D(C  25,C  24,N  23,H  69)     37.8087         0.015098   
    482. D(C  25,C  24,N  23,C  22)   -126.2941         0.015098   
    483. D(C   7,C  24,N  23,H  69)    -84.1666         0.015098   
    484. D(C   7,C  24,N  23,C  22)    111.7306         0.015098   
    485. D(H  70,C  24,C   7,O   8)   -157.8204         0.009985   
    486. D(H  70,C  24,C   7,N   6)     28.2171         0.009985   
    487. D(C  25,C  24,C   7,O   8)    -34.1051         0.009985   
    488. D(C  25,C  24,C   7,N   6)    151.9324         0.009985   
    489. D(N  23,C  24,C   7,O   8)     87.6410         0.009985   
    490. D(N  23,C  24,C   7,N   6)    -86.3214         0.009985   
    491. D(H  73,C  25,C  24,H  70)   -176.2492         0.011599   
    492. D(H  73,C  25,C  24,N  23)    -59.1598         0.011599   
    493. D(H  73,C  25,C  24,C   7)     60.4817         0.011599   
    494. D(H  72,C  25,C  24,H  70)     63.6762         0.011599   
    495. D(H  72,C  25,C  24,N  23)   -179.2344         0.011599   
    496. D(H  72,C  25,C  24,C   7)    -59.5930         0.011599   
    497. D(H  71,C  25,C  24,H  70)    -56.2918         0.011599   
    498. D(H  71,C  25,C  24,N  23)     60.7977         0.011599   
    499. D(H  71,C  25,C  24,C   7)   -179.5609         0.011599   
    500. D(H  75,C  27,C  21,H  68)     86.5868         0.010388   
    501. D(H  75,C  27,C  21,C  22)   -155.6843         0.010388   
    502. D(H  75,C  27,C  21,N  20)    -28.9323         0.010388   
    503. D(H  74,C  27,C  21,H  68)   -157.2726         0.010388   
    504. D(H  74,C  27,C  21,C  22)    -39.5437         0.010388   
    505. D(H  74,C  27,C  21,N  20)     87.2084         0.010388   
    506. D(C  28,C  27,C  21,H  68)    -34.5458         0.010388   
    507. D(C  28,C  27,C  21,C  22)     83.1831         0.010388   
    508. D(C  28,C  27,C  21,N  20)   -150.0649         0.010388   
    509. D(H  76,C  28,C  27,H  75)   -169.2667         0.010515   
    510. D(H  76,C  28,C  27,H  74)     73.2500         0.010515   
    511. D(H  76,C  28,C  27,C  21)    -49.0909         0.010515   
    512. D(C  30,C  28,C  27,H  75)     73.2660         0.010515   
    513. D(C  30,C  28,C  27,H  74)    -44.2173         0.010515   
    514. D(C  30,C  28,C  27,C  21)   -166.5582         0.010515   
    515. D(C  29,C  28,C  27,H  75)    -49.7393         0.010515   
    516. D(C  29,C  28,C  27,H  74)   -167.2227         0.010515   
    517. D(C  29,C  28,C  27,C  21)     70.4365         0.010515   
    518. D(H  79,C  29,C  28,C  30)     61.0738         0.010904   
    519. D(H  79,C  29,C  28,C  27)   -176.4108         0.010904   
    520. D(H  78,C  29,C  28,H  76)   -177.5121         0.010904   
    521. D(H  78,C  29,C  28,C  30)    -58.6393         0.010904   
    522. D(H  78,C  29,C  28,C  27)     63.8762         0.010904   
    523. D(H  77,C  29,C  28,H  76)     62.8499         0.010904   
    524. D(H  77,C  29,C  28,C  30)   -178.2772         0.010904   
    525. D(H  79,C  29,C  28,H  76)    -57.7990         0.010904   
    526. D(H  77,C  29,C  28,C  27)    -55.7618         0.010904   
    527. D(H  82,C  30,C  28,H  76)   -177.0673         0.010990   
    528. D(H  82,C  30,C  28,C  29)     63.4057         0.010990   
    529. D(H  82,C  30,C  28,C  27)    -59.8775         0.010990   
    530. D(H  81,C  30,C  28,H  76)     63.2955         0.010990   
    531. D(H  81,C  30,C  28,C  29)    -56.2316         0.010990   
    532. D(H  81,C  30,C  28,C  27)   -179.5148         0.010990   
    533. D(H  80,C  30,C  28,H  76)    -57.0521         0.010990   
    534. D(H  80,C  30,C  28,C  29)   -176.5791         0.010990   
    535. D(H  80,C  30,C  28,C  27)     60.1377         0.010990   
    536. D(O  42,C  32,C  18,H  66)    115.5138         0.009486   
    537. D(O  42,C  32,C  18,C  19)     -3.6779         0.009486   
    538. D(O  42,C  32,C  18,C  17)   -126.8673         0.009486   
    539. D(C  33,C  32,C  18,H  66)    -59.2037         0.009486   
    540. D(C  33,C  32,C  18,C  19)   -178.3955         0.009486   
    541. D(C  33,C  32,C  18,C  17)     58.4151         0.009486   
    542. D(H  84,C  33,C  32,O  42)     27.9649         0.011474   
    543. D(H  84,C  33,C  32,C  18)   -157.3480         0.011474   
    544. D(H  83,C  33,C  32,O  42)    146.4600         0.011474   
    545. D(H  83,C  33,C  32,C  18)    -38.8529         0.011474   
    546. D(C  34,C  33,C  32,O  42)    -92.6238         0.011474   
    547. D(C  34,C  33,C  32,C  18)     82.0634         0.011474   
    548. D(H  86,C  34,C  33,H  84)   -171.3662         0.010260   
    549. D(H  86,C  34,C  33,H  83)     69.2793         0.010260   
    550. D(H  86,C  34,C  33,C  32)    -52.6755         0.010260   
    551. D(H  85,C  34,C  33,H  84)    -55.7530         0.010260   
    552. D(H  85,C  34,C  33,H  83)   -175.1074         0.010260   
    553. D(H  85,C  34,C  33,C  32)     62.9377         0.010260   
    554. D(C  35,C  34,C  33,H  84)     66.3901         0.010260   
    555. D(C  35,C  34,C  33,H  83)    -52.9644         0.010260   
    556. D(C  35,C  34,C  33,C  32)   -174.9192         0.010260   
    557. D(H  88,C  35,C  34,H  86)    170.7906         0.010914   
    558. D(H  88,C  35,C  34,H  85)     54.7699         0.010914   
    559. D(H  88,C  35,C  34,C  33)    -67.0332         0.010914   
    560. D(H  87,C  35,C  34,H  86)    -72.9945         0.010914   
    561. D(H  87,C  35,C  34,H  85)    170.9848         0.010914   
    562. D(H  87,C  35,C  34,C  33)     49.1816         0.010914   
    563. D(C  36,C  35,C  34,H  86)     48.1118         0.010914   
    564. D(C  36,C  35,C  34,H  85)    -67.9089         0.010914   
    565. D(C  36,C  35,C  34,C  33)    170.2880         0.010914   
    566. D(H  90,C  36,C  35,H  87)    169.1982         0.010572   
    567. D(H  90,C  36,C  35,C  34)     47.9129         0.010572   
    568. D(H  89,C  36,C  35,H  88)     41.2334         0.010572   
    569. D(H  89,C  36,C  35,H  87)    -75.2861         0.010572   
    570. D(H  89,C  36,C  35,C  34)    163.4285         0.010572   
    571. D(C  37,C  36,C  35,H  88)    164.5151         0.010572   
    572. D(C  37,C  36,C  35,H  87)     47.9955         0.010572   
    573. D(H  90,C  36,C  35,H  88)    -74.2822         0.010572   
    574. D(C  37,C  36,C  35,C  34)    -73.2898         0.010572   
    575. D(H  92,C  37,C  36,H  90)    163.5073         0.010776   
    576. D(H  92,C  37,C  36,H  89)     47.6331         0.010776   
    577. D(H  92,C  37,C  36,C  35)    -75.6660         0.010776   
    578. D(H  91,C  37,C  36,H  90)    -80.8529         0.010776   
    579. D(H  91,C  37,C  36,H  89)    163.2729         0.010776   
    580. D(H  91,C  37,C  36,C  35)     39.9738         0.010776   
    581. D(C  38,C  37,C  36,H  90)     39.5698         0.010776   
    582. D(C  38,C  37,C  36,H  89)    -76.3044         0.010776   
    583. D(C  38,C  37,C  36,C  35)    160.3965         0.010776   
    584. D(H  94,C  38,C  37,H  92)   -172.2436         0.011044   
    585. D(H  94,C  38,C  37,H  91)     72.8819         0.011044   
    586. D(H  94,C  38,C  37,C  36)    -48.5856         0.011044   
    587. D(H  93,C  38,C  37,H  92)    -56.4976         0.011044   
    588. D(H  93,C  38,C  37,H  91)   -171.3721         0.011044   
    589. D(H  93,C  38,C  37,C  36)     67.1604         0.011044   
    590. D(C  39,C  38,C  37,H  92)     67.5074         0.011044   
    591. D(C  39,C  38,C  37,H  91)    -47.3672         0.011044   
    592. D(C  39,C  38,C  37,C  36)   -168.8347         0.011044   
    593. D(H  95,C  39,C  38,H  94)    -72.6309         0.011036   
    594. D(H  95,C  39,C  38,H  93)    172.0023         0.011036   
    595. D(H  95,C  39,C  38,C  37)     47.6773         0.011036   
    596. D(C  40,C  39,C  38,H  94)     49.0468         0.011036   
    597. D(C  40,C  39,C  38,H  93)    -66.3200         0.011036   
    598. D(C  40,C  39,C  38,C  37)    169.3549         0.011036   
    599. D(H  96,C  39,C  38,H  94)    172.6574         0.011036   
    600. D(H  96,C  39,C  38,H  93)     57.2906         0.011036   
    601. D(H  96,C  39,C  38,C  37)    -67.0344         0.011036   
    602. D(H  98,C  40,C  39,H  95)     68.9257         0.011145   
    603. D(H  98,C  40,C  39,C  38)    -52.4194         0.011145   
    604. D(H  97,C  40,C  39,H  96)    -60.6090         0.011145   
    605. D(H  97,C  40,C  39,H  95)   -175.5200         0.011145   
    606. D(H  97,C  40,C  39,C  38)     63.1350         0.011145   
    607. D(C  41,C  40,C  39,H  96)     62.4903         0.011145   
    608. D(C  41,C  40,C  39,H  95)    -52.4206         0.011145   
    609. D(H  98,C  40,C  39,H  96)   -176.1634         0.011145   
    610. D(C  41,C  40,C  39,C  38)   -173.7657         0.011145   
    611. D(H 101,C  41,C  40,H  98)    -60.0889         0.011209   
    612. D(H 101,C  41,C  40,H  97)   -175.8458         0.011209   
    613. D(H 101,C  41,C  40,C  39)     61.3371         0.011209   
    614. D(H 100,C  41,C  40,H  98)    179.8838         0.011209   
    615. D(H 100,C  41,C  40,H  97)     64.1269         0.011209   
    616. D(H 100,C  41,C  40,C  39)    -58.6901         0.011209   
    617. D(H  99,C  41,C  40,H  98)     59.1840         0.011209   
    618. D(H  99,C  41,C  40,H  97)    -56.5729         0.011209   
    619. D(H  99,C  41,C  40,C  39)   -179.3900         0.011209   
    620. D(H 102,O  43,C  17,H  65)    166.1752         0.020254   
    621. D(H 102,O  43,C  17,C  18)     48.2099         0.020254   
    622. D(H 102,O  43,C  17,C  16)    -76.9971         0.020254   
    623. D(H 104,C  45,C  13,H  61)     71.4993         0.010635   
    624. D(H 104,C  45,C  13,C  14)   -171.5712         0.010635   
    625. D(H 104,C  45,C  13,N  12)    -43.4675         0.010635   
    626. D(H 103,C  45,C  13,H  61)   -174.8826         0.010635   
    627. D(H 103,C  45,C  13,C  14)    -57.9531         0.010635   
    628. D(H 103,C  45,C  13,N  12)     70.1506         0.010635   
    629. D(C  46,C  45,C  13,H  61)    -49.0074         0.010635   
    630. D(C  46,C  45,C  13,C  14)     67.9222         0.010635   
    631. D(C  46,C  45,C  13,N  12)   -163.9742         0.010635   
    632. D(H 107,C  46,C  45,H 104)    -59.8163         0.011113   
    633. D(H 107,C  46,C  45,H 103)   -175.8675         0.011113   
    634. D(H 107,C  46,C  45,C  13)     59.0558         0.011113   
    635. D(H 106,C  46,C  45,H 104)   -179.9290         0.011113   
    636. D(H 106,C  46,C  45,H 103)     64.0197         0.011113   
    637. D(H 106,C  46,C  45,C  13)    -61.0570         0.011113   
    638. D(H 105,C  46,C  45,H 104)     59.5540         0.011113   
    639. D(H 105,C  46,C  45,H 103)    -56.4973         0.011113   
    640. D(H 105,C  46,C  45,C  13)    178.4261         0.011113   
    641. D(H 108,C  48,C  10,H  59)    -66.0410         0.010403   
    642. D(H 108,C  48,C  10,C  11)     50.0108         0.010403   
    643. D(H 108,C  48,C  10,N   9)    179.0574         0.010403   
    644. D(C  50,C  48,C  10,H  59)    176.5274         0.010403   
    645. D(C  50,C  48,C  10,C  11)    -67.4208         0.010403   
    646. D(C  50,C  48,C  10,N   9)     61.6259         0.010403   
    647. D(C  49,C  48,C  10,H  59)     51.1550         0.010403   
    648. D(C  49,C  48,C  10,C  11)    167.2067         0.010403   
    649. D(C  49,C  48,C  10,N   9)    -63.7466         0.010403   
    650. D(H 111,C  49,C  48,C  50)     58.0476         0.011109   
    651. D(H 111,C  49,C  48,C  10)   -175.8026         0.011109   
    652. D(H 110,C  49,C  48,H 108)    179.6132         0.011109   
    653. D(H 110,C  49,C  48,C  50)    -61.6915         0.011109   
    654. D(H 110,C  49,C  48,C  10)     64.4582         0.011109   
    655. D(H 109,C  49,C  48,H 108)     59.7593         0.011109   
    656. D(H 109,C  49,C  48,C  50)    178.4545         0.011109   
    657. D(H 111,C  49,C  48,H 108)    -60.6476         0.011109   
    658. D(H 109,C  49,C  48,C  10)    -55.3957         0.011109   
    659. D(H 114,C  50,C  48,H 108)   -170.4169         0.011255   
    660. D(H 114,C  50,C  48,C  49)     70.1841         0.011255   
    661. D(H 114,C  50,C  48,C  10)    -54.1963         0.011255   
    662. D(H 113,C  50,C  48,H 108)     70.1452         0.011255   
    663. D(H 113,C  50,C  48,C  49)    -49.2539         0.011255   
    664. D(H 113,C  50,C  48,C  10)   -173.6343         0.011255   
    665. D(H 112,C  50,C  48,H 108)    -47.6268         0.011255   
    666. D(H 112,C  50,C  48,C  49)   -167.0259         0.011255   
    667. D(H 112,C  50,C  48,C  10)     68.5938         0.011255   
    -----------------------------------------------------------------

Number of atoms                         .... 115
Number of degrees of freedom            .... 667

         *************************************************************
         *                GEOMETRY OPTIMIZATION CYCLE   1            *
         *************************************************************
---------------------------------
CARTESIAN COORDINATES (ANGSTROEM)
---------------------------------
  O      1.187641   -3.095144    2.674233
  C      1.669807   -1.973799    2.544328
  C      2.935463   -1.571779    3.304704
  C      2.613569   -1.080741    4.730946
  C      3.747416   -0.094110    5.033490
  C      3.953735    0.624389    3.697618
  N      3.667255   -0.439005    2.706985
  C      4.121044   -0.538767    1.429819
  O      3.960735   -1.587455    0.779610
  N      1.105643   -0.987672    1.781463
  C     -0.011497   -1.252663    0.892961
  C      0.409238   -1.175853   -0.586309
  N      1.664230   -1.589505   -0.853708
  C      2.176457   -1.742186   -2.214629
  C      2.251138   -0.356074   -2.892930
  N      1.453000   -0.136480   -3.961933
  C      1.369295    1.151537   -4.633470
  C      0.065929    1.921328   -4.321678
  C     -0.135367    2.138537   -2.805502
  C      1.015379    2.949043   -2.221398
  N      1.350714    2.640033   -0.942047
  C      2.222077    3.493711   -0.149258
  C      3.205512    2.675372    0.703612
  N      3.588831    1.470617    0.187309
  C      4.705890    0.722790    0.776199
  C      5.744851    0.369534   -0.281668
  O      3.630419    3.111920    1.777413
  C      1.426631    4.505737    0.696503
  C      2.167311    5.827813    0.961598
  C      2.279591    6.666986   -0.316576
  C      1.452679    6.613522    2.065687
  O      1.594412    3.828902   -2.873574
  C     -1.468297    2.847544   -2.481778
  C     -2.746163    2.176860   -2.946975
  C     -3.148838    1.083921   -1.936442
  C     -4.362923    0.252049   -2.365538
  C     -4.571230   -0.964464   -1.448439
  C     -3.530113   -2.067309   -1.684271
  C     -3.380059   -3.064336   -0.531752
  C     -2.154872   -3.968184   -0.696559
  C     -1.814160   -4.800990    0.540852
  C     -0.502769   -5.573387    0.392660
  O     -1.491752    3.855085   -1.793281
  O      0.048665    3.146027   -5.035068
  O      3.046530    0.491253   -2.463802
  C      1.465854   -2.870668   -2.978343
  C      2.217745   -3.315127   -4.235012
  O     -0.386917   -0.828084   -1.474217
  C     -1.267421   -0.425844    1.225559
  C     -1.788288   -0.808745    2.612771
  C     -1.039968    1.080882    1.104884
  H      3.573286   -2.467920    3.316042
  H      2.545303   -1.915356    5.437145
  H      1.645038   -0.557556    4.731021
  H      3.505419    0.604190    5.844396
  H      4.661115   -0.639548    5.313914
  H      3.266364    1.471857    3.566925
  H      4.971563    1.009070    3.570418
  H      1.631200   -0.123579    1.667447
  H     -0.255972   -2.315673    1.068814
  H      2.339180   -1.749391   -0.095404
  H      3.232102   -2.024812   -2.084534
  H      0.739435   -0.833279   -4.154818
  H      1.425682    1.009962   -5.722336
  H      2.235650    1.742164   -4.312495
  H     -0.781481    1.325062   -4.698414
  H     -0.186246    1.141877   -2.329211
  H      0.728108    2.011714   -0.441149
  H      2.829720    4.038577   -0.890986
  H      3.283088    1.184251   -0.756436
  H      5.132235    1.384545    1.541703
  H      6.148897    1.289241   -0.723758
  H      6.569330   -0.201325    0.166526
  H      5.293904   -0.236151   -1.076355
  H      1.159468    4.034774    1.655667
  H      0.489332    4.719247    0.158691
  H      3.178781    5.577614    1.319969
  H      2.761823    6.119344   -1.139080
  H      1.280941    6.967515   -0.670274
  H      2.864800    7.580384   -0.135384
  H      1.421785    6.041187    3.004630
  H      1.960488    7.568268    2.266715
  H      0.415118    6.842330    1.773363
  H     -2.617369    1.725331   -3.941457
  H     -3.523764    2.949821   -3.017150
  H     -3.360256    1.561905   -0.966161
  H     -2.292286    0.413802   -1.773419
  H     -4.223286   -0.095753   -3.404257
  H     -5.262910    0.888000   -2.370968
  H     -5.587510   -1.369124   -1.580926
  H     -4.514526   -0.627855   -0.397392
  H     -2.544438   -1.605121   -1.846938
  H     -3.772858   -2.605746   -2.616756
  H     -4.292946   -3.673856   -0.417601
  H     -3.277367   -2.500800    0.412665
  H     -1.287886   -3.334519   -0.951599
  H     -2.296857   -4.636356   -1.564187
  H     -2.642020   -5.496861    0.758425
  H     -1.741728   -4.134115    1.417646
  H     -0.281872   -6.172687    1.286454
  H     -0.537245   -6.253068   -0.472940
  H      0.342149   -4.882863    0.248765
  H      0.661107    3.729875   -4.522238
  H      0.428331   -2.580686   -3.206284
  H      1.381068   -3.718262   -2.281730
  H      1.689636   -4.139736   -4.732490
  H      2.329575   -2.499992   -4.963679
  H      3.227277   -3.670623   -3.980881
  H     -2.017358   -0.711301    0.473310
  H     -1.975996   -1.889329    2.685281
  H     -1.060671   -0.544513    3.394535
  H     -2.726564   -0.280830    2.832662
  H     -0.892036    1.364829    0.055244
  H     -1.916467    1.641878    1.455933
  H     -0.181793    1.420523    1.706880

----------------------------
CARTESIAN COORDINATES (A.U.)
----------------------------
  NO LB      ZA    FRAG     MASS         X           Y           Z
   0 O     8.0000    0    15.999    2.244317   -5.848975    5.053569
   1 C     6.0000    0    12.011    3.155478   -3.729940    4.808083
   2 C     6.0000    0    12.011    5.547220   -2.970232    6.244985
   3 C     6.0000    0    12.011    4.938930   -2.042304    8.940192
   4 C     6.0000    0    12.011    7.081591   -0.177843    9.511917
   5 C     6.0000    0    12.011    7.471477    1.179923    6.987485
   6 N     7.0000    0    14.007    6.930107   -0.829600    5.115460
   7 C     6.0000    0    12.011    7.787644   -1.018122    2.701965
   8 O     8.0000    0    15.999    7.484705   -2.999856    1.473249
   9 N     7.0000    0    14.007    2.089363   -1.866430    3.366477
  10 C     6.0000    0    12.011   -0.021726   -2.367191    1.687452
  11 C     6.0000    0    12.011    0.773348   -2.222040   -1.107963
  12 N     7.0000    0    14.007    3.144939   -3.003728   -1.613274
  13 C     6.0000    0    12.011    4.112907   -3.292254   -4.185042
  14 C     6.0000    0    12.011    4.254034   -0.672883   -5.466844
  15 N     7.0000    0    14.007    2.745773   -0.257910   -7.486968
  16 C     6.0000    0    12.011    2.587593    2.176090   -8.755989
  17 C     6.0000    0    12.011    0.124588    3.630784   -8.166788
  18 C     6.0000    0    12.011   -0.255807    4.041249   -5.301630
  19 C     6.0000    0    12.011    1.918789    5.572884   -4.197835
  20 N     7.0000    0    14.007    2.552479    4.988939   -1.780211
  21 C     6.0000    0    12.011    4.199117    6.602158   -0.282058
  22 C     6.0000    0    12.011    6.057539    5.055720    1.329634
  23 N     7.0000    0    14.007    6.781908    2.779063    0.353963
  24 C     6.0000    0    12.011    8.892843    1.365876    1.466803
  25 C     6.0000    0    12.011   10.856196    0.698318   -0.532276
  26 O     8.0000    0    15.999    6.860498    5.880677    3.358824
  27 C     6.0000    0    12.011    2.695942    8.514609    1.316199
  28 C     6.0000    0    12.011    4.095625   11.012970    1.817156
  29 C     6.0000    0    12.011    4.307802   12.598778   -0.598243
  30 C     6.0000    0    12.011    2.745165   12.497746    3.903583
  31 O     8.0000    0    15.999    3.013002    7.235577   -5.430267
  32 C     6.0000    0    12.011   -2.774678    5.381079   -4.689880
  33 C     6.0000    0    12.011   -5.189496    4.113669   -5.568975
  34 C     6.0000    0    12.011   -5.950442    2.048315   -3.659346
  35 C     6.0000    0    12.011   -8.244730    0.476303   -4.470219
  36 C     6.0000    0    12.011   -8.638372   -1.822573   -2.737154
  37 C     6.0000    0    12.011   -6.670948   -3.906648   -3.182811
  38 C     6.0000    0    12.011   -6.387386   -5.790755   -1.004865
  39 C     6.0000    0    12.011   -4.072119   -7.498782   -1.316307
  40 C     6.0000    0    12.011   -3.428265   -9.072557    1.022063
  41 C     6.0000    0    12.011   -0.950096  -10.532176    0.742020
  42 O     8.0000    0    15.999   -2.819002    7.285054   -3.388811
  43 O     8.0000    0    15.999    0.091963    5.945129   -9.514900
  44 O     8.0000    0    15.999    5.757107    0.928334   -4.655911
  45 C     6.0000    0    12.011    2.770063   -5.424776   -5.628252
  46 C     6.0000    0    12.011    4.190930   -6.264682   -8.003012
  47 O     8.0000    0    15.999   -0.731168   -1.564852   -2.785867
  48 C     6.0000    0    12.011   -2.395078   -0.804728    2.315970
  49 C     6.0000    0    12.011   -3.379374   -1.528306    4.937421
  50 C     6.0000    0    12.011   -1.965255    2.042572    2.087928
  51 H     1.0000    0     1.008    6.752532   -4.663693    6.266412
  52 H     1.0000    0     1.008    4.809925   -3.619499   10.274716
  53 H     1.0000    0     1.008    3.108671   -1.053628    8.940334
  54 H     1.0000    0     1.008    6.624281    1.141754   11.044308
  55 H     1.0000    0     1.008    8.808230   -1.208571   10.041842
  56 H     1.0000    0     1.008    6.172533    2.781406    6.740511
  57 H     1.0000    0     1.008    9.394892    1.906867    6.747111
  58 H     1.0000    0     1.008    3.082520   -0.233531    3.151018
  59 H     1.0000    0     1.008   -0.483717   -4.375989    2.019765
  60 H     1.0000    0     1.008    4.420410   -3.305870   -0.180287
  61 H     1.0000    0     1.008    6.107787   -3.826341   -3.939198
  62 H     1.0000    0     1.008    1.397330   -1.574669   -7.851469
  63 H     1.0000    0     1.008    2.694148    1.908551  -10.813648
  64 H     1.0000    0     1.008    4.224766    3.292212   -8.149435
  65 H     1.0000    0     1.008   -1.476786    2.504005   -8.878716
  66 H     1.0000    0     1.008   -0.351955    2.157834   -4.401571
  67 H     1.0000    0     1.008    1.375925    3.801588   -0.833652
  68 H     1.0000    0     1.008    5.347397    7.631804   -1.683720
  69 H     1.0000    0     1.008    6.204137    2.237910   -1.429456
  70 H     1.0000    0     1.008    9.698519    2.616410    2.913396
  71 H     1.0000    0     1.008   11.619732    2.436312   -1.367703
  72 H     1.0000    0     1.008   12.414234   -0.380448    0.314688
  73 H     1.0000    0     1.008   10.004029   -0.446260   -2.034015
  74 H     1.0000    0     1.008    2.191077    7.624618    3.128757
  75 H     1.0000    0     1.008    0.924703    8.918085    0.299882
  76 H     1.0000    0     1.008    6.007026   10.540163    2.494379
  77 H     1.0000    0     1.008    5.219089   11.563885   -2.152550
  78 H     1.0000    0     1.008    2.420629   13.166695   -1.266634
  79 H     1.0000    0     1.008    5.413687   14.324850   -0.255839
  80 H     1.0000    0     1.008    2.686784   11.416189    5.677927
  81 H     1.0000    0     1.008    3.704786   14.301954    4.283470
  82 H     1.0000    0     1.008    0.784460   12.930131    3.351170
  83 H     1.0000    0     1.008   -4.946111    3.260403   -7.448274
  84 H     1.0000    0     1.008   -6.658950    5.574354   -5.701586
  85 H     1.0000    0     1.008   -6.349964    2.951572   -1.825779
  86 H     1.0000    0     1.008   -4.331793    0.781973   -3.351276
  87 H     1.0000    0     1.008   -7.980854   -0.180947   -6.433113
  88 H     1.0000    0     1.008   -9.945458    1.678077   -4.480480
  89 H     1.0000    0     1.008  -10.558864   -2.587270   -2.987517
  90 H     1.0000    0     1.008   -8.531218   -1.186473   -0.750962
  91 H     1.0000    0     1.008   -4.808291   -3.033239   -3.490207
  92 H     1.0000    0     1.008   -7.129669   -4.924146   -4.944952
  93 H     1.0000    0     1.008   -8.112493   -6.942582   -0.789151
  94 H     1.0000    0     1.008   -6.193327   -4.725828    0.779823
  95 H     1.0000    0     1.008   -2.433752   -6.301327   -1.798261
  96 H     1.0000    0     1.008   -4.340430   -8.761444   -2.955885
  97 H     1.0000    0     1.008   -4.992694  -10.387562    1.433215
  98 H     1.0000    0     1.008   -3.291388   -7.812345    2.678963
  99 H     1.0000    0     1.008   -0.532661  -11.664688    2.431046
 100 H     1.0000    0     1.008   -1.015247  -11.816586   -0.893726
 101 H     1.0000    0     1.008    0.646569   -9.227275    0.470098
 102 H     1.0000    0     1.008    1.249310    7.048442   -8.545792
 103 H     1.0000    0     1.008    0.809428   -4.876791   -6.058999
 104 H     1.0000    0     1.008    2.609840   -7.026496   -4.311845
 105 H     1.0000    0     1.008    3.192950   -7.822967   -8.943110
 106 H     1.0000    0     1.008    4.402259   -4.724300   -9.379994
 107 H     1.0000    0     1.008    6.098671   -6.936473   -7.522775
 108 H     1.0000    0     1.008   -3.812254   -1.344164    0.894425
 109 H     1.0000    0     1.008   -3.734091   -3.570315    5.074445
 110 H     1.0000    0     1.008   -2.004377   -1.028980    6.414742
 111 H     1.0000    0     1.008   -5.152459   -0.530691    5.352956
 112 H     1.0000    0     1.008   -1.685704    2.579152    0.104395
 113 H     1.0000    0     1.008   -3.621598    3.102699    2.751314
 114 H     1.0000    0     1.008   -0.343539    2.684399    3.225535

--------------------------------
INTERNAL COORDINATES (ANGSTROEM)
--------------------------------
 O      0   0   0     0.000000000000     0.00000000     0.00000000
 C      1   0   0     1.227507670438     0.00000000     0.00000000
 C      2   1   0     1.530253284097   120.81641105     0.00000000
 C      3   2   1     1.542368384469   111.74702821   275.67025841
 C      4   3   2     1.533160828478   103.47427834   208.67813320
 C      5   4   3     1.530803940073   103.26859967    38.65666783
 N      3   2   1     1.475114840960   114.24966210   158.56020343
 C      7   3   2     1.359054896394   119.34467714   301.16932346
 O      8   7   3     1.244273953486   120.65866729   357.77876542
 N      2   1   3     1.368462768566   123.73450627   183.10237482
 C     10   2   1     1.451777102699   121.79449779   350.35137838
 C     11  10   2     1.539856147523   111.62775626   250.43109140
 N     12  11  10     1.348189527875   115.44048664    33.84050637
 C     13  12  11     1.462119492202   122.87207705   172.25231587
 C     14  13  12     1.544983374854   109.38383211    65.91381580
 N     15  14  13     1.352040508662   117.66537790   244.62256217
 C     16  15  14     1.454976842350   122.86525388   175.99906960
 C     17  16  15     1.545495301568   113.34925782   254.64926559
 C     18  17  16     1.544827170488   112.20507109    56.36673749
 C     19  18  17     1.523914297773   110.64452174    60.40882705
 N     20  19  18     1.358188339134   115.24409923   212.98811246
 C     21  20  19     1.454838621806   121.84853427   193.14536211
 C     22  21  20     1.537599073033   111.90325235   219.89849913
 N     23  22  21     1.365627185334   116.06204420    30.32146598
 C     24  23  22     1.467601960735   120.76200506   168.29562131
 C     25  24  23     1.524241782675   111.00345924   233.70586819
 O     23  22  21     1.234572736377   120.95605984   209.02755699
 C     22  21  20     1.540208255235   112.05324419    93.06646143
 C     28  22  21     1.538429982943   114.24498422   209.93514777
 C     29  28  22     1.533149794154   111.22170696    70.43646093
 C     29  28  22     1.532009397926   109.89756289   193.44182484
 O     20  19  18     1.238855716698   121.93108806    33.24750882
 C     19  18  17     1.544082233728   112.50802743   182.73273378
 C     33  19  18     1.516300480707   117.39249630    58.41512286
 C     34  33  19     1.542024033240   109.42172108    82.06336094
 C     35  34  33     1.533015696716   114.07826569   185.08077797
 C     36  35  34     1.537649179556   111.69425146   170.28795228
 C     37  36  35     1.534863823964   112.63957253   286.71015349
 C     38  37  36     1.531299811182   114.74994618   160.39650344
 C     39  38  37     1.531399972407   112.43803486   191.16534860
 C     40  39  38     1.529980252973   114.35499722   169.35493765
 C     41  40  39     1.529151104599   112.80184841   186.23434945
 O     33  19  18     1.220538756147   120.92389580   233.13268557
 O     18  17  16     1.417430801420   109.82179878   181.32401007
 O     15  14  13     1.238855380329   119.51063247    66.11501099
 C     14  13  12     1.536777867137   112.16342645   293.59351004
 C     46  14  13     1.530392292247   113.21333042   196.02582604
 O     12  11  10     1.242251439026   121.70105164   209.87154144
 C     11  10   2     1.539998975648   113.41429837   120.28580893
 C     49  11  10     1.530448451683   109.81536472   296.25338529
 C     49  11  10     1.528568175661   113.00563383    61.62587190
 H      3   2   1     1.100007313443   105.70424696    37.46637458
 H      4   3   2     1.095427216929   111.50491987    85.54057364
 H      4   3   2     1.100806685517   109.57235181   326.16277193
 H      5   4   3     1.097158055108   113.09824780   160.02447707
 H      5   4   3     1.100447425946   110.20414905   281.11354250
 H      6   5   4     1.098982457080   112.42180600    85.07002686
 H      6   5   4     1.095505456719   113.03920625   206.67461013
 H     10   2   1     1.017775041456   117.47523657   185.79794609
 H     11  10   2     1.104844954672   104.38746676     3.50754294
 H     13  12  11     1.027690042397   120.84709076   347.67404637
 H     14  13  12     1.100540340572   104.64496485   176.42863270
 H     16  15  14     1.015828657751   116.96142549    10.37379760
 H     17  16  15     1.099478330789   109.88596791   133.85564777
 H     17  16  15     1.096555584838   107.23313520    16.01171786
 H     18  17  16     1.102527610680   108.05209325   297.24721816
 H     19  18  17     1.105790640952   107.57798052   299.70530359
 H     21  20  19     1.016523808772   116.97238606   350.83034540
 H     22  21  20     1.102845636081   104.67930164   334.81510955
 H     24  23  22     1.032539863246   120.47167332     4.77562633
 H     25  24  23     1.098036951934   105.55621093   354.09674066
 H     26  25  24     1.097523017242   109.65069074    60.79765340
 H     26  25  24     1.098418126428   110.41943887   180.76558649
 H     26  25  24     1.096236239583   110.53463622   300.84021202
 H     28  22  21     1.101443492287   108.81438527    87.20837989
 H     28  22  21     1.101525532213   107.38027398   331.06772668
 H     29  28  22     1.101862270373   107.62970719   310.90908685
 H     30  29  28     1.099532911210   112.52844483   304.23820625
 H     30  29  28     1.101235465264   110.53187286    63.87620057
 H     30  29  28     1.099816487775   110.86673218   183.58924438
 H     31  29  28     1.100061713054   111.18602488    60.13767285
 H     31  29  28     1.099919006554   111.19416875   180.48522764
 H     31  29  28     1.101970133368   110.76360673   300.12246627
 H     34  33  19     1.099754900568   111.12084661   321.14714532
 H     34  33  19     1.098661770728   107.75106724   202.65203639
 H     35  34  33     1.102094341780   108.64161153    62.93773820
 H     35  34  33     1.099689749417   109.00519999   307.32449282
 H     36  35  34     1.104264997083   109.51504141    49.18163454
 H     36  35  34     1.102016202303   109.57282522   292.96675299
 H     37  36  35     1.101874988099   110.10745626   163.42852166
 H     37  36  35     1.105088940636   108.62221622    47.91287692
 H     38  37  36     1.100742680136   109.17218205    39.97380269
 H     38  37  36     1.103796486526   109.33748072   284.33400183
 H     39  38  37     1.103589400866   110.87913559    67.16040220
 H     39  38  37     1.104553850544   108.69006114   311.41437044
 H     40  39  38     1.103740298819   108.32795770    47.67725316
 H     40  39  38     1.104260266000   109.80480780   292.96556443
 H     41  40  39     1.103143772697   109.61866408    63.13498110
 H     41  40  39     1.103964021648   109.15638710   307.58062426
 H     42  41  40     1.098555029448   111.66347243   180.61004737
 H     42  41  40     1.101098423919   111.16944448   301.30985423
 H     42  41  40     1.100643627459   110.73885538    61.33712227
 H     44  18  17     0.989423441657   103.97204219   283.00285860
 H     46  14  13     1.101136120423   110.19263156    70.15059762
 H     46  14  13     1.100396815224   106.65705505   316.53250236
 H     47  46  14     1.098345809707   110.71586483   178.42608517
 H     47  46  14     1.099048409291   112.27232366   298.94304522
 H     47  46  14     1.100052941837   110.79551186    59.05581784
 H     49  11  10     1.099895509456   105.60488456   179.05740587
 H     50  49  11     1.099160978338   111.33840972   304.60426347
 H     50  49  11     1.100182314168   111.03267685    64.45820277
 H     50  49  11     1.098821419522   110.59731083   184.19736254
 H     51  49  11     1.097385144510   110.52530353    68.59377128
 H     51  49  11     1.098272065366   111.07017472   186.36572811
 H     51  49  11     1.101915949631   112.12197915   305.80369636

---------------------------
INTERNAL COORDINATES (A.U.)
---------------------------
 O      0   0   0     0.000000000000     0.00000000     0.00000000
 C      1   0   0     2.319653324416     0.00000000     0.00000000
 C      2   1   0     2.891759622477   120.81641105     0.00000000
 C      3   2   1     2.914653844265   111.74702821   275.67025841
 C      4   3   2     2.897254085080   103.47427834   208.67813320
 C      5   4   3     2.892800211465   103.26859967    38.65666783
 N      3   2   1     2.787563065497   114.24966210   158.56020343
 C      7   3   2     2.568241555148   119.34467714   301.16932346
 O      8   7   3     2.351337007660   120.65866729   357.77876542
 N      2   1   3     2.586019857057   123.73450627   183.10237482
 C     10   2   1     2.743461131599   121.79449779   350.35137838
 C     11  10   2     2.909906404454   111.62775626   250.43109140
 N     12  11  10     2.547708984305   115.44048664    33.84050637
 C     13  12  11     2.763005415330   122.87207705   172.25231587
 C     14  13  12     2.919595459935   109.38383211    65.91381580
 N     15  14  13     2.554986283340   117.66537790   244.62256217
 C     16  15  14     2.749507763239   122.86525388   175.99906960
 C     17  16  15     2.920562861225   113.34925782   254.64926559
 C     18  17  16     2.919300276462   112.20507109    56.36673749
 C     19  18  17     2.879780674359   110.64452174    60.40882705
 N     20  19  18     2.566603999249   115.24409923   212.98811246
 C     21  20  19     2.749246564264   121.84853427   193.14536211
 C     22  21  20     2.905641151803   111.90325235   219.89849913
 N     23  22  21     2.580661381319   116.06204420    30.32146598
 C     24  23  22     2.773365779395   120.76200506   168.29562131
 C     25  24  23     2.880399531135   111.00345924   233.70586819
 O     23  22  21     2.333004364159   120.95605984   209.02755699
 C     22  21  20     2.910571791598   112.05324419    93.06646143
 C     28  22  21     2.907211343976   114.24498422   209.93514777
 C     29  28  22     2.897233233229   111.22170696    70.43646093
 C     29  28  22     2.895078196673   109.89756289   193.44182484
 O     20  19  18     2.341098024002   121.93108806    33.24750882
 C     19  18  17     2.917892549999   112.50802743   182.73273378
 C     33  19  18     2.865392645270   117.39249630    58.41512286
 C     34  33  19     2.914003114748   109.42172108    82.06336094
 C     35  34  33     2.896979825796   114.07826569   185.08077797
 C     36  35  34     2.905735839410   111.69425146   170.28795228
 C     37  36  35     2.900472280154   112.63957253   286.71015349
 C     38  37  36     2.893737272059   114.74994618   160.39650344
 C     39  38  37     2.893926549344   112.43803486   191.16534860
 C     40  39  38     2.891243668426   114.35499722   169.35493765
 C     41  40  39     2.889676805074   112.80184841   186.23434945
 O     33  19  18     2.306483984955   120.92389580   233.13268557
 O     18  17  16     2.678556028468   109.82179878   181.32401007
 O     15  14  13     2.341097388356   119.51063247    66.11501099
 C     14  13  12     2.904089297560   112.16342645   293.59351004
 C     46  14  13     2.892022309810   113.21333042   196.02582604
 O     12  11  10     2.347515009228   121.70105164   209.87154144
 C     11  10   2     2.910176310493   113.41429837   120.28580893
 C     49  11  10     2.892128435764   109.81536472   296.25338529
 C     49  11  10     2.888575229028   113.00563383    61.62587190
 H      3   2   1     2.078712567718   105.70424696    37.46637458
 H      4   3   2     2.070057439640   111.50491987    85.54057364
 H      4   3   2     2.080223162016   109.57235181   326.16277193
 H      5   4   3     2.073328249779   113.09824780   160.02447707
 H      5   4   3     2.079544259817   110.20414905   281.11354250
 H      6   5   4     2.076775869864   112.42180600    85.07002686
[...]
freq.      94.59  E(vib)   ...       0.47 
freq.      99.56  E(vib)   ...       0.46 
freq.     100.85  E(vib)   ...       0.46 
freq.     105.38  E(vib)   ...       0.45 
freq.     105.93  E(vib)   ...       0.45 
freq.     111.82  E(vib)   ...       0.45 
freq.     121.78  E(vib)   ...       0.44 
freq.     124.46  E(vib)   ...       0.43 
freq.     127.80  E(vib)   ...       0.43 
freq.     130.93  E(vib)   ...       0.42 
freq.     135.43  E(vib)   ...       0.42 
freq.     142.04  E(vib)   ...       0.41 
freq.     150.66  E(vib)   ...       0.40 
freq.     154.52  E(vib)   ...       0.40 
freq.     163.38  E(vib)   ...       0.39 
freq.     165.07  E(vib)   ...       0.39 
freq.     176.81  E(vib)   ...       0.38 
freq.     179.21  E(vib)   ...       0.37 
freq.     180.83  E(vib)   ...       0.37 
freq.     190.73  E(vib)   ...       0.36 
freq.     198.61  E(vib)   ...       0.35 
freq.     203.41  E(vib)   ...       0.35 
freq.     209.13  E(vib)   ...       0.34 
freq.     211.80  E(vib)   ...       0.34 
freq.     216.97  E(vib)   ...       0.34 
freq.     222.28  E(vib)   ...       0.33 
freq.     229.38  E(vib)   ...       0.32 
freq.     231.49  E(vib)   ...       0.32 
freq.     235.60  E(vib)   ...       0.32 
freq.     237.54  E(vib)   ...       0.32 
freq.     245.53  E(vib)   ...       0.31 
freq.     246.83  E(vib)   ...       0.31 
freq.     249.96  E(vib)   ...       0.31 
freq.     253.06  E(vib)   ...       0.30 
freq.     257.10  E(vib)   ...       0.30 
freq.     262.69  E(vib)   ...       0.29 
freq.     271.14  E(vib)   ...       0.29 
freq.     274.42  E(vib)   ...       0.28 
freq.     286.15  E(vib)   ...       0.27 
freq.     291.31  E(vib)   ...       0.27 
freq.     297.17  E(vib)   ...       0.27 
freq.     306.11  E(vib)   ...       0.26 
freq.     313.07  E(vib)   ...       0.25 
freq.     318.77  E(vib)   ...       0.25 
freq.     333.99  E(vib)   ...       0.24 
freq.     337.09  E(vib)   ...       0.24 
freq.     343.94  E(vib)   ...       0.23 
freq.     349.11  E(vib)   ...       0.23 
freq.     362.63  E(vib)   ...       0.22 
freq.     373.68  E(vib)   ...       0.21 
freq.     384.68  E(vib)   ...       0.20 
freq.     386.58  E(vib)   ...       0.20 
freq.     400.62  E(vib)   ...       0.19 
freq.     407.49  E(vib)   ...       0.19 
freq.     419.31  E(vib)   ...       0.18 
freq.     427.67  E(vib)   ...       0.18 
freq.     438.18  E(vib)   ...       0.17 
freq.     442.17  E(vib)   ...       0.17 
freq.     450.26  E(vib)   ...       0.17 
freq.     459.75  E(vib)   ...       0.16 
freq.     484.17  E(vib)   ...       0.15 
freq.     489.57  E(vib)   ...       0.15 
freq.     501.20  E(vib)   ...       0.14 
freq.     513.63  E(vib)   ...       0.13 
freq.     519.86  E(vib)   ...       0.13 
freq.     522.59  E(vib)   ...       0.13 
freq.     546.67  E(vib)   ...       0.12 
freq.     552.37  E(vib)   ...       0.12 
freq.     555.82  E(vib)   ...       0.12 
freq.     556.43  E(vib)   ...       0.12 
freq.     570.39  E(vib)   ...       0.11 
freq.     583.08  E(vib)   ...       0.11 
freq.     603.35  E(vib)   ...       0.10 
freq.     605.86  E(vib)   ...       0.10 
freq.     615.46  E(vib)   ...       0.10 
freq.     632.63  E(vib)   ...       0.09 
freq.     657.14  E(vib)   ...       0.08 
freq.     676.59  E(vib)   ...       0.08 
freq.     682.69  E(vib)   ...       0.08 
freq.     689.69  E(vib)   ...       0.07 
freq.     704.60  E(vib)   ...       0.07 
freq.     706.92  E(vib)   ...       0.07 
freq.     715.78  E(vib)   ...       0.07 
freq.     718.29  E(vib)   ...       0.07 
freq.     726.35  E(vib)   ...       0.06 
freq.     731.53  E(vib)   ...       0.06 
freq.     740.21  E(vib)   ...       0.06 
freq.     756.75  E(vib)   ...       0.06 
freq.     766.41  E(vib)   ...       0.06 
freq.     769.45  E(vib)   ...       0.06 
freq.     774.54  E(vib)   ...       0.05 
freq.     789.05  E(vib)   ...       0.05 
freq.     798.90  E(vib)   ...       0.05 
freq.     813.95  E(vib)   ...       0.05 
freq.     822.44  E(vib)   ...       0.05 
freq.     825.83  E(vib)   ...       0.04 
freq.     833.82  E(vib)   ...       0.04 
freq.     835.37  E(vib)   ...       0.04 
freq.     839.30  E(vib)   ...       0.04 
freq.     855.95  E(vib)   ...       0.04 
freq.     858.26  E(vib)   ...       0.04 
freq.     858.53  E(vib)   ...       0.04 
freq.     873.91  E(vib)   ...       0.04 
freq.     878.25  E(vib)   ...       0.04 
freq.     884.00  E(vib)   ...       0.04 
freq.     894.16  E(vib)   ...       0.03 
freq.     900.79  E(vib)   ...       0.03 
freq.     902.88  E(vib)   ...       0.03 
freq.     903.52  E(vib)   ...       0.03 
freq.     914.90  E(vib)   ...       0.03 
freq.     921.12  E(vib)   ...       0.03 
freq.     922.66  E(vib)   ...       0.03 
freq.     925.10  E(vib)   ...       0.03 
freq.     933.51  E(vib)   ...       0.03 
freq.     936.70  E(vib)   ...       0.03 
freq.     939.62  E(vib)   ...       0.03 
freq.     942.63  E(vib)   ...       0.03 
freq.     946.92  E(vib)   ...       0.03 
freq.     957.34  E(vib)   ...       0.03 
freq.     966.01  E(vib)   ...       0.03 
freq.     971.27  E(vib)   ...       0.03 
freq.     982.64  E(vib)   ...       0.02 
freq.     984.45  E(vib)   ...       0.02 
freq.     991.03  E(vib)   ...       0.02 
freq.    1000.80  E(vib)   ...       0.02 
freq.    1006.88  E(vib)   ...       0.02 
freq.    1013.16  E(vib)   ...       0.02 
freq.    1016.02  E(vib)   ...       0.02 
freq.    1020.12  E(vib)   ...       0.02 
freq.    1027.03  E(vib)   ...       0.02 
freq.    1028.37  E(vib)   ...       0.02 
freq.    1033.05  E(vib)   ...       0.02 
freq.    1036.60  E(vib)   ...       0.02 
freq.    1041.61  E(vib)   ...       0.02 
freq.    1049.18  E(vib)   ...       0.02 
freq.    1055.11  E(vib)   ...       0.02 
freq.    1061.21  E(vib)   ...       0.02 
freq.    1064.69  E(vib)   ...       0.02 
freq.    1068.53  E(vib)   ...       0.02 
freq.    1078.90  E(vib)   ...       0.02 
freq.    1080.02  E(vib)   ...       0.02 
freq.    1092.12  E(vib)   ...       0.02 
freq.    1093.67  E(vib)   ...       0.02 
freq.    1100.25  E(vib)   ...       0.02 
freq.    1106.75  E(vib)   ...       0.02 
freq.    1109.16  E(vib)   ...       0.02 
freq.    1110.42  E(vib)   ...       0.02 
freq.    1114.05  E(vib)   ...       0.01 
freq.    1125.14  E(vib)   ...       0.01 
freq.    1128.82  E(vib)   ...       0.01 
freq.    1131.72  E(vib)   ...       0.01 
freq.    1137.75  E(vib)   ...       0.01 
freq.    1146.30  E(vib)   ...       0.01 
freq.    1157.01  E(vib)   ...       0.01 
freq.    1166.21  E(vib)   ...       0.01 
freq.    1166.73  E(vib)   ...       0.01 
freq.    1173.74  E(vib)   ...       0.01 
freq.    1180.95  E(vib)   ...       0.01 
freq.    1184.42  E(vib)   ...       0.01 
freq.    1187.24  E(vib)   ...       0.01 
freq.    1196.76  E(vib)   ...       0.01 
freq.    1199.68  E(vib)   ...       0.01 
freq.    1201.71  E(vib)   ...       0.01 
freq.    1212.00  E(vib)   ...       0.01 
freq.    1218.06  E(vib)   ...       0.01 
freq.    1221.17  E(vib)   ...       0.01 
freq.    1223.65  E(vib)   ...       0.01 
freq.    1227.58  E(vib)   ...       0.01 
freq.    1228.71  E(vib)   ...       0.01 
freq.    1233.73  E(vib)   ...       0.01 
freq.    1239.71  E(vib)   ...       0.01 
freq.    1249.51  E(vib)   ...       0.01 
freq.    1251.36  E(vib)   ...       0.01 
freq.    1251.81  E(vib)   ...       0.01 
freq.    1255.01  E(vib)   ...       0.01 
freq.    1264.43  E(vib)   ...       0.01 
freq.    1272.67  E(vib)   ...       0.01 
freq.    1274.58  E(vib)   ...       0.01 
freq.    1275.81  E(vib)   ...       0.01 
freq.    1280.98  E(vib)   ...       0.01 
freq.    1284.82  E(vib)   ...       0.01 
freq.    1285.38  E(vib)   ...       0.01 
freq.    1286.66  E(vib)   ...       0.01 
freq.    1290.98  E(vib)   ...       0.01 
freq.    1291.24  E(vib)   ...       0.01 
freq.    1292.88  E(vib)   ...       0.01 
freq.    1297.44  E(vib)   ...       0.01 
freq.    1298.80  E(vib)   ...       0.01 
freq.    1299.86  E(vib)   ...       0.01 
freq.    1302.28  E(vib)   ...       0.01 
freq.    1304.79  E(vib)   ...       0.01 
freq.    1306.24  E(vib)   ...       0.01 
freq.    1309.59  E(vib)   ...       0.01 
freq.    1310.51  E(vib)   ...       0.01 
freq.    1311.71  E(vib)   ...       0.01 
freq.    1319.80  E(vib)   ...       0.01 
freq.    1326.92  E(vib)   ...       0.01 
freq.    1327.81  E(vib)   ...       0.01 
freq.    1330.02  E(vib)   ...       0.01 
freq.    1330.91  E(vib)   ...       0.01 
freq.    1338.44  E(vib)   ...       0.01 
freq.    1340.57  E(vib)   ...       0.01 
freq.    1344.69  E(vib)   ...       0.01 
freq.    1345.82  E(vib)   ...       0.01 
freq.    1349.52  E(vib)   ...       0.01 
freq.    1352.51  E(vib)   ...       0.01 
freq.    1353.89  E(vib)   ...       0.01 
freq.    1363.33  E(vib)   ...       0.01 
freq.    1364.10  E(vib)   ...       0.01 
freq.    1365.71  E(vib)   ...       0.01 
freq.    1367.95  E(vib)   ...       0.01 
freq.    1369.32  E(vib)   ...       0.01 
freq.    1374.43  E(vib)   ...       0.01 
freq.    1401.47  E(vib)   ...       0.00 
freq.    1420.93  E(vib)   ...       0.00 
freq.    1425.97  E(vib)   ...       0.00 
freq.    1433.48  E(vib)   ...       0.00 
freq.    1434.48  E(vib)   ...       0.00 
freq.    1436.00  E(vib)   ...       0.00 
freq.    1437.04  E(vib)   ...       0.00 
freq.    1437.18  E(vib)   ...       0.00 
freq.    1438.71  E(vib)   ...       0.00 
freq.    1439.34  E(vib)   ...       0.00 
freq.    1439.74  E(vib)   ...       0.00 
freq.    1442.65  E(vib)   ...       0.00 
freq.    1443.29  E(vib)   ...       0.00 
freq.    1443.82  E(vib)   ...       0.00 
freq.    1444.31  E(vib)   ...       0.00 
freq.    1446.12  E(vib)   ...       0.00 
freq.    1446.18  E(vib)   ...       0.00 
freq.    1448.77  E(vib)   ...       0.00 
freq.    1449.94  E(vib)   ...       0.00 
freq.    1451.16  E(vib)   ...       0.00 
freq.    1453.51  E(vib)   ...       0.00 
freq.    1455.52  E(vib)   ...       0.00 
freq.    1456.49  E(vib)   ...       0.00 
freq.    1457.44  E(vib)   ...       0.00 
freq.    1458.09  E(vib)   ...       0.00 
freq.    1460.84  E(vib)   ...       0.00 
freq.    1465.07  E(vib)   ...       0.00 
freq.    1465.82  E(vib)   ...       0.00 
freq.    1467.88  E(vib)   ...       0.00 
freq.    1469.55  E(vib)   ...       0.00 
freq.    1472.44  E(vib)   ...       0.00 
freq.    1482.05  E(vib)   ...       0.00 
freq.    1500.30  E(vib)   ...       0.00 
freq.    1511.33  E(vib)   ...       0.00 
freq.    1515.71  E(vib)   ...       0.00 
freq.    1617.81  E(vib)   ...       0.00 
freq.    1637.58  E(vib)   ...       0.00 
freq.    1654.35  E(vib)   ...       0.00 
freq.    1657.37  E(vib)   ...       0.00 
freq.    1661.84  E(vib)   ...       0.00 
freq.    1693.76  E(vib)   ...       0.00 
freq.    1701.48  E(vib)   ...       0.00 
freq.    2926.88  E(vib)   ...       0.00 
freq.    2929.79  E(vib)   ...       0.00 
freq.    2932.38  E(vib)   ...       0.00 
freq.    2933.15  E(vib)   ...       0.00 
freq.    2936.73  E(vib)   ...       0.00 
freq.    2941.63  E(vib)   ...       0.00 
freq.    2946.20  E(vib)   ...       0.00 
freq.    2949.48  E(vib)   ...       0.00 
freq.    2950.50  E(vib)   ...       0.00 
freq.    2953.08  E(vib)   ...       0.00 
freq.    2955.53  E(vib)   ...       0.00 
freq.    2955.77  E(vib)   ...       0.00 
freq.    2956.25  E(vib)   ...       0.00 
freq.    2956.51  E(vib)   ...       0.00 
freq.    2957.38  E(vib)   ...       0.00 
freq.    2959.97  E(vib)   ...       0.00 
freq.    2963.42  E(vib)   ...       0.00 
freq.    2964.13  E(vib)   ...       0.00 
freq.    2967.22  E(vib)   ...       0.00 
freq.    2967.41  E(vib)   ...       0.00 
freq.    2972.09  E(vib)   ...       0.00 
freq.    2974.38  E(vib)   ...       0.00 
freq.    2974.60  E(vib)   ...       0.00 
freq.    2976.10  E(vib)   ...       0.00 
freq.    2978.31  E(vib)   ...       0.00 
freq.    2982.92  E(vib)   ...       0.00 
freq.    2983.63  E(vib)   ...       0.00 
freq.    2983.80  E(vib)   ...       0.00 
freq.    2984.15  E(vib)   ...       0.00 
freq.    2989.98  E(vib)   ...       0.00 
freq.    2990.13  E(vib)   ...       0.00 
freq.    2995.38  E(vib)   ...       0.00 
freq.    2995.66  E(vib)   ...       0.00 
freq.    2996.15  E(vib)   ...       0.00 
freq.    3004.15  E(vib)   ...       0.00 
freq.    3005.00  E(vib)   ...       0.00 
freq.    3005.21  E(vib)   ...       0.00 
freq.    3014.20  E(vib)   ...       0.00 
freq.    3014.67  E(vib)   ...       0.00 
freq.    3015.33  E(vib)   ...       0.00 
freq.    3018.67  E(vib)   ...       0.00 
freq.    3024.34  E(vib)   ...       0.00 
freq.    3025.64  E(vib)   ...       0.00 
freq.    3027.86  E(vib)   ...       0.00 
freq.    3029.02  E(vib)   ...       0.00 
freq.    3033.01  E(vib)   ...       0.00 
freq.    3034.55  E(vib)   ...       0.00 
freq.    3034.76  E(vib)   ...       0.00 
freq.    3038.19  E(vib)   ...       0.00 
freq.    3039.16  E(vib)   ...       0.00 
freq.    3041.79  E(vib)   ...       0.00 
freq.    3042.89  E(vib)   ...       0.00 
freq.    3049.90  E(vib)   ...       0.00 
freq.    3052.78  E(vib)   ...       0.00 
freq.    3055.00  E(vib)   ...       0.00 
freq.    3061.01  E(vib)   ...       0.00 
freq.    3061.99  E(vib)   ...       0.00 
freq.    3073.21  E(vib)   ...       0.00 
freq.    3238.36  E(vib)   ...       0.00 
freq.    3294.53  E(vib)   ...       0.00 
freq.    3400.27  E(vib)   ...       0.00 
freq.    3473.53  E(vib)   ...       0.00 
freq.    3490.63  E(vib)   ...       0.00 
freq.    3509.12  E(vib)   ...       0.00 

------------
INNER ENERGY
------------

The inner energy is: U= E(el) + E(ZPE) + E(vib) + E(rot) + E(trans)
    E(el)   - is the total energy from the electronic structure calculation
              = E(kin-el) + E(nuc-el) + E(el-el) + E(nuc-nuc)
    E(ZPE)  - the the zero temperature vibrational energy from the frequency calculation
    E(vib)  - the the finite temperature correction to E(ZPE) due to population
              of excited vibrational states
    E(rot)  - is the rotational thermal energy
    E(trans)- is the translational thermal energy

Summary of contributions to the inner energy U:
Electronic energy                ...  -2380.09978602 Eh
Zero point energy                ...      0.97887446 Eh     614.25 kcal/mol
Thermal vibrational correction   ...      0.05502910 Eh      34.53 kcal/mol
Thermal rotational correction    ...      0.00141627 Eh       0.89 kcal/mol
Thermal translational correction ...      0.00141627 Eh       0.89 kcal/mol
-----------------------------------------------------------------------
Total thermal energy                  -2379.06304990 Eh


Summary of corrections to the electronic energy:
(perhaps to be used in another calculation)
Total thermal correction                  0.05786165 Eh      36.31 kcal/mol
Non-thermal (ZPE) correction              0.97887446 Eh     614.25 kcal/mol
-----------------------------------------------------------------------
Total correction                          1.03673611 Eh     650.56 kcal/mol


--------
ENTHALPY
--------

The enthalpy is H = U + kB*T
                kB is Boltzmann's constant
Total free energy                 ...  -2379.06304990 Eh 
Thermal Enthalpy correction       ...      0.00094421 Eh       0.59 kcal/mol
-----------------------------------------------------------------------
Total Enthalpy                    ...  -2379.06210570 Eh


Note: Only C1 symmetry has been detected, increase convergence thresholds 
      if your molecule has a higher symmetry. Symmetry factor of 1.0 is   
      used for the rotational entropy correction. 
 

Note: Rotational entropy computed according to Herzberg 
Infrared and Raman Spectra, Chapter V,1, Van Nostrand Reinhold, 1945 
Point Group:  C1, Symmetry Number:   1  
Rotational constants in cm-1:     0.002050     0.001942     0.001446 

Vibrational entropy computed according to the QRRHO of S. Grimme
Chem.Eur.J. 2012 18 9955


-------
ENTROPY
-------

The entropy contributions are T*S = T*(S(el)+S(vib)+S(rot)+S(trans))
     S(el)   - electronic entropy
     S(vib)  - vibrational entropy
     S(rot)  - rotational entropy
     S(trans)- translational entropy
The entropies will be listed as mutliplied by the temperature to get
units of energy

Electronic entropy                ...      0.00000000 Eh      0.00 kcal/mol
Vibrational entropy               ...      0.10079875 Eh     63.25 kcal/mol
Rotational entropy                ...      0.01846779 Eh     11.59 kcal/mol
Translational entropy             ...      0.02166895 Eh     13.60 kcal/mol
-----------------------------------------------------------------------
Final entropy term                ...      0.14093549 Eh     88.44 kcal/mol

In case the symmetry of your molecule has not been determined correctly
or in case you have a reason to use a different symmetry number we print 
out the resulting rotational entropy values for sn=1,12 :
 --------------------------------------------------------
|  sn= 1 | S(rot)=       0.01846779 Eh     11.59 kcal/mol|
|  sn= 2 | S(rot)=       0.01781333 Eh     11.18 kcal/mol|
|  sn= 3 | S(rot)=       0.01743050 Eh     10.94 kcal/mol|
|  sn= 4 | S(rot)=       0.01715888 Eh     10.77 kcal/mol|
|  sn= 5 | S(rot)=       0.01694819 Eh     10.64 kcal/mol|
|  sn= 6 | S(rot)=       0.01677605 Eh     10.53 kcal/mol|
|  sn= 7 | S(rot)=       0.01663050 Eh     10.44 kcal/mol|
|  sn= 8 | S(rot)=       0.01650442 Eh     10.36 kcal/mol|
|  sn= 9 | S(rot)=       0.01639321 Eh     10.29 kcal/mol|
|  sn=10 | S(rot)=       0.01629373 Eh     10.22 kcal/mol|
|  sn=11 | S(rot)=       0.01620374 Eh     10.17 kcal/mol|
|  sn=12 | S(rot)=       0.01612159 Eh     10.12 kcal/mol|
 --------------------------------------------------------


-------------------
GIBBS FREE ENERGY
-------------------

The Gibbs free energy is G = H - T*S

Total enthalpy                    ...  -2379.06210570 Eh 
Total entropy correction          ...     -0.14093549 Eh    -88.44 kcal/mol
-----------------------------------------------------------------------
Final Gibbs free energy         ...  -2379.20304119 Eh

For completeness - the Gibbs free energy minus the electronic energy
G-E(el)                           ...      0.89674483 Eh    562.71 kcal/mol

--------------------------------------------------------------------------
WARNING: No preset parameters were found for the device that Open MPI
detected:

  Local host:            eu-g1-042-1
  Device name:           mlx5_0
  Device vendor ID:      0x02c9
  Device vendor part ID: 4123

Default device parameters will be used, which may result in lower
performance.  You can edit any of the files specified by the
btl_openib_device_param_files MCA parameter to set values for your
device.

NOTE: You can turn off this warning by setting the MCA parameter
      btl_openib_warn_no_device_params_found to 0.
--------------------------------------------------------------------------
--------------------------------------------------------------------------
WARNING: There was an error initializing an OpenFabrics device.

  Local host:   eu-g1-042-1
  Local device: mlx5_0
--------------------------------------------------------------------------

Timings for individual modules:

Sum of individual times         ...    29906.837 sec (= 498.447 min)
GTO integral calculation        ...       13.928 sec (=   0.232 min)   0.0 %
SCF iterations                  ...      407.233 sec (=   6.787 min)   1.4 %
SCF Gradient evaluation         ...       83.839 sec (=   1.397 min)   0.3 %
Geometry relaxation             ...        4.343 sec (=   0.072 min)   0.0 %
Analytical frequency calculation...    29397.494 sec (= 489.958 min)  98.3 %
                             ****ORCA TERMINATED NORMALLY****
TOTAL RUN TIME: 0 days 8 hours 18 minutes 44 seconds 903 msec
