
                                 *****************
                                 * O   R   C   A *
                                 *****************

           --- An Ab Initio, DFT and Semiempirical electronic structure package ---

                  #######################################################
                  #                        -***-                        #
                  #          Department of theory and spectroscopy      #
                  #               Directorship: Frank Neese             #
                  #        Max Planck Institute fuer Kohlenforschung    #
                  #                Kaiser Wilhelm Platz 1               #
                  #                 D-45470 Muelheim/Ruhr               #
                  #                      Germany                        #
                  #                                                     #
                  #                  All rights reserved                #
                  #                        -***-                        #
                  #######################################################


                         Program Version 4.2.0 -  RELEASE  -


 With contributions from (in alphabetic order):
   Daniel Aravena         : Magnetic Suceptibility
   Michael Atanasov       : Ab Initio Ligand Field Theory (pilot matlab implementation)
   Alexander A. Auer      : GIAO ZORA, VPT2
   Ute Becker             : Parallelization
   Giovanni Bistoni       : ED, misc. LED, open-shell LED, HFLED
   Martin Brehm           : Molecular dynamics
   Dmytro Bykov           : SCF Hessian
   Vijay G. Chilkuri      : MRCI spin determinant printing, contributions to CSF-ICE
   Dipayan Datta          : RHF DLPNO-CCSD density
   Achintya Kumar Dutta   : EOM-CC, STEOM-CC
   Dmitry Ganyushin       : Spin-Orbit,Spin-Spin,Magnetic field MRCI
   Miquel Garcia          : C-PCM Hessian, Gaussian charge scheme
   Yang Guo               : DLPNO-NEVPT2, CIM, IAO-localization
   Andreas Hansen         : Spin unrestricted coupled pair/coupled cluster methods
   Benjamin Helmich-Paris : CASSCF linear response (MC-RPA)
   Lee Huntington         : MR-EOM, pCC
   Robert Izsak           : Overlap fitted RIJCOSX, COSX-SCS-MP3, EOM
   Christian Kollmar      : KDIIS, OOCD, Brueckner-CCSD(T), CCSD density
   Simone Kossmann        : Meta GGA functionals, TD-DFT gradient, OOMP2, MP2 Hessian
   Martin Krupicka        : AUTO-CI
   Lucas Lang             : DCDCAS
   Dagmar Lenk            : GEPOL surface, SMD
   Dimitrios Liakos       : Extrapolation schemes; Compound Job, initial MDCI parallelization
   Dimitrios Manganas     : Further ROCIS development; embedding schemes
   Dimitrios Pantazis     : SARC Basis sets
   Taras Petrenko         : DFT Hessian,TD-DFT gradient, ASA, ECA, R-Raman, ABS, FL, XAS/XES, NRVS
   Peter Pinski           : DLPNO-MP2, DLPNO-MP2 Gradient
   Christoph Reimann      : Effective Core Potentials
   Marius Retegan         : Local ZFS, SOC
   Christoph Riplinger    : Optimizer, TS searches, QM/MM, DLPNO-CCSD(T), (RO)-DLPNO pert. Triples
   Tobias Risthaus        : Range-separated hybrids, TD-DFT gradient, RPA, STAB
   Michael Roemelt        : Original ROCIS implementation
   Masaaki Saitow         : Open-shell DLPNO-CCSD energy and density
   Barbara Sandhoefer     : DKH picture change effects
   Avijit Sen             : IP-ROCIS
   Kantharuban Sivalingam : CASSCF convergence, NEVPT2, FIC-MRCI
   Bernardo de Souza      : ESD, SOC TD-DFT
   Georgi Stoychev        : AutoAux, RI-MP2 NMR
   Willem Van den Heuvel  : Paramagnetic NMR
   Boris Wezisla          : Elementary symmetry handling
   Frank Wennmohs         : Technical directorship


 We gratefully acknowledge several colleagues who have allowed us to
 interface, adapt or use parts of their codes:
   Stefan Grimme, W. Hujo, H. Kruse,             : VdW corrections, initial TS optimization,
                  C. Bannwarth                     DFT functionals, gCP, sTDA/sTD-DF
   Ed Valeev, F. Pavosevic, A. Kumar             : LibInt (2-el integral package), F12 methods
   Garnet Chan, S. Sharma, J. Yang, R. Olivares  : DMRG
   Ulf Ekstrom                                   : XCFun DFT Library
   Mihaly Kallay                                 : mrcc  (arbitrary order and MRCC methods)
   Andreas Klamt, Michael Diedenhofen            : otool_cosmo (COSMO solvation model)
   Jiri Pittner, Ondrej Demel                    : Mk-CCSD
   Frank Weinhold                                : gennbo (NPA and NBO analysis)
   Christopher J. Cramer and Donald G. Truhlar   : smd solvation model
   Lars Goerigk                                  : TD-DFT with DH, B97 family of functionals
   V. Asgeirsson, H. Jonsson                     : NEB implementation
   FAccTs GmbH                                   : IRC, NEB, NEB-TS, Multilevel, MM, QM/MM, CI optimization
   S Lehtola, MJT Oliveira, MAL Marques          : LibXC Library


 Your calculation uses the libint2 library for the computation of 2-el integrals
 For citations please refer to: http://libint.valeyev.net

 Your ORCA version has been built with support for libXC version: 4.2.3
 For citations please refer to: https://tddft.org/programs/libxc/

 This ORCA versions uses:
   CBLAS   interface :  Fast vector & matrix operations
   LAPACKE interface :  Fast linear algebra routines
   SCALAPACK package :  Parallel linear algebra routines




***************************************
The coordinates will be read from file: 48.xyz
***************************************


Your calculation utilizes the atom-pairwise dispersion correction
with the Becke-Johnson damping scheme (D3BJ)
Cite in your paper:
S.Grimme, S.Ehrlich, L.Goerigk, J Comput Chem, (2011), 32, 1456–1465 
S.Grimme, J.Antony, S.Ehrlich and H.Krieg, J.Chem.Phys., 132, (2010), 154104 
   

----- Orbital basis set information -----
Your calculation utilizes the basis: def2-TZVP
   F. Weigend and R. Ahlrichs, Phys. Chem. Chem. Phys. 7, 3297 (2005).

----- AuxJ basis set information -----
Your calculation utilizes the auxiliary basis: def2/J
   F. Weigend, Phys. Chem. Chem. Phys. 8, 1057 (2006).

================================================================================
                                        WARNINGS
                       Please study these warnings very carefully!
================================================================================


WARNING: Geometry Optimization
  ===> : Switching off AutoStart
         For restart on a previous wavefunction, please use MOREAD

INFO   : the flag for use of LIBINT has been found!

================================================================================
                                       INPUT FILE
================================================================================
NAME = 48.inp
|  1> !RI BP86 def2-tzvp def2/J D3BJ TIGHTSCF TightOpt Grid5 FinalGrid6 freq
|  2> %maxcore 4000
|  3> %pal nprocs 24
|  4> end
|  5> * xyzfile 0 1 48.xyz 
|  6> 
|  7>                          ****END OF INPUT****
================================================================================

                       *****************************
                       * Geometry Optimization Run *
                       *****************************

Geometry optimization settings:
Update method            Update   .... BFGS
Choice of coordinates    CoordSys .... Z-matrix Internals
Initial Hessian          InHess   .... Almoef's Model

Convergence Tolerances:
Energy Change            TolE     ....  1.0000e-06 Eh
Max. Gradient            TolMAXG  ....  1.0000e-04 Eh/bohr
RMS Gradient             TolRMSG  ....  3.0000e-05 Eh/bohr
Max. Displacement        TolMAXD  ....  1.0000e-03 bohr
RMS Displacement         TolRMSD  ....  6.0000e-04 bohr
Strict Convergence                ....  False
------------------------------------------------------------------------------
                        ORCA OPTIMIZATION COORDINATE SETUP
------------------------------------------------------------------------------

The optimization will be done in new redundant internal coordinates
Making redundant internal coordinates   ...  (new redundants) done
Evaluating the initial hessian          ...  (Almloef) done
Evaluating the coordinates              ...  done
Calculating the B-matrix                .... done
Calculating the G-matrix                .... done
Diagonalizing the G-matrix              .... done
Small eigenvalue found = 2.455e-03
Small eigenvalue found = 3.352e-03
Small eigenvalue found = 3.541e-03
Small eigenvalue found = 3.920e-03
Small eigenvalue found = 6.472e-03
Small eigenvalue found = 7.740e-03
Small eigenvalue found = 8.165e-03
Small eigenvalue found = 8.963e-03
Small eigenvalue found = 1.078e-02
Small eigenvalue found = 1.259e-02
Small eigenvalue found = 1.503e-02
Small eigenvalue found = 1.597e-02
Small eigenvalue found = 1.755e-02
Small eigenvalue found = 1.899e-02
Small eigenvalue found = 2.370e-02
Small eigenvalue found = 2.486e-02
Small eigenvalue found = 2.875e-02
The first mode is                       ....  328
The number of degrees of freedom        ....  339

    -----------------------------------------------------------------
                    Redundant Internal Coordinates


    -----------------------------------------------------------------
         Definition                    Initial Value    Approx d2E/dq
    -----------------------------------------------------------------
      1. B(C   1,O   0)                  1.2315         1.001597   
      2. B(C   2,C   1)                  1.5565         0.338903   
      3. B(C   3,C   2)                  1.5380         0.362809   
      4. B(C   4,C   3)                  1.5372         0.363776   
      5. B(C   5,C   4)                  1.5292         0.374665   
      6. B(N   6,C   2)                  1.4811         0.400415   
      7. B(N   6,C   5)                  1.4685         0.419423   
      8. B(C   7,N   6)                  1.3559         0.634353   
      9. B(O   8,C   7)                  1.2442         0.956126   
     10. B(N   9,C   1)                  1.3561         0.633829   
     11. B(C  10,N   9)                  1.4642         0.426089   
     12. B(C  11,C  10)                  1.5461         0.352065   
     13. B(N  12,C  11)                  1.3693         0.603783   
     14. B(C  13,N  12)                  1.4554         0.440008   
     15. B(C  14,C  13)                  1.5334         0.368963   
     16. B(N  15,C  14)                  1.3556         0.635093   
     17. B(C  16,N  15)                  1.4621         0.429460   
     18. B(C  17,C  16)                  1.5413         0.358387   
     19. B(C  18,C  17)                  1.5896         0.300137   
     20. B(C  19,C  18)                  1.5350         0.366713   
     21. B(N  20,C  19)                  1.3679         0.607018   
     22. B(C  21,N  20)                  1.4525         0.444841   
     23. B(C  22,C  21)                  1.5415         0.358101   
     24. B(N  23,C  22)                  1.3620         0.620300   
     25. B(C  24,C   7)                  1.5405         0.359466   
     26. B(C  24,N  23)                  1.4570         0.437447   
     27. B(C  25,C  24)                  1.5252         0.380245   
     28. B(O  26,C  22)                  1.2332         0.995459   
     29. B(C  27,C  21)                  1.5440         0.354787   
     30. B(C  28,C  27)                  1.5344         0.367599   
     31. B(C  29,C  28)                  1.5316         0.371403   
     32. B(C  30,C  28)                  1.5330         0.369464   
     33. B(O  31,C  19)                  1.2275         1.016437   
     34. B(C  32,C  18)                  1.5228         0.383620   
     35. B(C  33,C  32)                  1.5064         0.407381   
     36. B(C  34,C  33)                  1.5285         0.375687   
     37. B(C  35,C  34)                  1.5307         0.372560   
     38. B(C  36,C  35)                  1.5329         0.369605   
     39. B(C  37,C  36)                  1.5314         0.371682   
     40. B(C  38,C  37)                  1.5292         0.374735   
     41. B(C  39,C  38)                  1.5295         0.374253   
     42. B(C  40,C  39)                  1.5298         0.373850   
     43. B(C  41,C  40)                  1.5299         0.373661   
     44. B(O  42,C  32)                  1.2402         0.970296   
     45. B(O  43,C  17)                  1.4056         0.528456   
     46. B(O  44,C  14)                  1.2418         0.964424   
     47. B(C  45,C  13)                  1.5377         0.363139   
     48. B(C  46,C  45)                  1.5294         0.374341   
     49. B(O  47,C  11)                  1.2266         1.020018   
     50. B(C  48,C  10)                  1.5445         0.354188   
     51. B(C  49,C  48)                  1.5313         0.371748   
     52. B(C  50,C  48)                  1.5330         0.369435   
     53. B(H  51,C   2)                  1.1007         0.346281   
     54. B(H  52,C   3)                  1.0964         0.351729   
     55. B(H  53,C   3)                  1.0989         0.348518   
     56. B(H  54,C   4)                  1.0974         0.350404   
     57. B(H  55,C   4)                  1.1003         0.346775   
     58. B(H  56,C   5)                  1.1034         0.342783   
     59. B(H  57,C   5)                  1.0953         0.353154   
     60. B(H  58,N   9)                  1.0277         0.405462   
     61. B(H  59,C  10)                  1.1040         0.342102   
     62. B(H  60,N  12)                  1.0202         0.416729   
     63. B(H  61,C  13)                  1.1015         0.345199   
     64. B(H  62,H  56)                  4.4654         0.000000   
     65. B(H  62,N  15)                  1.0152         0.424579   
     66. B(H  63,C  16)                  1.0961         0.352185   
     67. B(H  64,C  16)                  1.1020         0.344554   
     68. B(H  65,C  17)                  1.1025         0.343945   
     69. B(H  66,C  18)                  1.0997         0.347543   
     70. B(H  67,N  20)                  1.0205         0.416259   
     71. B(H  68,C  21)                  1.0978         0.349905   
     72. B(H  69,N  23)                  1.0218         0.414302   
     73. B(H  70,C  24)                  1.1020         0.344615   
     74. B(H  71,C  25)                  1.0973         0.350556   
     75. B(H  72,C  25)                  1.0968         0.351253   
     76. B(H  73,C  25)                  1.0979         0.349815   
     77. B(H  74,C  27)                  1.1062         0.339311   
     78. B(H  75,C  27)                  1.1042         0.341796   
     79. B(H  76,C  28)                  1.1006         0.346368   
     80. B(H  77,C  29)                  1.0978         0.349947   
     81. B(H  78,C  29)                  1.1022         0.344320   
     82. B(H  79,C  29)                  1.0993         0.348014   
     83. B(H  80,H  56)                  3.1181         0.000040   
     84. B(H  80,C  30)                  1.1009         0.345979   
     85. B(H  81,C  30)                  1.0992         0.348180   
     86. B(H  82,C  30)                  1.1020         0.344608   
     87. B(H  83,C  33)                  1.0986         0.348879   
     88. B(H  84,C  33)                  1.1060         0.339493   
     89. B(H  85,C  34)                  1.1014         0.345339   
     90. B(H  86,H  59)                  2.1049         0.001657   
     91. B(H  86,C  34)                  1.0988         0.348581   
     92. B(H  87,H  73)                  2.2641         0.000923   
     93. B(H  87,C  35)                  1.1037         0.342474   
     94. B(H  88,C  35)                  1.1032         0.343094   
     95. B(H  89,C  36)                  1.1030         0.343348   
     96. B(H  90,C  36)                  1.1039         0.342161   
     97. B(H  91,C  37)                  1.1037         0.342365   
     98. B(H  92,C  37)                  1.1029         0.343413   
     99. B(H  93,C  38)                  1.1040         0.342070   
    100. B(H  94,C  38)                  1.1045         0.341460   
    101. B(H  95,C  39)                  1.1047         0.341143   
    102. B(H  96,O   8)                  2.7006         0.000869   
    103. B(H  96,C  39)                  1.1037         0.342465   
    104. B(H  97,C  40)                  1.1033         0.342951   
    105. B(H  98,C  40)                  1.1034         0.342769   
    106. B(H  99,C  41)                  1.0994         0.347840   
    107. B(H 100,C  41)                  1.1008         0.346126   
    108. B(H 101,C  41)                  1.1008         0.346120   
    109. B(H 102,O  43)                  0.9964         0.454836   
    110. B(H 103,H  74)                  2.7983         0.000130   
    111. B(H 103,C  45)                  1.1072         0.338069   
    112. B(H 104,C  45)                  1.0987         0.348822   
    113. B(H 105,C  46)                  1.0984         0.349209   
    114. B(H 106,C  46)                  1.1004         0.346541   
    115. B(H 107,C  46)                  1.0994         0.347862   
    116. B(H 108,H  95)                  2.1342         0.001488   
    117. B(H 108,C  48)                  1.1046         0.341304   
    118. B(H 109,C  49)                  1.0982         0.349373   
    119. B(H 110,C  49)                  1.0960         0.352202   
    120. B(H 111,C  49)                  1.0999         0.347226   
    121. B(H 112,C  50)                  1.1015         0.345158   
    122. B(H 113,C  50)                  1.0993         0.348018   
    123. B(H 114,C  50)                  1.0970         0.350976   
    124. A(O   0,C   1,N   9)          124.5355         0.469225   
    125. A(C   2,C   1,N   9)          113.3456         0.388992   
    126. A(O   0,C   1,C   2)          122.1176         0.421727   
    127. A(C   1,C   2,H  51)          107.9500         0.317158   
    128. A(N   6,C   2,H  51)          107.5647         0.323986   
    129. A(C   1,C   2,N   6)          111.4970         0.359374   
    130. A(C   1,C   2,C   3)          111.9813         0.355599   
    131. A(C   3,C   2,H  51)          113.2177         0.320705   
    132. A(C   3,C   2,N   6)          104.5679         0.363577   
    133. A(C   4,C   3,H  53)          111.3021         0.321183   
    134. A(C   4,C   3,H  52)          112.9486         0.321665   
    135. A(C   2,C   3,C   4)          105.2766         0.359907   
    136. A(C   2,C   3,H  53)          107.9057         0.321043   
    137. A(C   2,C   3,H  52)          111.5518         0.321525   
    138. A(H  52,C   3,H  53)          107.7771         0.288288   
    139. A(H  54,C   4,H  55)          108.0186         0.287892   
    140. A(C   3,C   4,H  55)          111.1246         0.320920   
    141. A(C   3,C   4,C   5)          103.1554         0.361886   
    142. A(C   3,C   4,H  54)          112.8496         0.321467   
    143. A(C   5,C   4,H  55)          109.3152         0.322473   
    144. A(C   5,C   4,H  54)          112.3304         0.323024   
    145. A(H  56,C   5,H  57)          108.0059         0.287722   
    146. A(C   4,C   5,N   6)          102.5025         0.368502   
    147. A(C   4,C   5,H  56)          110.9070         0.321862   
    148. A(N   6,C   5,H  57)          111.6033         0.327524   
    149. A(N   6,C   5,H  56)          109.7762         0.325921   
    150. A(C   4,C   5,H  57)          113.9707         0.323438   
    151. A(C   5,N   6,C   7)          127.5222         0.401289   
    152. A(C   2,N   6,C   7)          120.6875         0.398028   
    153. A(C   2,N   6,C   5)          110.5104         0.370404   
    154. A(O   8,C   7,C  24)          121.0018         0.422666   
    155. A(N   6,C   7,O   8)          121.6812         0.465317   
    156. A(N   6,C   7,C  24)          117.2829         0.393076   
    157. A(C   1,N   9,C  10)          125.1275         0.402347   
    158. A(C  10,N   9,H  58)          118.6668         0.333101   
    159. A(C   1,N   9,H  58)          116.0448         0.356058   
    160. A(C  48,C  10,H  59)          106.5269         0.318815   
    161. A(C  11,C  10,H  59)          105.3035         0.318502   
    162. A(N   9,C  10,C  11)          111.8982         0.365579   
    163. A(N   9,C  10,C  48)          111.9850         0.365955   
    164. A(N   9,C  10,H  59)          105.1141         0.326661   
    165. A(C  11,C  10,C  48)          115.1087         0.356448   
    166. A(N  12,C  11,O  47)          122.6125         0.466623   
    167. A(C  10,C  11,O  47)          124.0738         0.425996   
    168. A(C  10,C  11,N  12)          113.1792         0.388283   
    169. A(C  13,N  12,H  60)          119.1254         0.336413   
    170. A(C  11,N  12,C  13)          120.0765         0.401184   
    171. A(C  11,N  12,H  60)          119.5200         0.354782   
    172. A(C  14,C  13,C  45)          116.6543         0.360833   
    173. A(N  12,C  13,H  61)          105.4423         0.328885   
    174. A(C  14,C  13,H  61)          105.8496         0.321424   
    175. A(N  12,C  13,C  14)          107.9786         0.370570   
    176. A(C  45,C  13,H  61)          108.4724         0.320589   
    177. A(N  12,C  13,C  45)          111.7177         0.369558   
    178. A(C  13,C  14,N  15)          116.3518         0.394957   
    179. A(N  15,C  14,O  44)          122.4940         0.466154   
    180. A(C  13,C  14,O  44)          121.0824         0.425298   
    181. A(C  14,N  15,H  62)          116.9875         0.358979   
    182. A(C  16,N  15,H  62)          117.2395         0.336100   
    183. A(C  14,N  15,C  16)          125.0374         0.403048   
    184. A(H  63,C  16,H  64)          108.0714         0.287831   
    185. A(C  17,C  16,H  64)          106.4045         0.319802   
    186. A(N  15,C  16,H  63)          106.2720         0.328655   
    187. A(C  17,C  16,H  63)          109.1276         0.320949   
    188. A(N  15,C  16,C  17)          116.8131         0.367191   
    189. A(N  15,C  16,H  64)          109.8967         0.327470   
    190. A(O  43,C  17,H  65)          106.5742         0.338833   
    191. A(C  18,C  17,H  65)          103.5427         0.310631   
    192. A(C  16,C  17,H  65)          105.6322         0.319709   
    193. A(C  16,C  17,C  18)          114.9627         0.347650   
    194. A(C  18,C  17,O  43)          112.3873         0.369090   
    195. A(C  16,C  17,O  43)          112.6878         0.380563   
    196. A(C  19,C  18,H  66)          105.2913         0.321459   
    197. A(C  17,C  18,H  66)          102.9151         0.311153   
    198. A(C  17,C  18,C  32)          115.3561         0.351664   
    199. A(C  17,C  18,C  19)          109.9474         0.348998   
    200. A(C  19,C  18,C  32)          115.7976         0.363848   
    201. A(C  32,C  18,H  66)          106.0839         0.323842   
    202. A(C  18,C  19,N  20)          114.6799         0.391422   
    203. A(N  20,C  19,O  31)          124.1551         0.466779   
    204. A(C  18,C  19,O  31)          121.0985         0.428849   
    205. A(C  19,N  20,H  67)          114.3789         0.355036   
    206. A(C  19,N  20,C  21)          124.1558         0.402336   
    207. A(C  21,N  20,H  67)          117.0355         0.336962   
    208. A(C  27,C  21,H  68)          110.8178         0.320079   
    209. A(C  22,C  21,H  68)          106.8109         0.320566   
    210. A(N  20,C  21,H  68)          107.4913         0.330217   
    211. A(N  20,C  21,C  22)          112.7221         0.369365   
    212. A(C  22,C  21,C  27)          111.1466         0.357582   
    213. A(N  20,C  21,C  27)          107.8152         0.368775   
    214. A(C  21,C  22,N  23)          115.7795         0.391277   
    215. A(C  21,C  22,O  26)          120.8922         0.425434   
    216. A(N  23,C  22,O  26)          123.2322         0.466846   
    217. A(C  22,N  23,C  24)          122.5574         0.402683   
    218. A(C  24,N  23,H  69)          117.4349         0.335760   
    219. A(C  22,N  23,H  69)          119.9832         0.356058   
    220. A(C  25,C  24,H  70)          109.5615         0.322925   
    221. A(N  23,C  24,H  70)          105.3901         0.328476   
    222. A(C   7,C  24,H  70)          109.5564         0.319968   
    223. A(N  23,C  24,C  25)          111.9514         0.372122   
    224. A(C   7,C  24,N  23)          108.8855         0.368544   
    225. A(C   7,C  24,C  25)          111.3118         0.362063   
    226. A(H  71,C  25,H  73)          109.1883         0.288305   
    227. A(C  24,C  25,H  73)          110.7422         0.323719   
    228. A(H  71,C  25,H  72)          109.3159         0.288490   
    229. A(C  24,C  25,H  72)          110.6243         0.323937   
    230. A(C  24,C  25,H  71)          109.3388         0.323831   
    231. A(H  72,C  25,H  73)          107.5948         0.288394   
    232. A(C  28,C  27,H  75)          108.7556         0.320709   
    233. A(C  21,C  27,C  28)          117.8517         0.359178   
    234. A(H  74,C  27,H  75)          106.3926         0.285804   
    235. A(C  21,C  27,H  75)          106.4764         0.318856   
    236. A(C  28,C  27,H  74)          108.9517         0.320327   
    237. A(C  21,C  27,H  74)          107.8367         0.318477   
    238. A(C  29,C  28,C  30)          111.3481         0.362304   
    239. A(C  27,C  28,C  30)          109.1745         0.361668   
    240. A(C  27,C  28,C  29)          111.7375         0.361992   
    241. A(C  30,C  28,H  76)          108.5970         0.321674   
    242. A(C  29,C  28,H  76)          107.6683         0.321950   
    243. A(C  27,C  28,H  76)          108.2067         0.321407   
    244. A(C  28,C  29,H  79)          110.6193         0.322200   
    245. A(H  78,C  29,H  79)          107.6769         0.287265   
    246. A(H  77,C  29,H  79)          107.4845         0.287994   
    247. A(H  77,C  29,H  78)          108.5791         0.287514   
    248. A(C  28,C  29,H  78)          111.0015         0.321637   
    249. A(C  28,C  29,H  77)          111.3336         0.322492   
    250. A(H  81,C  30,H  82)          107.5978         0.287324   
    251. A(H  80,C  30,H  82)          107.7119         0.287039   
    252. A(C  28,C  30,H  82)          111.0527         0.321405   
    253. A(H  80,C  30,H  81)          107.8282         0.287502   
    254. A(C  28,C  30,H  81)          110.9671         0.321949   
    255. A(C  28,C  30,H  80)          111.5105         0.321614   
    256. A(C  33,C  32,O  42)          120.2432         0.433395   
    257. A(C  18,C  32,O  42)          122.4918         0.428743   
    258. A(C  18,C  32,C  33)          117.2615         0.370469   
    259. A(C  32,C  33,C  34)          114.1260         0.369141   
    260. A(C  34,C  33,H  84)          110.0233         0.321498   
    261. A(H  83,C  33,H  84)          105.2925         0.286743   
    262. A(C  32,C  33,H  84)          104.3577         0.325799   
    263. A(C  34,C  33,H  83)          112.3834         0.322937   
    264. A(C  32,C  33,H  83)          109.9883         0.327265   
    265. A(C  33,C  34,C  35)          112.8114         0.363533   
    266. A(H  85,C  34,H  86)          106.5662         0.287470   
    267. A(C  35,C  34,H  86)          110.1020         0.322450   
    268. A(C  33,C  34,H  86)          108.5832         0.322892   
    269. A(C  35,C  34,H  85)          109.9223         0.321957   
    270. A(C  33,C  34,H  85)          108.6468         0.322398   
    271. A(C  34,C  35,C  36)          114.0837         0.362521   
    272. A(H  87,C  35,H  88)          106.2738         0.286387   
    273. A(C  36,C  35,H  88)          109.5776         0.321194   
    274. A(C  34,C  35,H  88)          109.0920         0.321613   
    275. A(C  36,C  35,H  87)          108.6936         0.321099   
    276. A(C  34,C  35,H  87)          108.8261         0.321518   
    277. A(C  35,C  36,C  37)          113.5130         0.362374   
    278. A(H  89,C  36,H  90)          106.0467         0.286379   
    279. A(C  37,C  36,H  90)          109.7754         0.321345   
    280. A(C  35,C  36,H  90)          109.7065         0.321051   
    281. A(C  37,C  36,H  89)          108.9468         0.321528   
    282. A(C  35,C  36,H  89)          108.5711         0.321233   
    283. A(C  36,C  37,C  38)          113.9561         0.363229   
    284. A(H  91,C  37,H  92)          106.6868         0.286414   
    285. A(C  38,C  37,H  92)          108.4872         0.321969   
    286. A(C  36,C  37,H  92)          109.1246         0.321538   
    287. A(C  38,C  37,H  91)          108.6688         0.321808   
    288. A(C  36,C  37,H  91)          109.6603         0.321377   
    289. A(C  37,C  38,C  39)          112.6239         0.363657   
    290. A(H  93,C  38,H  94)          106.1804         0.286121   
    291. A(C  39,C  38,H  94)          109.6361         0.321600   
    292. A(C  37,C  38,H  94)          109.8867         0.321668   
    293. A(C  39,C  38,H  93)          109.3099         0.321694   
    294. A(C  37,C  38,H  93)          108.9944         0.321762   
    295. A(C  38,C  39,C  40)          114.1211         0.363510   
    296. A(H  95,C  39,H  96)          106.2557         0.286131   
    297. A(C  40,C  39,H  96)          109.2540         0.321698   
    298. A(C  38,C  39,H  96)          108.9104         0.321755   
    299. A(C  40,C  39,H  95)          108.9569         0.321495   
    300. A(C  38,C  39,H  95)          109.0484         0.321551   
    301. A(C  39,C  40,C  41)          112.7605         0.363412   
    302. A(H  97,C  40,H  98)          106.0378         0.286406   
    303. A(C  41,C  40,H  98)          109.6937         0.321718   
    304. A(C  39,C  40,H  98)          109.3433         0.321745   
    305. A(C  41,C  40,H  97)          109.6695         0.321747   
    306. A(C  39,C  40,H  97)          109.1117         0.321773   
    307. A(H 100,C  41,H 101)          107.4180         0.287255   
    308. A(H  99,C  41,H 101)          107.7091         0.287476   
    309. A(C  40,C  41,H 101)          111.0564         0.322232   
    310. A(H  99,C  41,H 100)          107.7358         0.287477   
    311. A(C  40,C  41,H 100)          110.9636         0.322232   
    312. A(C  40,C  41,H  99)          111.7671         0.322493   
    313. A(C  17,O  43,H 102)          106.0322         0.352044   
    314. A(C  13,C  45,C  46)          113.6257         0.361724   
    315. A(C  46,C  45,H 104)          110.4192         0.322739   
    316. A(C  13,C  45,H 104)          106.2250         0.321137   
    317. A(C  46,C  45,H 103)          111.3832         0.321088   
    318. A(C  13,C  45,H 103)          110.2334         0.319497   
    319. A(H 103,C  45,H 104)          104.4341         0.286548   
    320. A(H 106,C  46,H 107)          107.3680         0.287534   
    321. A(H 105,C  46,H 107)          107.6600         0.287879   
    322. A(C  45,C  46,H 107)          110.2946         0.322593   
    323. A(H 105,C  46,H 106)          107.6731         0.287707   
    324. A(C  45,C  46,H 106)          112.7126         0.322392   
    325. A(C  45,C  46,H 105)          110.9258         0.322797   
    326. A(C  50,C  48,H 108)          107.4703         0.320895   
    327. A(C  49,C  48,H 108)          107.5589         0.321223   
    328. A(C  10,C  48,H 108)          103.8953         0.318694   
    329. A(C  49,C  48,C  50)          112.3399         0.362357   
    330. A(C  10,C  48,C  50)          110.9855         0.359379   
    331. A(C  10,C  48,C  49)          113.9692         0.359762   
    332. A(H 110,C  49,H 111)          108.8281         0.288181   
    333. A(H 109,C  49,H 111)          107.6909         0.287818   
    334. A(C  48,C  49,H 111)          109.6698         0.322129   
    335. A(H 109,C  49,H 110)          108.1345         0.288459   
    336. A(C  48,C  49,H 110)          110.8860         0.322881   
    337. A(C  48,C  49,H 109)          111.5341         0.322454   
    338. A(H 113,C  50,H 114)          108.4260         0.288126   
    339. A(H 112,C  50,H 114)          108.3388         0.287755   
    340. A(C  48,C  50,H 114)          110.8976         0.322367   
    341. A(H 112,C  50,H 113)          107.6256         0.287374   
    342. A(C  48,C  50,H 113)          110.1532         0.321920   
    343. A(C  48,C  50,H 112)          111.2886         0.321485   
    344. D(H  51,C   2,C   1,N   9)    -49.0604         0.008733   
    345. D(C   3,C   2,C   1,N   9)   -174.3456         0.008733   
    346. D(N   6,C   2,C   1,N   9)     68.8786         0.008733   
    347. D(N   6,C   2,C   1,O   0)   -110.7233         0.008733   
    348. D(C   3,C   2,C   1,O   0)      6.0525         0.008733   
    349. D(H  51,C   2,C   1,O   0)    131.3377         0.008733   
    350. D(C   4,C   3,C   2,N   6)    -12.6430         0.010549   
    351. D(H  53,C   3,C   2,H  51)   -136.9025         0.010549   
    352. D(H  53,C   3,C   2,C   1)    -14.5731         0.010549   
    353. D(C   4,C   3,C   2,H  51)    104.1499         0.010549   
    354. D(H  53,C   3,C   2,N   6)    106.3046         0.010549   
    355. D(H  52,C   3,C   2,H  51)    -18.7003         0.010549   
    356. D(C   4,C   3,C   2,C   1)   -133.5208         0.010549   
    357. D(H  52,C   3,C   2,C   1)    103.6291         0.010549   
    358. D(H  52,C   3,C   2,N   6)   -135.4932         0.010549   
    359. D(H  55,C   4,C   3,H  53)    157.2371         0.010602   
    360. D(H  55,C   4,C   3,H  52)     35.8397         0.010602   
    361. D(H  54,C   4,C   3,H  52)    -85.6707         0.010602   
    362. D(H  55,C   4,C   3,C   2)    -86.1100         0.010602   
    363. D(H  54,C   4,C   3,H  53)     35.7267         0.010602   
    364. D(C   5,C   4,C   3,C   2)     30.9198         0.010602   
    365. D(H  54,C   4,C   3,C   2)    152.3797         0.010602   
    366. D(C   5,C   4,C   3,H  53)    -85.7332         0.010602   
    367. D(C   5,C   4,C   3,H  52)    152.8695         0.010602   
    368. D(N   6,C   5,C   4,C   3)    -37.2204         0.011205   
    369. D(H  57,C   5,C   4,C   3)   -157.9713         0.011205   
    370. D(H  56,C   5,C   4,H  55)   -161.8096         0.011205   
    371. D(H  56,C   5,C   4,C   3)     79.8894         0.011205   
    372. D(H  57,C   5,C   4,H  54)     80.2182         0.011205   
    373. D(H  56,C   5,C   4,H  54)    -41.9211         0.011205   
    374. D(H  57,C   5,C   4,H  55)    -39.6703         0.011205   
    375. D(N   6,C   5,C   4,H  54)   -159.0309         0.011205   
    376. D(N   6,C   5,C   4,H  55)     81.0806         0.011205   
    377. D(C   5,N   6,C   2,C   3)    -11.5276         0.013688   
    378. D(C   7,N   6,C   5,H  57)    -13.7207         0.015000   
    379. D(C   7,N   6,C   5,H  56)    105.9945         0.015000   
    380. D(C   7,N   6,C   5,C   4)   -136.0908         0.015000   
    381. D(C   2,N   6,C   5,H  57)    153.2646         0.015000   
    382. D(C   2,N   6,C   5,H  56)    -87.0202         0.015000   
    383. D(C   7,N   6,C   2,H  51)     35.8541         0.013688   
    384. D(C   2,N   6,C   5,C   4)     30.8944         0.015000   
    385. D(C   7,N   6,C   2,C   3)    156.4850         0.013688   
    386. D(C   5,N   6,C   2,C   1)    109.6710         0.013688   
    387. D(C   7,N   6,C   2,C   1)    -82.3164         0.013688   
    388. D(C   5,N   6,C   2,H  51)   -132.1584         0.013688   
    389. D(C  24,C   7,N   6,C   5)    -12.5909         0.032705   
    390. D(C  24,C   7,N   6,C   2)   -178.3929         0.032705   
    391. D(O   8,C   7,N   6,C   5)    169.5130         0.032705   
    392. D(O   8,C   7,N   6,C   2)      3.7110         0.032705   
    393. D(H  58,N   9,C   1,O   0)    177.8759         0.032646   
    394. D(C  10,N   9,C   1,C   2)    173.5927         0.032646   
    395. D(H  58,N   9,C   1,C   2)     -1.7148         0.032646   
    396. D(C  10,N   9,C   1,O   0)     -6.8166         0.032646   
    397. D(H  59,C  10,N   9,C   1)    152.9356         0.015479   
    398. D(C  48,C  10,N   9,H  58)     83.3953         0.015479   
    399. D(C  48,C  10,N   9,C   1)    -91.7995         0.015479   
    400. D(C  11,C  10,N   9,C   1)     39.1565         0.015479   
    401. D(H  59,C  10,N   9,H  58)    -31.8696         0.015479   
    402. D(C  11,C  10,N   9,H  58)   -145.6487         0.015479   
    403. D(O  47,C  11,C  10,N   9)   -126.7612         0.009356   
    404. D(N  12,C  11,C  10,H  59)    -56.2948         0.009356   
    405. D(N  12,C  11,C  10,C  48)   -173.2910         0.009356   
    406. D(N  12,C  11,C  10,N   9)     57.3671         0.009356   
    407. D(O  47,C  11,C  10,H  59)    119.5769         0.009356   
    408. D(O  47,C  11,C  10,C  48)      2.5807         0.009356   
    409. D(H  60,N  12,C  11,O  47)    179.3180         0.029402   
    410. D(H  60,N  12,C  11,C  10)     -4.7415         0.029402   
    411. D(C  13,N  12,C  11,O  47)     12.3396         0.029402   
    412. D(C  13,N  12,C  11,C  10)   -171.7199         0.029402   
    413. D(H  61,C  13,N  12,C  11)    -30.7297         0.016509   
    414. D(H  61,C  13,N  12,H  60)    162.2407         0.016509   
    415. D(C  45,C  13,N  12,H  60)    -80.1229         0.016509   
    416. D(C  45,C  13,N  12,C  11)     86.9066         0.016509   
    417. D(C  14,C  13,N  12,C  11)   -143.5305         0.016509   
    418. D(C  14,C  13,N  12,H  60)     49.4399         0.016509   
    419. D(O  44,C  14,C  13,C  45)   -159.0353         0.010198   
    420. D(O  44,C  14,C  13,N  12)     74.2255         0.010198   
    421. D(N  15,C  14,C  13,H  61)    144.7047         0.010198   
    422. D(N  15,C  14,C  13,C  45)     23.9715         0.010198   
    423. D(O  44,C  14,C  13,H  61)    -38.3021         0.010198   
    424. D(N  15,C  14,C  13,N  12)   -102.7677         0.010198   
    425. D(H  62,N  15,C  14,O  44)    176.2485         0.032787   
    426. D(H  62,N  15,C  14,C  13)     -6.8046         0.032787   
    427. D(C  16,N  15,C  14,O  44)      6.3798         0.032787   
    428. D(C  16,N  15,C  14,C  13)   -176.6733         0.032787   
    429. D(H  64,C  16,N  15,H  62)   -108.5773         0.015724   
    430. D(H  64,C  16,N  15,C  14)     61.2684         0.015724   
    431. D(H  63,C  16,N  15,H  62)      8.1218         0.015724   
    432. D(H  63,C  16,N  15,C  14)    177.9674         0.015724   
    433. D(C  17,C  16,N  15,C  14)    -60.0273         0.015724   
    434. D(C  17,C  16,N  15,H  62)    130.1270         0.015724   
    435. D(H  65,C  17,C  16,H  64)     73.5632         0.010311   
    436. D(H  65,C  17,C  16,H  63)    -42.8196         0.010311   
    437. D(H  65,C  17,C  16,N  15)   -163.3231         0.010311   
    438. D(O  43,C  17,C  16,H  64)    -42.4154         0.010311   
    439. D(O  43,C  17,C  16,H  63)   -158.7982         0.010311   
    440. D(O  43,C  17,C  16,N  15)     80.6984         0.010311   
    441. D(C  18,C  17,C  16,H  64)   -172.9538         0.010311   
    442. D(C  18,C  17,C  16,H  63)     70.6634         0.010311   
    443. D(C  18,C  17,C  16,N  15)    -49.8401         0.010311   
    444. D(H  66,C  18,C  17,H  65)    -53.8371         0.007505   
    445. D(H  66,C  18,C  17,O  43)     60.7798         0.007505   
    446. D(H  66,C  18,C  17,C  16)   -168.5364         0.007505   
    447. D(C  32,C  18,C  17,O  43)    -54.2573         0.007505   
    448. D(C  32,C  18,C  17,C  16)     76.4265         0.007505   
    449. D(C  32,C  18,C  17,H  65)   -168.8742         0.007505   
    450. D(C  19,C  18,C  17,H  65)     57.9441         0.007505   
    451. D(C  19,C  18,C  17,O  43)    172.5609         0.007505   
    452. D(C  19,C  18,C  17,C  16)    -56.7552         0.007505   
    453. D(O  31,C  19,C  18,H  66)     18.7813         0.010083   
    454. D(O  31,C  19,C  18,C  32)    135.5996         0.010083   
    455. D(O  31,C  19,C  18,C  17)    -91.4448         0.010083   
    456. D(N  20,C  19,C  18,H  66)   -164.0665         0.010083   
    457. D(N  20,C  19,C  18,C  17)     85.7075         0.010083   
    458. D(N  20,C  19,C  18,C  32)    -47.2482         0.010083   
    459. D(H  67,N  20,C  19,O  31)   -169.5511         0.029741   
    460. D(H  67,N  20,C  19,C  18)     13.3957         0.029741   
    461. D(C  21,N  20,C  19,O  31)    -13.9733         0.029741   
    462. D(C  21,N  20,C  19,C  18)    168.9736         0.029741   
    463. D(H  68,C  21,N  20,H  67)   -178.4490         0.016877   
    464. D(H  68,C  21,N  20,C  19)     26.5619         0.016877   
    465. D(C  27,C  21,N  20,H  67)    -58.9331         0.016877   
    466. D(C  27,C  21,N  20,C  19)    146.0779         0.016877   
    467. D(C  22,C  21,N  20,H  67)     64.1177         0.016877   
    468. D(C  22,C  21,N  20,C  19)    -90.8713         0.016877   
    469. D(N  23,C  22,C  21,C  27)    107.8889         0.009651   
    470. D(N  23,C  22,C  21,N  20)    -13.2838         0.009651   
    471. D(O  26,C  22,C  21,H  68)     52.3326         0.009651   
    472. D(O  26,C  22,C  21,C  27)    -68.6604         0.009651   
    473. D(O  26,C  22,C  21,N  20)    170.1669         0.009651   
    474. D(N  23,C  22,C  21,H  68)   -131.1181         0.009651   
    475. D(H  69,N  23,C  22,O  26)   -177.1381         0.031159   
    476. D(H  69,N  23,C  22,C  21)      6.4022         0.031159   
    477. D(C  24,N  23,C  22,O  26)      1.0157         0.031159   
    478. D(C  24,N  23,C  22,C  21)   -175.4440         0.031159   
    479. D(H  70,C  24,N  23,H  69)   -174.1985         0.016316   
    480. D(H  70,C  24,N  23,C  22)      7.6033         0.016316   
    481. D(C  25,C  24,N  23,H  69)     66.7657         0.016316   
    482. D(C  25,C  24,N  23,C  22)   -111.4325         0.016316   
    483. D(C   7,C  24,N  23,H  69)    -56.7403         0.016316   
    484. D(C   7,C  24,N  23,C  22)    125.0615         0.016316   
    485. D(H  70,C  24,C   7,O   8)   -123.9735         0.009719   
    486. D(H  70,C  24,C   7,N   6)     58.1152         0.009719   
    487. D(C  25,C  24,C   7,O   8)     -2.6427         0.009719   
    488. D(C  25,C  24,C   7,N   6)    179.4460         0.009719   
    489. D(N  23,C  24,C   7,O   8)    121.2436         0.009719   
    490. D(N  23,C  24,C   7,N   6)    -56.6677         0.009719   
    491. D(H  73,C  25,C  24,H  70)   -177.9323         0.011523   
    492. D(H  73,C  25,C  24,N  23)    -61.3893         0.011523   
    493. D(H  73,C  25,C  24,C   7)     60.7398         0.011523   
    494. D(H  72,C  25,C  24,H  70)     62.8650         0.011523   
    495. D(H  72,C  25,C  24,N  23)    179.4081         0.011523   
    496. D(H  72,C  25,C  24,C   7)    -58.4628         0.011523   
    497. D(H  71,C  25,C  24,H  70)    -57.5757         0.011523   
    498. D(H  71,C  25,C  24,N  23)     58.9674         0.011523   
    499. D(H  71,C  25,C  24,C   7)   -178.9035         0.011523   
    500. D(H  75,C  27,C  21,H  68)     61.8342         0.010120   
    501. D(H  75,C  27,C  21,C  22)   -179.5571         0.010120   
    502. D(H  75,C  27,C  21,N  20)    -55.5488         0.010120   
    503. D(H  74,C  27,C  21,H  68)    175.6836         0.010120   
    504. D(H  74,C  27,C  21,C  22)    -65.7078         0.010120   
    505. D(H  74,C  27,C  21,N  20)     58.3005         0.010120   
    506. D(C  28,C  27,C  21,H  68)    -60.5444         0.010120   
    507. D(C  28,C  27,C  21,C  22)     58.0643         0.010120   
    508. D(C  28,C  27,C  21,N  20)   -177.9274         0.010120   
    509. D(H  76,C  28,C  27,H  75)    179.7211         0.010811   
    510. D(H  76,C  28,C  27,H  74)     64.1438         0.010811   
    511. D(H  76,C  28,C  27,C  21)    -59.0679         0.010811   
    512. D(C  30,C  28,C  27,H  75)     61.6990         0.010811   
    513. D(C  30,C  28,C  27,H  74)    -53.8782         0.010811   
    514. D(C  30,C  28,C  27,C  21)   -177.0900         0.010811   
    515. D(C  29,C  28,C  27,H  75)    -61.9130         0.010811   
    516. D(C  29,C  28,C  27,H  74)   -177.4902         0.010811   
    517. D(C  29,C  28,C  27,C  21)     59.2980         0.010811   
    518. D(H  79,C  29,C  28,C  30)     53.8722         0.011022   
    519. D(H  79,C  29,C  28,C  27)    176.2482         0.011022   
    520. D(H  78,C  29,C  28,H  76)    175.4652         0.011022   
    521. D(H  78,C  29,C  28,C  30)    -65.5974         0.011022   
    522. D(H  78,C  29,C  28,C  27)     56.7786         0.011022   
    523. D(H  77,C  29,C  28,H  76)     54.3792         0.011022   
    524. D(H  77,C  29,C  28,C  30)    173.3166         0.011022   
    525. D(H  79,C  29,C  28,H  76)    -65.0652         0.011022   
    526. D(H  77,C  29,C  28,C  27)    -64.3074         0.011022   
    527. D(H  82,C  30,C  28,H  76)    179.4856         0.010914   
    528. D(H  82,C  30,C  28,C  29)     61.1047         0.010914   
    529. D(H  82,C  30,C  28,C  27)    -62.7375         0.010914   
    530. D(H  81,C  30,C  28,H  76)     59.8532         0.010914   
    531. D(H  81,C  30,C  28,C  29)    -58.5277         0.010914   
    532. D(H  81,C  30,C  28,C  27)    177.6301         0.010914   
    533. D(H  80,C  30,C  28,H  76)    -60.3752         0.010914   
    534. D(H  80,C  30,C  28,C  29)   -178.7562         0.010914   
    535. D(H  80,C  30,C  28,C  27)     57.4016         0.010914   
    536. D(O  42,C  32,C  18,H  66)    137.9364         0.010969   
    537. D(O  42,C  32,C  18,C  19)     21.5628         0.010969   
    538. D(O  42,C  32,C  18,C  17)   -108.8570         0.010969   
    539. D(C  33,C  32,C  18,H  66)    -41.3873         0.010969   
    540. D(C  33,C  32,C  18,C  19)   -157.7609         0.010969   
    541. D(C  33,C  32,C  18,C  17)     71.8193         0.010969   
    542. D(H  84,C  33,C  32,O  42)     93.1057         0.012298   
    543. D(H  84,C  33,C  32,C  18)    -87.5546         0.012298   
    544. D(H  83,C  33,C  32,O  42)   -154.3866         0.012298   
    545. D(H  83,C  33,C  32,C  18)     24.9530         0.012298   
    546. D(C  34,C  33,C  32,O  42)    -27.0207         0.012298   
    547. D(C  34,C  33,C  32,C  18)    152.3189         0.012298   
    548. D(H  86,C  34,C  33,H  84)    -63.4268         0.011263   
    549. D(H  86,C  34,C  33,H  83)    179.5937         0.011263   
    550. D(H  86,C  34,C  33,C  32)     53.4713         0.011263   
    551. D(H  85,C  34,C  33,H  84)     52.0995         0.011263   
    552. D(H  85,C  34,C  33,H  83)    -64.8800         0.011263   
    553. D(H  85,C  34,C  33,C  32)    168.9977         0.011263   
    554. D(C  35,C  34,C  33,H  84)    174.2447         0.011263   
    555. D(C  35,C  34,C  33,H  83)     57.2652         0.011263   
    556. D(C  35,C  34,C  33,C  32)    -68.8572         0.011263   
    557. D(H  88,C  35,C  34,H  86)   -178.0355         0.011087   
    558. D(H  88,C  35,C  34,H  85)     64.8614         0.011087   
    559. D(H  88,C  35,C  34,C  33)    -56.5636         0.011087   
    560. D(H  87,C  35,C  34,H  86)    -62.4850         0.011087   
    561. D(H  87,C  35,C  34,H  85)   -179.5881         0.011087   
    562. D(H  87,C  35,C  34,C  33)     58.9870         0.011087   
    563. D(C  36,C  35,C  34,H  86)     59.0690         0.011087   
    564. D(C  36,C  35,C  34,H  85)    -58.0341         0.011087   
    565. D(C  36,C  35,C  34,C  33)   -179.4590         0.011087   
    566. D(H  90,C  36,C  35,H  87)   -173.6267         0.010922   
    567. D(H  90,C  36,C  35,C  34)     64.7461         0.010922   
    568. D(H  89,C  36,C  35,H  88)     57.5884         0.010922   
    569. D(H  89,C  36,C  35,H  87)    -58.1536         0.010922   
    570. D(H  89,C  36,C  35,C  34)   -179.7809         0.010922   
    571. D(C  37,C  36,C  35,H  88)    178.9019         0.010922   
    572. D(C  37,C  36,C  35,H  87)     63.1598         0.010922   
    573. D(H  90,C  36,C  35,H  88)    -57.8846         0.010922   
    574. D(C  37,C  36,C  35,C  34)    -58.4674         0.010922   
    575. D(H  92,C  37,C  36,H  90)   -168.7156         0.011038   
    576. D(H  92,C  37,C  36,H  89)     75.5629         0.011038   
    577. D(H  92,C  37,C  36,C  35)    -45.5399         0.011038   
    578. D(H  91,C  37,C  36,H  90)    -52.1889         0.011038   
    579. D(H  91,C  37,C  36,H  89)   -167.9103         0.011038   
    580. D(H  91,C  37,C  36,C  35)     70.9868         0.011038   
    581. D(C  38,C  37,C  36,H  90)     69.8634         0.011038   
    582. D(C  38,C  37,C  36,H  89)    -45.8581         0.011038   
    583. D(C  38,C  37,C  36,C  35)   -166.9609         0.011038   
    584. D(H  94,C  38,C  37,H  92)   -177.7609         0.011209   
    585. D(H  94,C  38,C  37,H  91)     66.6098         0.011209   
    586. D(H  94,C  38,C  37,C  36)    -55.9870         0.011209   
    587. D(H  93,C  38,C  37,H  92)    -61.7901         0.011209   
    588. D(H  93,C  38,C  37,H  91)   -177.4194         0.011209   
    589. D(H  93,C  38,C  37,C  36)     59.9838         0.011209   
    590. D(C  39,C  38,C  37,H  92)     59.6985         0.011209   
    591. D(C  39,C  38,C  37,H  91)    -55.9309         0.011209   
    592. D(C  39,C  38,C  37,C  36)   -178.5277         0.011209   
    593. D(H  95,C  39,C  38,H  94)    -61.9933         0.011182   
    594. D(H  95,C  39,C  38,H  93)   -178.0029         0.011182   
    595. D(H  95,C  39,C  38,C  37)     60.6881         0.011182   
    596. D(C  40,C  39,C  38,H  94)     60.0903         0.011182   
    597. D(C  40,C  39,C  38,H  93)    -55.9193         0.011182   
    598. D(C  40,C  39,C  38,C  37)   -177.2283         0.011182   
    599. D(H  96,C  39,C  38,H  94)   -177.5446         0.011182   
    600. D(H  96,C  39,C  38,H  93)     66.4459         0.011182   
    601. D(H  96,C  39,C  38,C  37)    -54.8631         0.011182   
    602. D(H  98,C  40,C  39,H  95)     64.7484         0.011159   
    603. D(H  98,C  40,C  39,C  38)    -57.3854         0.011159   
    604. D(H  97,C  40,C  39,H  96)    -63.9982         0.011159   
    605. D(H  97,C  40,C  39,H  95)   -179.6875         0.011159   
    606. D(H  97,C  40,C  39,C  38)     58.1787         0.011159   
    607. D(C  41,C  40,C  39,H  96)     58.1214         0.011159   
    608. D(C  41,C  40,C  39,H  95)    -57.5679         0.011159   
    609. D(H  98,C  40,C  39,H  96)   -179.5623         0.011159   
    610. D(C  41,C  40,C  39,C  38)   -179.7016         0.011159   
    611. D(H 101,C  41,C  40,H  98)    -62.2749         0.011148   
    612. D(H 101,C  41,C  40,H  97)   -178.3506         0.011148   
    613. D(H 101,C  41,C  40,C  39)     59.8443         0.011148   
    614. D(H 100,C  41,C  40,H  98)    178.3187         0.011148   
    615. D(H 100,C  41,C  40,H  97)     62.2430         0.011148   
    616. D(H 100,C  41,C  40,C  39)    -59.5621         0.011148   
    617. D(H  99,C  41,C  40,H  98)     58.0368         0.011148   
    618. D(H  99,C  41,C  40,H  97)    -58.0389         0.011148   
    619. D(H  99,C  41,C  40,C  39)   -179.8440         0.011148   
    620. D(H 102,O  43,C  17,H  65)   -154.3997         0.022171   
    621. D(H 102,O  43,C  17,C  18)     92.8428         0.022171   
    622. D(H 102,O  43,C  17,C  16)    -38.9863         0.022171   
    623. D(H 104,C  45,C  13,H  61)     68.5008         0.010567   
    624. D(H 104,C  45,C  13,C  14)   -172.1672         0.010567   
    625. D(H 104,C  45,C  13,N  12)    -47.2997         0.010567   
    626. D(H 103,C  45,C  13,H  61)   -178.9213         0.010567   
    627. D(H 103,C  45,C  13,C  14)    -59.5893         0.010567   
    628. D(H 103,C  45,C  13,N  12)     65.2782         0.010567   
    629. D(C  46,C  45,C  13,H  61)    -53.0927         0.010567   
    630. D(C  46,C  45,C  13,C  14)     66.2393         0.010567   
    631. D(C  46,C  45,C  13,N  12)   -168.8932         0.010567   
    632. D(H 107,C  46,C  45,H 104)    -59.8569         0.011187   
    633. D(H 107,C  46,C  45,H 103)   -175.4140         0.011187   
    634. D(H 107,C  46,C  45,C  13)     59.3695         0.011187   
    635. D(H 106,C  46,C  45,H 104)   -179.8442         0.011187   
    636. D(H 106,C  46,C  45,H 103)     64.5987         0.011187   
    637. D(H 106,C  46,C  45,C  13)    -60.6179         0.011187   
    638. D(H 105,C  46,C  45,H 104)     59.3321         0.011187   
    639. D(H 105,C  46,C  45,H 103)    -56.2250         0.011187   
    640. D(H 105,C  46,C  45,C  13)    178.5585         0.011187   
    641. D(H 108,C  48,C  10,H  59)     63.0490         0.010088   
    642. D(H 108,C  48,C  10,C  11)    179.3500         0.010088   
    643. D(H 108,C  48,C  10,N   9)    -51.3508         0.010088   
    644. D(C  50,C  48,C  10,H  59)    -52.1728         0.010088   
    645. D(C  50,C  48,C  10,C  11)     64.1282         0.010088   
    646. D(C  50,C  48,C  10,N   9)   -166.5726         0.010088   
    647. D(C  49,C  48,C  10,H  59)    179.7988         0.010088   
    648. D(C  49,C  48,C  10,C  11)    -63.9003         0.010088   
    649. D(C  49,C  48,C  10,N   9)     65.3989         0.010088   
    650. D(H 111,C  49,C  48,C  50)     58.1497         0.011041   
    651. D(H 111,C  49,C  48,C  10)   -174.5184         0.011041   
    652. D(H 110,C  49,C  48,H 108)    179.8709         0.011041   
    653. D(H 110,C  49,C  48,C  50)    -62.0644         0.011041   
    654. D(H 110,C  49,C  48,C  10)     65.2675         0.011041   
    655. D(H 109,C  49,C  48,H 108)     59.2930         0.011041   
    656. D(H 109,C  49,C  48,C  50)    177.3577         0.011041   
    657. D(H 111,C  49,C  48,H 108)    -59.9150         0.011041   
    658. D(H 109,C  49,C  48,C  10)    -55.3104         0.011041   
    659. D(H 114,C  50,C  48,H 108)    178.5274         0.010912   
    660. D(H 114,C  50,C  48,C  49)     60.4103         0.010912   
    661. D(H 114,C  50,C  48,C  10)    -68.4952         0.010912   
    662. D(H 113,C  50,C  48,H 108)     58.4925         0.010912   
    663. D(H 113,C  50,C  48,C  49)    -59.6246         0.010912   
    664. D(H 113,C  50,C  48,C  10)    171.4698         0.010912   
    665. D(H 112,C  50,C  48,H 108)    -60.7935         0.010912   
    666. D(H 112,C  50,C  48,C  49)   -178.9105         0.010912   
    667. D(H 112,C  50,C  48,C  10)     52.1839         0.010912   
    -----------------------------------------------------------------

Number of atoms                         .... 115
Number of degrees of freedom            .... 667

         *************************************************************
         *                GEOMETRY OPTIMIZATION CYCLE   1            *
         *************************************************************
---------------------------------
CARTESIAN COORDINATES (ANGSTROEM)
---------------------------------
  O      3.829648   -1.457391   -0.744882
  C      3.198878   -0.723003   -1.506124
  C      3.683954    0.712561   -1.861924
  C      5.075443    1.011058   -1.278848
  C      4.955235    2.402145   -0.635791
  C      3.494880    2.452099   -0.184857
  N      2.802676    1.745483   -1.270216
  C      1.646616    2.102054   -1.882393
  O      1.252421    1.533418   -2.916442
  N      2.030500   -1.059690   -2.106558
  C      1.410927   -2.385532   -2.060278
  C      1.554859   -3.040991   -0.667362
  N      1.023291   -2.283789    0.342142
  C      1.233473   -2.667761    1.730203
  C     -0.045617   -2.341481    2.510414
  N     -0.014182   -1.224102    3.277220
  C     -1.097755   -0.773889    4.149442
  C     -2.451791   -0.472991    3.477396
  C     -2.372606    0.474535    2.203546
  C     -1.699345    1.801914    2.579247
  N     -0.332915    1.786486    2.518691
  C      0.500621    2.972875    2.604567
  C      0.799024    3.592069    1.224775
  N      0.498450    2.813369    0.148563
  C      0.808883    3.211221   -1.218293
  C     -0.450353    3.512611   -2.024316
  O      1.337896    4.697250    1.129902
  C      1.804488    2.582378    3.333623
  C      2.838487    3.685831    3.593600
  C      2.256544    4.819820    4.442818
  C      4.075815    3.070222    4.257053
  O     -2.361780    2.765188    2.953575
  C     -1.867025   -0.187479    0.928801
  C     -2.788231   -1.165020    0.246826
  C     -2.572175   -1.278756   -1.262011
  C     -2.990187   -0.015244   -2.018297
  C     -2.797888   -0.102576   -3.536586
  C     -1.351675   -0.384220   -3.954055
  C     -1.081153   -0.164206   -5.442923
  C      0.361824   -0.488392   -5.832936
  C      0.688383   -0.216446   -7.302524
  C      2.136187   -0.558007   -7.660166
  O     -0.752138    0.061345    0.445935
  O     -3.206613   -1.633692    3.235139
  O     -1.065376   -3.039991    2.390741
  C      2.546628   -2.093119    2.286950
  C      2.947408   -2.680642    3.640976
  O      2.022649   -4.159115   -0.479054
  C      1.847736   -3.269692   -3.248957
  C      3.336997   -3.626159   -3.244866
  C      0.952446   -4.508229   -3.370084
  H      3.638798    0.824456   -2.955941
  H      5.853949    0.962092   -2.049321
  H      5.298808    0.241560   -0.526811
  H      5.654183    2.548226    0.197565
  H      5.135422    3.197391   -1.374504
  H      3.356838    1.905906    0.763902
  H      3.104902    3.466857   -0.051176
  H      1.597790   -0.333430   -2.690924
  H      0.329517   -2.202451   -2.185803
  H      0.656202   -1.354910    0.133995
  H      1.308997   -3.766644    1.722322
  H      0.878762   -0.748742    3.362306
  H     -0.734689    0.132485    4.647434
  H     -1.296255   -1.532946    4.923305
  H     -3.020170    0.124808    4.208885
  H     -3.426958    0.726288    2.018567
  H      0.058099    0.979060    2.032180
  H     -0.055863    3.726376    3.177076
  H      0.012041    1.924583    0.281254
  H      1.415637    4.126440   -1.125840
  H     -1.011312    4.318370   -1.534245
  H     -0.191509    3.819524   -3.044958
  H     -1.087842    2.621743   -2.097251
  H      2.284246    1.768986    2.757539
  H      1.503010    2.143303    4.300878
  H      3.136185    4.113441    2.624162
  H      1.444907    5.337687    3.915380
  H      1.865327    4.436337    5.399233
  H      3.029611    5.566472    4.673735
  H      4.509289    2.269446    3.638333
  H      4.854147    3.829329    4.418659
  H      3.824353    2.636711    5.238468
  H     -3.832198   -0.939440    0.504132
  H     -2.570260   -2.133431    0.734674
  H     -3.141205   -2.144897   -1.634937
  H     -1.511461   -1.496951   -1.448415
  H     -2.404685    0.838687   -1.636122
  H     -4.046490    0.208064   -1.791716
  H     -3.121476    0.850784   -3.987065
  H     -3.464403   -0.878224   -3.952212
  H     -1.086745   -1.424348   -3.696754
  H     -0.675240    0.267209   -3.375695
  H     -1.300268    0.887721   -5.696333
  H     -1.775049   -0.776885   -6.045403
  H      0.565224   -1.551272   -5.610843
  H      1.045203    0.097019   -5.193898
  H      0.491455    0.845926   -7.525719
  H      0.000776   -0.795014   -7.942842
  H      2.353759   -0.353969   -8.718360
  H      2.841132    0.030640   -7.053330
  H      2.349263   -1.621724   -7.473571
  H     -2.555611   -2.329463    2.943663
  H      2.494837   -0.987832    2.325891
  H      3.318028   -2.304770    1.533821
  H      3.901832   -2.259303    3.984407
  H      2.197923   -2.492386    4.424441
  H      3.072953   -3.769993    3.561867
  H      1.659115   -2.636323   -4.134052
  H      3.966563   -2.727190   -3.204664
  H      3.585738   -4.255665   -2.382806
  H      3.589944   -4.170414   -4.166606
  H     -0.113378   -4.230788   -3.390773
  H      1.174490   -5.046333   -4.302597
  H      1.114760   -5.192250   -2.527975

----------------------------
CARTESIAN COORDINATES (A.U.)
----------------------------
  NO LB      ZA    FRAG     MASS         X           Y           Z
   0 O     8.0000    0    15.999    7.236985   -2.754069   -1.407622
   1 C     6.0000    0    12.011    6.045004   -1.366278   -2.846161
   2 C     6.0000    0    12.011    6.961664    1.346545   -3.518526
   3 C     6.0000    0    12.011    9.591197    1.910623   -2.416672
   4 C     6.0000    0    12.011    9.364036    4.539395   -1.201471
   5 C     6.0000    0    12.011    6.604366    4.633796   -0.349329
   6 N     7.0000    0    14.007    5.296290    3.298485   -2.400361
   7 C     6.0000    0    12.011    3.111654    3.972307   -3.557208
   8 O     8.0000    0    15.999    2.366733    2.897739   -5.511277
   9 N     7.0000    0    14.007    3.837089   -2.002523   -3.980818
  10 C     6.0000    0    12.011    2.666265   -4.508002   -3.893360
  11 C     6.0000    0    12.011    2.938258   -5.746640   -1.261131
  12 N     7.0000    0    14.007    1.933739   -4.315737    0.646555
  13 C     6.0000    0    12.011    2.330926   -5.041337    3.269610
  14 C     6.0000    0    12.011   -0.086203   -4.424758    4.743995
  15 N     7.0000    0    14.007   -0.026800   -2.313217    6.193049
  16 C     6.0000    0    12.011   -2.074456   -1.462438    7.841310
  17 C     6.0000    0    12.011   -4.633214   -0.893823    6.571327
  18 C     6.0000    0    12.011   -4.483575    0.896741    4.164099
  19 C     6.0000    0    12.011   -3.211296    3.405124    4.874071
  20 N     7.0000    0    14.007   -0.629118    3.375970    4.759636
  21 C     6.0000    0    12.011    0.946036    5.617920    4.921918
  22 C     6.0000    0    12.011    1.509937    6.788028    2.314490
  23 N     7.0000    0    14.007    0.941934    5.316497    0.280744
  24 C     6.0000    0    12.011    1.528566    6.068328   -2.302239
  25 C     6.0000    0    12.011   -0.851043    6.637872   -3.825402
  26 O     8.0000    0    15.999    2.528257    8.876516    2.135205
  27 C     6.0000    0    12.011    3.409987    4.879988    6.299634
  28 C     6.0000    0    12.011    5.363963    6.965212    6.790919
  29 C     6.0000    0    12.011    4.264251    9.108139    8.395709
  30 C     6.0000    0    12.011    7.702174    5.801879    8.044665
  31 O     8.0000    0    15.999   -4.463117    5.225447    5.581447
  32 C     6.0000    0    12.011   -3.528165   -0.354284    1.755180
  33 C     6.0000    0    12.011   -5.268992   -2.201568    0.466434
  34 C     6.0000    0    12.011   -4.860707   -2.416499   -2.384855
  35 C     6.0000    0    12.011   -5.650635   -0.028806   -3.814029
  36 C     6.0000    0    12.011   -5.287242   -0.193841   -6.683179
  37 C     6.0000    0    12.011   -2.554296   -0.726070   -7.472081
  38 C     6.0000    0    12.011   -2.043083   -0.310303  -10.285634
  39 C     6.0000    0    12.011    0.683748   -0.922928  -11.022651
  40 C     6.0000    0    12.011    1.300855   -0.409023  -13.799771
  41 C     6.0000    0    12.011    4.036808   -1.054480  -14.475616
  42 O     8.0000    0    15.999   -1.421335    0.115926    0.842695
  43 O     8.0000    0    15.999   -6.059621   -3.087230    6.113527
  44 O     8.0000    0    15.999   -2.013269   -5.744751    4.517847
  45 C     6.0000    0    12.011    4.812430   -3.955422    4.321710
  46 C     6.0000    0    12.011    5.569795   -5.065678    6.880448
  47 O     8.0000    0    15.999    3.822252   -7.859588   -0.905281
  48 C     6.0000    0    12.011    3.491714   -6.178822   -6.139639
  49 C     6.0000    0    12.011    6.306010   -6.852447   -6.131908
  50 C     6.0000    0    12.011    1.799862   -8.519319   -6.368536
  51 H     1.0000    0     1.008    6.876332    1.557997   -5.585920
  52 H     1.0000    0     1.008   11.062360    1.818089   -3.872656
  53 H     1.0000    0     1.008   10.013296    0.456482   -0.995528
  54 H     1.0000    0     1.008   10.684858    4.815450    0.373344
  55 H     1.0000    0     1.008    9.704540    6.042193   -2.597436
  56 H     1.0000    0     1.008    6.343505    3.601641    1.443566
  57 H     1.0000    0     1.008    5.867415    6.551410   -0.096708
  58 H     1.0000    0     1.008    3.019386   -0.630091   -5.085109
  59 H     1.0000    0     1.008    0.622697   -4.162029   -4.130569
  60 H     1.0000    0     1.008    1.240043   -2.560409    0.253215
  61 H     1.0000    0     1.008    2.473646   -7.117926    3.254717
  62 H     1.0000    0     1.008    1.660619   -1.414917    6.353838
  63 H     1.0000    0     1.008   -1.388362    0.250359    8.782378
  64 H     1.0000    0     1.008   -2.449567   -2.896848    9.303697
  65 H     1.0000    0     1.008   -5.707294    0.235854    7.953640
  66 H     1.0000    0     1.008   -6.476013    1.372486    3.814539
  67 H     1.0000    0     1.008    0.109791    1.850155    3.840264
  68 H     1.0000    0     1.008   -0.105565    7.041830    6.003804
  69 H     1.0000    0     1.008    0.022755    3.636934    0.531492
  70 H     1.0000    0     1.008    2.675167    7.797842   -2.127529
  71 H     1.0000    0     1.008   -1.911103    8.160537   -2.899303
  72 H     1.0000    0     1.008   -0.361899    7.217855   -5.754137
  73 H     1.0000    0     1.008   -2.055724    4.954377   -3.963230
  74 H     1.0000    0     1.008    4.316600    3.342898    5.210993
  75 H     1.0000    0     1.008    2.840278    4.050255    8.127482
  76 H     1.0000    0     1.008    5.926530    7.773277    4.958948
  77 H     1.0000    0     1.008    2.730479   10.086767    7.398997
  78 H     1.0000    0     1.008    3.524957    8.383462   10.203071
  79 H     1.0000    0     1.008    5.725135   10.519108    8.832079
  80 H     1.0000    0     1.008    8.521321    4.288631    6.875453
  81 H     1.0000    0     1.008    9.173008    7.236382    8.350055
  82 H     1.0000    0     1.008    7.226979    4.982662    9.899269
  83 H     1.0000    0     1.008   -7.241804   -1.775284    0.952672
  84 H     1.0000    0     1.008   -4.857088   -4.031601    1.388332
  85 H     1.0000    0     1.008   -5.936017   -4.053268   -3.089583
  86 H     1.0000    0     1.008   -2.856247   -2.828828   -2.737108
  87 H     1.0000    0     1.008   -4.544196    1.584888   -3.091822
  88 H     1.0000    0     1.008   -7.646758    0.393185   -3.385853
  89 H     1.0000    0     1.008   -5.898735    1.607749   -7.534461
  90 H     1.0000    0     1.008   -6.546773   -1.659604   -7.468598
  91 H     1.0000    0     1.008   -2.053650   -2.691627   -6.985852
  92 H     1.0000    0     1.008   -1.276019    0.504951   -6.379138
  93 H     1.0000    0     1.008   -2.457150    1.677549  -10.764509
  94 H     1.0000    0     1.008   -3.354356   -1.468100  -11.424156
  95 H     1.0000    0     1.008    1.068119   -2.931478  -10.602957
  96 H     1.0000    0     1.008    1.975148    0.183338   -9.815044
  97 H     1.0000    0     1.008    0.928715    1.598569  -14.221549
  98 H     1.0000    0     1.008    0.001466   -1.502359  -15.009795
  99 H     1.0000    0     1.008    4.447961   -0.668904  -16.475314
 100 H     1.0000    0     1.008    5.368961    0.057901  -13.328861
 101 H     1.0000    0     1.008    4.439463   -3.064614  -14.123003
 102 H     1.0000    0     1.008   -4.829404   -4.402047    5.562717
 103 H     1.0000    0     1.008    4.714559   -1.866731    4.395297
 104 H     1.0000    0     1.008    6.270165   -4.355383    2.898501
 105 H     1.0000    0     1.008    7.373393   -4.269463    7.529439
 106 H     1.0000    0     1.008    4.153473   -4.709928    8.360982
 107 H     1.0000    0     1.008    5.807039   -7.124255    6.730953
 108 H     1.0000    0     1.008    3.135274   -4.981929   -7.812226
 109 H     1.0000    0     1.008    7.495717   -5.153643   -6.055938
 110 H     1.0000    0     1.008    6.776063   -8.042041   -4.502852
 111 H     1.0000    0     1.008    6.784011   -7.880941   -7.873745
 112 H     1.0000    0     1.008   -0.214253   -7.995031   -6.407633
 113 H     1.0000    0     1.008    2.219464   -9.536188   -8.130730
 114 H     1.0000    0     1.008    2.106592   -9.811931   -4.777180

--------------------------------
INTERNAL COORDINATES (ANGSTROEM)
--------------------------------
 O      0   0   0     0.000000000000     0.00000000     0.00000000
 C      1   0   0     1.231537120466     0.00000000     0.00000000
 C      2   1   0     1.556514264988   122.11759609     0.00000000
 C      3   2   1     1.537959484017   111.98132505     6.05254301
 C      4   3   2     1.537235555121   105.27657672   226.47924518
 C      5   4   3     1.529206449281   103.15539543    30.91979860
 N      6   5   4     1.468488538523   102.50253383   322.77959592
 C      7   6   5     1.355868080304   127.52217812   223.90922075
 O      8   7   6     1.244184367330   121.68122672   169.51295217
 N      2   1   3     1.356092678828   124.53547414   180.44370779
 C     10   2   1     1.464196255510   125.12745981   353.18338971
 C     11  10   2     1.546142727810   111.89815148    39.15651592
 N     12  11  10     1.369312589609   113.17921882    57.36712141
 C     13  12  11     1.455446248266   120.07646668   188.28011481
 C     14  13  12     1.533381070247   107.97859108   216.46946497
 N     15  14  13     1.355550440708   116.35178122   257.23229077
 C     16  15  14     1.462051079493   125.03741518   183.32668729
 C     17  16  15     1.541298036145   116.81307502   299.97268465
 C     18  17  16     1.589581220276   114.96265319   310.15994031
 C     19  18  17     1.535046301167   109.94739444   303.24479834
 N     20  19  18     1.367857827315   114.67985053    85.70746000
 C     21  20  19     1.452472274470   124.15577032   168.97357632
 C     22  21  20     1.541515353586   112.72211498   269.12870058
 N     23  22  21     1.361965951869   115.77953889   346.71620397
 C     24  23  22     1.457034669806   122.55743153   184.55595549
 C     25  24  23     1.525182481074   111.95138331   248.56748248
 O     23  22  21     1.233210417198   120.89224580   170.16692751
 C     22  21  20     1.544046425945   107.81524788   146.07789533
 C     28  22  21     1.534389320483   117.85171521   182.07259640
 C     29  28  22     1.531586848844   111.73748903    59.29803922
 C     29  28  22     1.533012276834   109.17448593   182.91002045
 O     20  19  18     1.227533417648   121.09851363   268.55523534
 C     19  18  17     1.522776990548   115.35606274    76.42652068
 C     33  19  18     1.506418379987   117.26153508    71.81933959
 C     34  33  19     1.528465137425   114.12604907   152.31894407
 C     35  34  33     1.530740421170   112.81137907   291.14284004
 C     36  35  34     1.532907725251   114.08370049   180.54096448
 C     37  36  35     1.531382954101   113.51302976   301.53259348
 C     38  37  36     1.529155689539   113.95606473   193.03910831
 C     39  38  37     1.529506118734   112.62386997   181.47228602
 C     40  39  38     1.529799435062   114.12110066   182.77171596
 C     41  40  39     1.529937043370   112.76053415   180.29835879
 O     33  19  18     1.240179612099   122.49181652   251.14302298
 O     18  17  16     1.405585886492   112.68780588    80.69835889
 O     15  14  13     1.241831948087   121.08244581    74.22549515
 C     14  13  12     1.537712061386   111.71767596    86.90662861
 C     46  14  13     1.529442006005   113.62565140   191.10678631
 O     12  11  10     1.226576061032   124.07377649   233.23878761
 C     11  10   2     1.544506214004   111.98498206   268.20052746
 C     49  11  10     1.531334130983   113.96920010    65.39894521
 C     49  11  10     1.533033309542   110.98547122   193.42743061
 H      3   2   1     1.100651794726   107.95004511   131.33768640
 H      4   3   2     1.096402808458   111.55181666   103.62909852
 H      4   3   2     1.098898844049   107.90571043   345.42690129
 H      5   4   3     1.097429801534   112.84960680   152.37967193
 H      5   4   3     1.100263783909   111.12455160   273.89004933
 H      6   5   4     1.103415731789   110.90695975    79.88940673
 H      6   5   4     1.095302173372   113.97072956   202.02868331
 H     10   2   1     1.027703524025   116.04480415   177.87586215
 H     11  10   2     1.103957397278   105.11410931   152.93559380
 H     13  12  11     1.020242752717   119.52004841   355.25849701
 H     14  13  12     1.101504102952   105.44226873   329.27025726
 H     16  15  14     1.015162498185   116.98753140   353.19543746
 H     17  16  15     1.096050132177   106.27204280   177.96743812
 H     17  16  15     1.102012834110   109.89671863    61.26840956
 H     18  17  16     1.102494369670   105.63223084   196.67694352
 H     19  18  17     1.099661806505   102.91506674   191.46361278
 H     21  20  19     1.020549789753   114.37885174    13.39573848
 H     22  21  20     1.097817966955   107.49133166    26.56193016
 H     24  23  22     1.021832361213   119.98322068     6.40216728
 H     25  24  23     1.101964408624   105.39006459     7.60327611
 H     26  25  24     1.097311682498   109.33883995    58.96736939
 H     26  25  24     1.096771160362   110.62429975   179.40811117
 H     26  25  24     1.097887634972   110.74216785   298.61072418
 H     28  22  21     1.106186677928   107.83672389    58.30051003
 H     28  22  21     1.104200299370   106.47641080   304.45119245
 H     29  28  22     1.100583358820   108.20672511   300.93209815
 H     30  29  28     1.097785220118   111.33360370   295.69260299
 H     30  29  28     1.102197458726   111.00147506    56.77864314
 H     30  29  28     1.099293023630   110.61932783   176.24822828
 H     31  29  28     1.100889288484   111.51045931    57.40161521
 H     31  29  28     1.099162996730   110.96707561   177.63008067
 H     31  29  28     1.101970429598   111.05274702   297.26246007
 H     34  33  19     1.098617517287   109.98832769    24.95303697
 H     34  33  19     1.106040990152   104.35771529   272.44539734
 H     35  34  33     1.101393717527   108.64684004   168.99765013
 H     35  34  33     1.098849934559   108.58322785    53.47133030
 H     36  35  34     1.103661047205   108.82612737    58.98695310
 H     36  35  34     1.103168778854   109.09203794   303.43642407
 H     37  36  35     1.102967616131   108.57113800   180.21914809
 H     37  36  35     1.103910235967   109.70645316    64.74609392
 H     38  37  36     1.103747429390   109.66030176    70.98684496
 H     38  37  36     1.102916092726   109.12456442   314.46010752
 H     39  38  37     1.103982337895   108.99444836    59.98377420
 H     39  38  37     1.104468206577   109.88674131   304.01296705
 H     40  39  38     1.104721200568   109.04840447    60.68813890
 H     40  39  38     1.103667988188   108.91042901   305.13686362
 H     41  40  39     1.103281956429   109.11174137    58.17868318
 H     41  40  39     1.103426903103   109.34328340   302.61463760
 H     42  41  40     1.099429464539   111.76711438   180.15600379
 H     42  41  40     1.100773621411   110.96360769   300.43793211
 H     42  41  40     1.100778401843   111.05639965    59.84430914
 H     44  18  17     0.996423749547   106.03221664   321.01369077
 H     46  14  13     1.107185238427   110.23344735    65.27817740
 H     46  14  13     1.098661911589   106.22496388   312.70025804
 H     47  46  14     1.098360185121   110.92576964   178.55845500
 H     47  46  14     1.100447954909   112.71261378   299.38213034
 H     47  46  14     1.099412172207   110.29457102    59.36949046
 H     49  11  10     1.104592985269   103.89525386   308.64922323
 H     50  49  11     1.098232119170   111.53413763   304.68958873
 H     50  49  11     1.096036492193   110.88603642    65.26748812
 H     50  49  11     1.099910041325   109.66977181   185.48160271
 H     51  49  11     1.101536104398   111.28857414    52.18389829
 H     51  49  11     1.099290266999   110.15319755   171.46984512
 H     51  49  11     1.096986126389   110.89755494   291.50476748

---------------------------
INTERNAL COORDINATES (A.U.)
---------------------------
 O      0   0   0     0.000000000000     0.00000000     0.00000000
 C      1   0   0     2.327267881439     0.00000000     0.00000000
 C      2   1   0     2.941385684370   122.11759609     0.00000000
 C      3   2   1     2.906322229860   111.98132505     6.05254301
 C      4   3   2     2.904954202505   105.27657672   226.47924518
 C      5   4   3     2.889781391368   103.15539543    30.91979860
 N      6   5   4     2.775041168610   102.50253383   322.77959592
 C      7   6   5     2.562219345501   127.52217812   223.90922075
 O      8   7   6     2.351167714360   121.68122672   169.51295217
 N      2   1   3     2.562643775201   124.53547414   180.44370779
 C     10   2   1     2.766929929227   125.12745981   353.18338971
 C     11  10   2     2.921786319516   111.89815148    39.15651592
 N     12  11  10     2.587625786092   113.17921882    57.36712141
 C     13  12  11     2.750394811865   120.07646668   188.28011481
 C     14  13  12     2.897670281705   107.97859108   216.46946497
 N     15  14  13     2.561619093655   116.35178122   257.23229077
 C     16  15  14     2.762876134045   125.03741518   183.32668729
 C     17  16  15     2.912631179064   116.81307502   299.97268465
 C     18  17  16     3.003873173947   114.96265319   310.15994031
 C     19  18  17     2.900817112094   109.94739444   303.24479834
 N     20  19  18     2.584876683766   114.67985053    85.70746000
 C     21  20  19     2.744774815862   124.15577032   168.97357632
 C     22  21  20     2.913041849512   112.72211498   269.12870058
 N     23  22  21     2.573742652758   115.77953889   346.71620397
 C     24  23  22     2.753396493562   122.55743153   184.55595549
 C     25  24  23     2.882177193484   111.95138331   248.56748248
 O     23  22  21     2.330429954003   120.89224580   170.16692751
 C     22  21  20     2.917824883096   107.81524788   146.07789533
 C     28  22  21     2.899575598527   117.85171521   182.07259640
 C     29  28  22     2.894279694631   111.73748903    59.29803922
 C     29  28  22     2.896973363155   109.17448593   182.91002045
 O     20  19  18     2.319701979592   121.09851363   268.55523534
 C     19  18  17     2.877631475173   115.35606274    76.42652068
 C     33  19  18     2.846718181281   117.26153508    71.81933959
 C     34  33  19     2.888380514980   114.12604907   152.31894407
 C     35  34  33     2.892680178135   112.81137907   291.14284004
 C     36  35  34     2.896775789296   114.08370049   180.54096448
 C     37  36  35     2.893894389406   113.51302976   301.53259348
 C     38  37  36     2.889685469356   113.95606473   193.03910831
 C     39  38  37     2.890347684565   112.62386997   181.47228602
 C     40  39  38     2.890901972095   114.12110066   182.77171596
 C     41  40  39     2.891162014110   112.76053415   180.29835879
 O     33  19  18     2.343599823739   122.49181652   251.14302298
 O     18  17  16     2.656172383175   112.68780588    80.69835889
 O     15  14  13     2.346722286238   121.08244581    74.22549515
 C     14  13  12     2.905854668847   111.71767596    86.90662861
 C     46  14  13     2.890226529065   113.62565140   191.10678631
 O     12  11  10     2.317892837775   124.07377649   233.23878761
 C     11  10   2     2.918693756608   111.98498206   268.20052746
 C     49  11  10     2.893802127085   113.96920010    65.39894521
 C     49  11  10     2.897013109213   110.98547122   193.42743061
 H      3   2   1     2.079930460841   107.95004511   131.33768640
 H      4   3   2     2.071901040448   111.55181666   103.62909852
 H      4   3   2     2.076617864136   107.90571043   345.42690129
 H      5   4   3     2.073841776103   112.84960680   152.37967193
 H      5   4   3     2.079197226659   111.12455160   273.89004933
 H      6   5   4     2.085153544942   110.90695975    79.88940673
[...]
freq.      93.45  E(vib)   ...       0.47 
freq.      95.46  E(vib)   ...       0.47 
freq.     103.28  E(vib)   ...       0.46 
freq.     106.63  E(vib)   ...       0.45 
freq.     111.62  E(vib)   ...       0.45 
freq.     118.68  E(vib)   ...       0.44 
freq.     120.28  E(vib)   ...       0.44 
freq.     124.79  E(vib)   ...       0.43 
freq.     132.18  E(vib)   ...       0.42 
freq.     134.73  E(vib)   ...       0.42 
freq.     137.09  E(vib)   ...       0.42 
freq.     146.33  E(vib)   ...       0.41 
freq.     151.00  E(vib)   ...       0.40 
freq.     156.72  E(vib)   ...       0.40 
freq.     158.38  E(vib)   ...       0.39 
freq.     161.49  E(vib)   ...       0.39 
freq.     169.48  E(vib)   ...       0.38 
freq.     181.44  E(vib)   ...       0.37 
freq.     183.59  E(vib)   ...       0.37 
freq.     196.33  E(vib)   ...       0.36 
freq.     205.58  E(vib)   ...       0.35 
freq.     209.54  E(vib)   ...       0.34 
freq.     217.33  E(vib)   ...       0.34 
freq.     218.77  E(vib)   ...       0.33 
freq.     219.28  E(vib)   ...       0.33 
freq.     224.06  E(vib)   ...       0.33 
freq.     225.30  E(vib)   ...       0.33 
freq.     228.35  E(vib)   ...       0.32 
freq.     231.01  E(vib)   ...       0.32 
freq.     234.04  E(vib)   ...       0.32 
freq.     237.04  E(vib)   ...       0.32 
freq.     244.51  E(vib)   ...       0.31 
freq.     246.78  E(vib)   ...       0.31 
freq.     257.34  E(vib)   ...       0.30 
freq.     260.08  E(vib)   ...       0.30 
freq.     262.53  E(vib)   ...       0.29 
freq.     266.06  E(vib)   ...       0.29 
freq.     266.66  E(vib)   ...       0.29 
freq.     281.21  E(vib)   ...       0.28 
freq.     289.71  E(vib)   ...       0.27 
freq.     300.66  E(vib)   ...       0.26 
freq.     307.73  E(vib)   ...       0.26 
freq.     313.92  E(vib)   ...       0.25 
freq.     322.41  E(vib)   ...       0.25 
freq.     334.77  E(vib)   ...       0.24 
freq.     335.59  E(vib)   ...       0.24 
freq.     342.96  E(vib)   ...       0.23 
freq.     351.12  E(vib)   ...       0.23 
freq.     363.16  E(vib)   ...       0.22 
freq.     368.77  E(vib)   ...       0.21 
freq.     387.72  E(vib)   ...       0.20 
freq.     390.75  E(vib)   ...       0.20 
freq.     402.99  E(vib)   ...       0.19 
freq.     414.88  E(vib)   ...       0.19 
freq.     425.20  E(vib)   ...       0.18 
freq.     427.49  E(vib)   ...       0.18 
freq.     431.03  E(vib)   ...       0.18 
freq.     438.20  E(vib)   ...       0.17 
freq.     443.78  E(vib)   ...       0.17 
freq.     468.69  E(vib)   ...       0.16 
freq.     486.33  E(vib)   ...       0.15 
freq.     499.21  E(vib)   ...       0.14 
freq.     509.09  E(vib)   ...       0.14 
freq.     514.80  E(vib)   ...       0.13 
freq.     516.21  E(vib)   ...       0.13 
freq.     521.82  E(vib)   ...       0.13 
freq.     529.46  E(vib)   ...       0.13 
freq.     541.18  E(vib)   ...       0.12 
freq.     552.70  E(vib)   ...       0.12 
freq.     574.79  E(vib)   ...       0.11 
freq.     578.60  E(vib)   ...       0.11 
freq.     594.33  E(vib)   ...       0.10 
freq.     620.30  E(vib)   ...       0.09 
freq.     630.68  E(vib)   ...       0.09 
freq.     636.74  E(vib)   ...       0.09 
freq.     644.27  E(vib)   ...       0.09 
freq.     665.84  E(vib)   ...       0.08 
freq.     672.00  E(vib)   ...       0.08 
freq.     685.18  E(vib)   ...       0.07 
freq.     702.31  E(vib)   ...       0.07 
freq.     713.51  E(vib)   ...       0.07 
freq.     716.77  E(vib)   ...       0.07 
freq.     719.36  E(vib)   ...       0.07 
freq.     724.14  E(vib)   ...       0.06 
freq.     730.91  E(vib)   ...       0.06 
freq.     732.69  E(vib)   ...       0.06 
freq.     741.40  E(vib)   ...       0.06 
freq.     747.10  E(vib)   ...       0.06 
freq.     760.72  E(vib)   ...       0.06 
freq.     767.88  E(vib)   ...       0.06 
freq.     771.86  E(vib)   ...       0.05 
freq.     779.22  E(vib)   ...       0.05 
freq.     782.57  E(vib)   ...       0.05 
freq.     790.49  E(vib)   ...       0.05 
freq.     796.46  E(vib)   ...       0.05 
freq.     805.92  E(vib)   ...       0.05 
freq.     812.57  E(vib)   ...       0.05 
freq.     820.43  E(vib)   ...       0.05 
freq.     843.80  E(vib)   ...       0.04 
freq.     856.10  E(vib)   ...       0.04 
freq.     858.73  E(vib)   ...       0.04 
freq.     864.46  E(vib)   ...       0.04 
freq.     868.77  E(vib)   ...       0.04 
freq.     881.73  E(vib)   ...       0.04 
freq.     887.47  E(vib)   ...       0.04 
freq.     890.15  E(vib)   ...       0.04 
freq.     892.89  E(vib)   ...       0.03 
freq.     899.55  E(vib)   ...       0.03 
freq.     900.05  E(vib)   ...       0.03 
freq.     902.94  E(vib)   ...       0.03 
freq.     913.47  E(vib)   ...       0.03 
freq.     915.86  E(vib)   ...       0.03 
freq.     923.42  E(vib)   ...       0.03 
freq.     928.58  E(vib)   ...       0.03 
freq.     938.77  E(vib)   ...       0.03 
freq.     940.02  E(vib)   ...       0.03 
freq.     943.58  E(vib)   ...       0.03 
freq.     946.13  E(vib)   ...       0.03 
freq.     948.74  E(vib)   ...       0.03 
freq.     957.59  E(vib)   ...       0.03 
freq.     968.78  E(vib)   ...       0.03 
freq.     972.59  E(vib)   ...       0.03 
freq.     978.29  E(vib)   ...       0.03 
freq.     986.54  E(vib)   ...       0.02 
freq.     995.40  E(vib)   ...       0.02 
freq.    1001.15  E(vib)   ...       0.02 
freq.    1016.68  E(vib)   ...       0.02 
freq.    1023.48  E(vib)   ...       0.02 
freq.    1024.08  E(vib)   ...       0.02 
freq.    1030.39  E(vib)   ...       0.02 
freq.    1031.55  E(vib)   ...       0.02 
freq.    1037.57  E(vib)   ...       0.02 
freq.    1039.14  E(vib)   ...       0.02 
freq.    1041.63  E(vib)   ...       0.02 
freq.    1048.19  E(vib)   ...       0.02 
freq.    1050.87  E(vib)   ...       0.02 
freq.    1056.05  E(vib)   ...       0.02 
freq.    1069.46  E(vib)   ...       0.02 
freq.    1074.80  E(vib)   ...       0.02 
freq.    1084.34  E(vib)   ...       0.02 
freq.    1087.49  E(vib)   ...       0.02 
freq.    1093.32  E(vib)   ...       0.02 
freq.    1096.67  E(vib)   ...       0.02 
freq.    1101.61  E(vib)   ...       0.02 
freq.    1103.62  E(vib)   ...       0.02 
freq.    1106.69  E(vib)   ...       0.02 
freq.    1109.09  E(vib)   ...       0.02 
freq.    1116.98  E(vib)   ...       0.01 
freq.    1124.28  E(vib)   ...       0.01 
freq.    1126.06  E(vib)   ...       0.01 
freq.    1131.20  E(vib)   ...       0.01 
freq.    1135.79  E(vib)   ...       0.01 
freq.    1141.85  E(vib)   ...       0.01 
freq.    1151.96  E(vib)   ...       0.01 
freq.    1159.94  E(vib)   ...       0.01 
freq.    1161.90  E(vib)   ...       0.01 
freq.    1176.25  E(vib)   ...       0.01 
freq.    1176.59  E(vib)   ...       0.01 
freq.    1178.21  E(vib)   ...       0.01 
freq.    1186.94  E(vib)   ...       0.01 
freq.    1194.60  E(vib)   ...       0.01 
freq.    1198.51  E(vib)   ...       0.01 
freq.    1208.20  E(vib)   ...       0.01 
freq.    1214.34  E(vib)   ...       0.01 
freq.    1220.34  E(vib)   ...       0.01 
freq.    1221.75  E(vib)   ...       0.01 
freq.    1221.95  E(vib)   ...       0.01 
freq.    1225.60  E(vib)   ...       0.01 
freq.    1233.32  E(vib)   ...       0.01 
freq.    1238.68  E(vib)   ...       0.01 
freq.    1246.25  E(vib)   ...       0.01 
freq.    1248.26  E(vib)   ...       0.01 
freq.    1256.55  E(vib)   ...       0.01 
freq.    1263.01  E(vib)   ...       0.01 
freq.    1265.03  E(vib)   ...       0.01 
freq.    1268.19  E(vib)   ...       0.01 
freq.    1273.97  E(vib)   ...       0.01 
freq.    1275.19  E(vib)   ...       0.01 
freq.    1276.96  E(vib)   ...       0.01 
freq.    1279.89  E(vib)   ...       0.01 
freq.    1284.15  E(vib)   ...       0.01 
freq.    1285.86  E(vib)   ...       0.01 
freq.    1287.03  E(vib)   ...       0.01 
freq.    1289.27  E(vib)   ...       0.01 
freq.    1291.14  E(vib)   ...       0.01 
freq.    1292.32  E(vib)   ...       0.01 
freq.    1296.32  E(vib)   ...       0.01 
freq.    1299.65  E(vib)   ...       0.01 
freq.    1306.12  E(vib)   ...       0.01 
freq.    1308.48  E(vib)   ...       0.01 
freq.    1310.90  E(vib)   ...       0.01 
freq.    1312.97  E(vib)   ...       0.01 
freq.    1315.85  E(vib)   ...       0.01 
freq.    1318.98  E(vib)   ...       0.01 
freq.    1322.61  E(vib)   ...       0.01 
freq.    1324.98  E(vib)   ...       0.01 
freq.    1326.59  E(vib)   ...       0.01 
freq.    1327.48  E(vib)   ...       0.01 
freq.    1332.76  E(vib)   ...       0.01 
freq.    1338.85  E(vib)   ...       0.01 
freq.    1341.03  E(vib)   ...       0.01 
freq.    1343.80  E(vib)   ...       0.01 
freq.    1348.28  E(vib)   ...       0.01 
freq.    1349.35  E(vib)   ...       0.01 
freq.    1350.16  E(vib)   ...       0.01 
freq.    1351.32  E(vib)   ...       0.01 
freq.    1353.75  E(vib)   ...       0.01 
freq.    1356.64  E(vib)   ...       0.01 
freq.    1361.47  E(vib)   ...       0.01 
freq.    1363.09  E(vib)   ...       0.01 
freq.    1368.06  E(vib)   ...       0.01 
freq.    1369.05  E(vib)   ...       0.01 
freq.    1370.70  E(vib)   ...       0.01 
freq.    1378.33  E(vib)   ...       0.01 
freq.    1407.23  E(vib)   ...       0.00 
freq.    1417.41  E(vib)   ...       0.00 
freq.    1425.70  E(vib)   ...       0.00 
freq.    1427.64  E(vib)   ...       0.00 
freq.    1434.68  E(vib)   ...       0.00 
freq.    1435.73  E(vib)   ...       0.00 
freq.    1435.85  E(vib)   ...       0.00 
freq.    1436.41  E(vib)   ...       0.00 
freq.    1439.15  E(vib)   ...       0.00 
freq.    1439.45  E(vib)   ...       0.00 
freq.    1441.75  E(vib)   ...       0.00 
freq.    1444.62  E(vib)   ...       0.00 
freq.    1445.48  E(vib)   ...       0.00 
freq.    1446.41  E(vib)   ...       0.00 
freq.    1448.01  E(vib)   ...       0.00 
freq.    1448.81  E(vib)   ...       0.00 
freq.    1449.28  E(vib)   ...       0.00 
freq.    1450.75  E(vib)   ...       0.00 
freq.    1452.08  E(vib)   ...       0.00 
freq.    1452.16  E(vib)   ...       0.00 
freq.    1455.11  E(vib)   ...       0.00 
freq.    1455.50  E(vib)   ...       0.00 
freq.    1459.87  E(vib)   ...       0.00 
freq.    1461.87  E(vib)   ...       0.00 
freq.    1464.35  E(vib)   ...       0.00 
freq.    1465.82  E(vib)   ...       0.00 
freq.    1466.16  E(vib)   ...       0.00 
freq.    1468.08  E(vib)   ...       0.00 
freq.    1468.50  E(vib)   ...       0.00 
freq.    1485.36  E(vib)   ...       0.00 
freq.    1493.89  E(vib)   ...       0.00 
freq.    1504.25  E(vib)   ...       0.00 
freq.    1520.95  E(vib)   ...       0.00 
freq.    1523.46  E(vib)   ...       0.00 
freq.    1614.72  E(vib)   ...       0.00 
freq.    1622.77  E(vib)   ...       0.00 
freq.    1647.46  E(vib)   ...       0.00 
freq.    1666.66  E(vib)   ...       0.00 
freq.    1681.49  E(vib)   ...       0.00 
freq.    1697.41  E(vib)   ...       0.00 
freq.    1698.75  E(vib)   ...       0.00 
freq.    2908.70  E(vib)   ...       0.00 
freq.    2913.49  E(vib)   ...       0.00 
freq.    2926.16  E(vib)   ...       0.00 
freq.    2929.04  E(vib)   ...       0.00 
freq.    2934.00  E(vib)   ...       0.00 
freq.    2934.35  E(vib)   ...       0.00 
freq.    2938.17  E(vib)   ...       0.00 
freq.    2940.25  E(vib)   ...       0.00 
freq.    2940.70  E(vib)   ...       0.00 
freq.    2942.96  E(vib)   ...       0.00 
freq.    2946.11  E(vib)   ...       0.00 
freq.    2948.47  E(vib)   ...       0.00 
freq.    2949.05  E(vib)   ...       0.00 
freq.    2952.65  E(vib)   ...       0.00 
freq.    2953.22  E(vib)   ...       0.00 
freq.    2955.28  E(vib)   ...       0.00 
freq.    2956.41  E(vib)   ...       0.00 
freq.    2959.02  E(vib)   ...       0.00 
freq.    2959.63  E(vib)   ...       0.00 
freq.    2961.25  E(vib)   ...       0.00 
freq.    2965.52  E(vib)   ...       0.00 
freq.    2967.01  E(vib)   ...       0.00 
freq.    2969.49  E(vib)   ...       0.00 
freq.    2970.60  E(vib)   ...       0.00 
freq.    2973.77  E(vib)   ...       0.00 
freq.    2976.31  E(vib)   ...       0.00 
freq.    2976.84  E(vib)   ...       0.00 
freq.    2981.06  E(vib)   ...       0.00 
freq.    2982.22  E(vib)   ...       0.00 
freq.    2984.33  E(vib)   ...       0.00 
freq.    2984.36  E(vib)   ...       0.00 
freq.    2985.76  E(vib)   ...       0.00 
freq.    2989.62  E(vib)   ...       0.00 
freq.    2996.28  E(vib)   ...       0.00 
freq.    2998.63  E(vib)   ...       0.00 
freq.    3003.45  E(vib)   ...       0.00 
freq.    3012.74  E(vib)   ...       0.00 
freq.    3015.05  E(vib)   ...       0.00 
freq.    3015.21  E(vib)   ...       0.00 
freq.    3019.63  E(vib)   ...       0.00 
freq.    3020.84  E(vib)   ...       0.00 
freq.    3023.06  E(vib)   ...       0.00 
freq.    3027.39  E(vib)   ...       0.00 
freq.    3030.54  E(vib)   ...       0.00 
freq.    3030.57  E(vib)   ...       0.00 
freq.    3032.34  E(vib)   ...       0.00 
freq.    3034.57  E(vib)   ...       0.00 
freq.    3035.15  E(vib)   ...       0.00 
freq.    3037.67  E(vib)   ...       0.00 
freq.    3041.60  E(vib)   ...       0.00 
freq.    3046.62  E(vib)   ...       0.00 
freq.    3051.22  E(vib)   ...       0.00 
freq.    3051.33  E(vib)   ...       0.00 
freq.    3055.06  E(vib)   ...       0.00 
freq.    3057.79  E(vib)   ...       0.00 
freq.    3059.23  E(vib)   ...       0.00 
freq.    3067.93  E(vib)   ...       0.00 
freq.    3069.53  E(vib)   ...       0.00 
freq.    3242.65  E(vib)   ...       0.00 
freq.    3306.88  E(vib)   ...       0.00 
freq.    3395.80  E(vib)   ...       0.00 
freq.    3418.00  E(vib)   ...       0.00 
freq.    3435.30  E(vib)   ...       0.00 
freq.    3508.16  E(vib)   ...       0.00 

------------
INNER ENERGY
------------

The inner energy is: U= E(el) + E(ZPE) + E(vib) + E(rot) + E(trans)
    E(el)   - is the total energy from the electronic structure calculation
              = E(kin-el) + E(nuc-el) + E(el-el) + E(nuc-nuc)
    E(ZPE)  - the the zero temperature vibrational energy from the frequency calculation
    E(vib)  - the the finite temperature correction to E(ZPE) due to population
              of excited vibrational states
    E(rot)  - is the rotational thermal energy
    E(trans)- is the translational thermal energy

Summary of contributions to the inner energy U:
Electronic energy                ...  -2380.08524008 Eh
Zero point energy                ...      0.97835704 Eh     613.93 kcal/mol
Thermal vibrational correction   ...      0.05495339 Eh      34.48 kcal/mol
Thermal rotational correction    ...      0.00141627 Eh       0.89 kcal/mol
Thermal translational correction ...      0.00141627 Eh       0.89 kcal/mol
-----------------------------------------------------------------------
Total thermal energy                  -2379.04909710 Eh


Summary of corrections to the electronic energy:
(perhaps to be used in another calculation)
Total thermal correction                  0.05778594 Eh      36.26 kcal/mol
Non-thermal (ZPE) correction              0.97835704 Eh     613.93 kcal/mol
-----------------------------------------------------------------------
Total correction                          1.03614298 Eh     650.19 kcal/mol


--------
ENTHALPY
--------

The enthalpy is H = U + kB*T
                kB is Boltzmann's constant
Total free energy                 ...  -2379.04909710 Eh 
Thermal Enthalpy correction       ...      0.00094421 Eh       0.59 kcal/mol
-----------------------------------------------------------------------
Total Enthalpy                    ...  -2379.04815289 Eh


Note: Only C1 symmetry has been detected, increase convergence thresholds 
      if your molecule has a higher symmetry. Symmetry factor of 1.0 is   
      used for the rotational entropy correction. 
 

Note: Rotational entropy computed according to Herzberg 
Infrared and Raman Spectra, Chapter V,1, Van Nostrand Reinhold, 1945 
Point Group:  C1, Symmetry Number:   1  
Rotational constants in cm-1:     0.002313     0.001630     0.001489 

Vibrational entropy computed according to the QRRHO of S. Grimme
Chem.Eur.J. 2012 18 9955


-------
ENTROPY
-------

The entropy contributions are T*S = T*(S(el)+S(vib)+S(rot)+S(trans))
     S(el)   - electronic entropy
     S(vib)  - vibrational entropy
     S(rot)  - rotational entropy
     S(trans)- translational entropy
The entropies will be listed as mutliplied by the temperature to get
units of energy

Electronic entropy                ...      0.00000000 Eh      0.00 kcal/mol
Vibrational entropy               ...      0.10010133 Eh     62.81 kcal/mol
Rotational entropy                ...      0.01847967 Eh     11.60 kcal/mol
Translational entropy             ...      0.02166895 Eh     13.60 kcal/mol
-----------------------------------------------------------------------
Final entropy term                ...      0.14024995 Eh     88.01 kcal/mol

In case the symmetry of your molecule has not been determined correctly
or in case you have a reason to use a different symmetry number we print 
out the resulting rotational entropy values for sn=1,12 :
 --------------------------------------------------------
|  sn= 1 | S(rot)=       0.01847967 Eh     11.60 kcal/mol|
|  sn= 2 | S(rot)=       0.01782521 Eh     11.19 kcal/mol|
|  sn= 3 | S(rot)=       0.01744238 Eh     10.95 kcal/mol|
|  sn= 4 | S(rot)=       0.01717076 Eh     10.77 kcal/mol|
|  sn= 5 | S(rot)=       0.01696007 Eh     10.64 kcal/mol|
|  sn= 6 | S(rot)=       0.01678792 Eh     10.53 kcal/mol|
|  sn= 7 | S(rot)=       0.01664238 Eh     10.44 kcal/mol|
|  sn= 8 | S(rot)=       0.01651630 Eh     10.36 kcal/mol|
|  sn= 9 | S(rot)=       0.01640509 Eh     10.29 kcal/mol|
|  sn=10 | S(rot)=       0.01630561 Eh     10.23 kcal/mol|
|  sn=11 | S(rot)=       0.01621562 Eh     10.18 kcal/mol|
|  sn=12 | S(rot)=       0.01613347 Eh     10.12 kcal/mol|
 --------------------------------------------------------


-------------------
GIBBS FREE ENERGY
-------------------

The Gibbs free energy is G = H - T*S

Total enthalpy                    ...  -2379.04815289 Eh 
Total entropy correction          ...     -0.14024995 Eh    -88.01 kcal/mol
-----------------------------------------------------------------------
Final Gibbs free energy         ...  -2379.18840284 Eh

For completeness - the Gibbs free energy minus the electronic energy
G-E(el)                           ...      0.89683724 Eh    562.77 kcal/mol

--------------------------------------------------------------------------
WARNING: No preset parameters were found for the device that Open MPI
detected:

  Local host:            eu-g1-042-1
  Device name:           mlx5_0
  Device vendor ID:      0x02c9
  Device vendor part ID: 4123

Default device parameters will be used, which may result in lower
performance.  You can edit any of the files specified by the
btl_openib_device_param_files MCA parameter to set values for your
device.

NOTE: You can turn off this warning by setting the MCA parameter
      btl_openib_warn_no_device_params_found to 0.
--------------------------------------------------------------------------
--------------------------------------------------------------------------
WARNING: There was an error initializing an OpenFabrics device.

  Local host:   eu-g1-042-1
  Local device: mlx5_0
--------------------------------------------------------------------------

Timings for individual modules:

Sum of individual times         ...    30281.250 sec (= 504.688 min)
GTO integral calculation        ...       19.217 sec (=   0.320 min)   0.1 %
SCF iterations                  ...      549.808 sec (=   9.163 min)   1.8 %
SCF Gradient evaluation         ...      163.812 sec (=   2.730 min)   0.5 %
Geometry relaxation             ...        7.146 sec (=   0.119 min)   0.0 %
Analytical frequency calculation...    29541.268 sec (= 492.354 min)  97.6 %
                             ****ORCA TERMINATED NORMALLY****
TOTAL RUN TIME: 0 days 8 hours 25 minutes 5 seconds 335 msec
