
                                 *****************
                                 * O   R   C   A *
                                 *****************

           --- An Ab Initio, DFT and Semiempirical electronic structure package ---

                  #######################################################
                  #                        -***-                        #
                  #          Department of theory and spectroscopy      #
                  #               Directorship: Frank Neese             #
                  #        Max Planck Institute fuer Kohlenforschung    #
                  #                Kaiser Wilhelm Platz 1               #
                  #                 D-45470 Muelheim/Ruhr               #
                  #                      Germany                        #
                  #                                                     #
                  #                  All rights reserved                #
                  #                        -***-                        #
                  #######################################################


                         Program Version 4.2.0 -  RELEASE  -


 With contributions from (in alphabetic order):
   Daniel Aravena         : Magnetic Suceptibility
   Michael Atanasov       : Ab Initio Ligand Field Theory (pilot matlab implementation)
   Alexander A. Auer      : GIAO ZORA, VPT2
   Ute Becker             : Parallelization
   Giovanni Bistoni       : ED, misc. LED, open-shell LED, HFLED
   Martin Brehm           : Molecular dynamics
   Dmytro Bykov           : SCF Hessian
   Vijay G. Chilkuri      : MRCI spin determinant printing, contributions to CSF-ICE
   Dipayan Datta          : RHF DLPNO-CCSD density
   Achintya Kumar Dutta   : EOM-CC, STEOM-CC
   Dmitry Ganyushin       : Spin-Orbit,Spin-Spin,Magnetic field MRCI
   Miquel Garcia          : C-PCM Hessian, Gaussian charge scheme
   Yang Guo               : DLPNO-NEVPT2, CIM, IAO-localization
   Andreas Hansen         : Spin unrestricted coupled pair/coupled cluster methods
   Benjamin Helmich-Paris : CASSCF linear response (MC-RPA)
   Lee Huntington         : MR-EOM, pCC
   Robert Izsak           : Overlap fitted RIJCOSX, COSX-SCS-MP3, EOM
   Christian Kollmar      : KDIIS, OOCD, Brueckner-CCSD(T), CCSD density
   Simone Kossmann        : Meta GGA functionals, TD-DFT gradient, OOMP2, MP2 Hessian
   Martin Krupicka        : AUTO-CI
   Lucas Lang             : DCDCAS
   Dagmar Lenk            : GEPOL surface, SMD
   Dimitrios Liakos       : Extrapolation schemes; Compound Job, initial MDCI parallelization
   Dimitrios Manganas     : Further ROCIS development; embedding schemes
   Dimitrios Pantazis     : SARC Basis sets
   Taras Petrenko         : DFT Hessian,TD-DFT gradient, ASA, ECA, R-Raman, ABS, FL, XAS/XES, NRVS
   Peter Pinski           : DLPNO-MP2, DLPNO-MP2 Gradient
   Christoph Reimann      : Effective Core Potentials
   Marius Retegan         : Local ZFS, SOC
   Christoph Riplinger    : Optimizer, TS searches, QM/MM, DLPNO-CCSD(T), (RO)-DLPNO pert. Triples
   Tobias Risthaus        : Range-separated hybrids, TD-DFT gradient, RPA, STAB
   Michael Roemelt        : Original ROCIS implementation
   Masaaki Saitow         : Open-shell DLPNO-CCSD energy and density
   Barbara Sandhoefer     : DKH picture change effects
   Avijit Sen             : IP-ROCIS
   Kantharuban Sivalingam : CASSCF convergence, NEVPT2, FIC-MRCI
   Bernardo de Souza      : ESD, SOC TD-DFT
   Georgi Stoychev        : AutoAux, RI-MP2 NMR
   Willem Van den Heuvel  : Paramagnetic NMR
   Boris Wezisla          : Elementary symmetry handling
   Frank Wennmohs         : Technical directorship


 We gratefully acknowledge several colleagues who have allowed us to
 interface, adapt or use parts of their codes:
   Stefan Grimme, W. Hujo, H. Kruse,             : VdW corrections, initial TS optimization,
                  C. Bannwarth                     DFT functionals, gCP, sTDA/sTD-DF
   Ed Valeev, F. Pavosevic, A. Kumar             : LibInt (2-el integral package), F12 methods
   Garnet Chan, S. Sharma, J. Yang, R. Olivares  : DMRG
   Ulf Ekstrom                                   : XCFun DFT Library
   Mihaly Kallay                                 : mrcc  (arbitrary order and MRCC methods)
   Andreas Klamt, Michael Diedenhofen            : otool_cosmo (COSMO solvation model)
   Jiri Pittner, Ondrej Demel                    : Mk-CCSD
   Frank Weinhold                                : gennbo (NPA and NBO analysis)
   Christopher J. Cramer and Donald G. Truhlar   : smd solvation model
   Lars Goerigk                                  : TD-DFT with DH, B97 family of functionals
   V. Asgeirsson, H. Jonsson                     : NEB implementation
   FAccTs GmbH                                   : IRC, NEB, NEB-TS, Multilevel, MM, QM/MM, CI optimization
   S Lehtola, MJT Oliveira, MAL Marques          : LibXC Library


 Your calculation uses the libint2 library for the computation of 2-el integrals
 For citations please refer to: http://libint.valeyev.net

 Your ORCA version has been built with support for libXC version: 4.2.3
 For citations please refer to: https://tddft.org/programs/libxc/

 This ORCA versions uses:
   CBLAS   interface :  Fast vector & matrix operations
   LAPACKE interface :  Fast linear algebra routines
   SCALAPACK package :  Parallel linear algebra routines




***************************************
The coordinates will be read from file: 5.xyz
***************************************


Your calculation utilizes the atom-pairwise dispersion correction
with the Becke-Johnson damping scheme (D3BJ)
Cite in your paper:
S.Grimme, S.Ehrlich, L.Goerigk, J Comput Chem, (2011), 32, 1456–1465 
S.Grimme, J.Antony, S.Ehrlich and H.Krieg, J.Chem.Phys., 132, (2010), 154104 
   

----- Orbital basis set information -----
Your calculation utilizes the basis: def2-TZVP
   F. Weigend and R. Ahlrichs, Phys. Chem. Chem. Phys. 7, 3297 (2005).

----- AuxJ basis set information -----
Your calculation utilizes the auxiliary basis: def2/J
   F. Weigend, Phys. Chem. Chem. Phys. 8, 1057 (2006).

================================================================================
                                        WARNINGS
                       Please study these warnings very carefully!
================================================================================


WARNING: Geometry Optimization
  ===> : Switching off AutoStart
         For restart on a previous wavefunction, please use MOREAD

INFO   : the flag for use of LIBINT has been found!

================================================================================
                                       INPUT FILE
================================================================================
NAME = 5.inp
|  1> !RI BP86 def2-tzvp def2/J D3BJ VeryTightSCF VeryTightOpt Grid5 FinalGrid6 freq
|  2> %maxcore 4000
|  3> %pal nprocs 24
|  4> end
|  5> * xyzfile 0 1 5.xyz 
|  6> 
|  7>                          ****END OF INPUT****
================================================================================

                       *****************************
                       * Geometry Optimization Run *
                       *****************************

Geometry optimization settings:
Update method            Update   .... BFGS
Choice of coordinates    CoordSys .... Z-matrix Internals
Initial Hessian          InHess   .... Almoef's Model

Convergence Tolerances:
Energy Change            TolE     ....  2.0000e-07 Eh
Max. Gradient            TolMAXG  ....  3.0000e-05 Eh/bohr
RMS Gradient             TolRMSG  ....  8.0000e-06 Eh/bohr
Max. Displacement        TolMAXD  ....  2.0000e-04 bohr
RMS Displacement         TolRMSD  ....  1.0000e-04 bohr
Strict Convergence                ....  False
------------------------------------------------------------------------------
                        ORCA OPTIMIZATION COORDINATE SETUP
------------------------------------------------------------------------------

The optimization will be done in new redundant internal coordinates
Making redundant internal coordinates   ...  (new redundants) done
Evaluating the initial hessian          ...  (Almloef) done
Evaluating the coordinates              ...  done
Calculating the B-matrix                .... done
Calculating the G-matrix                .... done
Diagonalizing the G-matrix              .... done
Small eigenvalue found = 8.376e-04
Small eigenvalue found = 2.035e-03
Small eigenvalue found = 2.501e-03
Small eigenvalue found = 3.611e-03
Small eigenvalue found = 4.671e-03
Small eigenvalue found = 6.305e-03
Small eigenvalue found = 7.407e-03
Small eigenvalue found = 8.847e-03
Small eigenvalue found = 1.041e-02
Small eigenvalue found = 1.114e-02
Small eigenvalue found = 1.352e-02
Small eigenvalue found = 1.608e-02
Small eigenvalue found = 1.732e-02
Small eigenvalue found = 1.935e-02
Small eigenvalue found = 2.103e-02
Small eigenvalue found = 2.498e-02
Small eigenvalue found = 2.715e-02
Small eigenvalue found = 2.743e-02
Small eigenvalue found = 2.830e-02
Small eigenvalue found = 2.916e-02
The first mode is                       ....  327
The number of degrees of freedom        ....  339

    -----------------------------------------------------------------
                    Redundant Internal Coordinates


    -----------------------------------------------------------------
         Definition                    Initial Value    Approx d2E/dq
    -----------------------------------------------------------------
      1. B(C   1,O   0)                  1.2287         1.012154   
      2. B(C   2,C   1)                  1.5356         0.365939   
      3. B(C   3,C   2)                  1.5398         0.360370   
      4. B(C   4,C   3)                  1.5351         0.366625   
      5. B(C   5,C   4)                  1.5320         0.370886   
      6. B(N   6,C   2)                  1.4759         0.408187   
      7. B(N   6,C   5)                  1.4765         0.407232   
      8. B(C   7,N   6)                  1.3583         0.628766   
      9. B(O   8,C   7)                  1.2431         0.959775   
     10. B(N   9,C   1)                  1.3604         0.623968   
     11. B(C  10,N   9)                  1.4568         0.437896   
     12. B(C  11,C  10)                  1.5461         0.352121   
     13. B(N  12,C  11)                  1.3615         0.621299   
     14. B(C  13,N  12)                  1.4598         0.433038   
     15. B(C  14,C  13)                  1.5257         0.379501   
     16. B(N  15,C  14)                  1.3449         0.660358   
     17. B(C  16,N  15)                  1.4546         0.441391   
     18. B(C  17,C  16)                  1.5461         0.352127   
     19. B(C  18,C  17)                  1.5568         0.338513   
     20. B(C  19,C  18)                  1.5344         0.367524   
     21. B(N  20,C  19)                  1.3588         0.627556   
     22. B(C  21,N  20)                  1.4574         0.436813   
     23. B(C  22,C  21)                  1.5412         0.358537   
     24. B(N  23,C  22)                  1.3623         0.619485   
     25. B(C  24,C   7)                  1.5245         0.381149   
     26. B(C  24,N  23)                  1.4491         0.450392   
     27. B(C  25,C  24)                  1.5422         0.357243   
     28. B(O  26,C  22)                  1.2327         0.997155   
     29. B(C  27,C  21)                  1.5402         0.359841   
     30. B(C  28,C  27)                  1.5357         0.365873   
     31. B(C  29,C  28)                  1.5330         0.369454   
     32. B(C  30,C  28)                  1.5324         0.370325   
     33. B(O  31,C  19)                  1.2338         0.993176   
     34. B(C  32,C  18)                  1.5352         0.366458   
     35. B(C  33,C  32)                  1.5089         0.403721   
     36. B(C  34,C  33)                  1.5280         0.376375   
     37. B(C  35,C  34)                  1.5347         0.367247   
     38. B(C  36,C  35)                  1.5314         0.371684   
     39. B(C  37,C  36)                  1.5299         0.373767   
     40. B(C  38,C  37)                  1.5297         0.374015   
     41. B(C  39,C  38)                  1.5310         0.372262   
     42. B(C  40,C  39)                  1.5301         0.373448   
     43. B(C  41,C  40)                  1.5294         0.374407   
     44. B(O  42,C  32)                  1.2296         1.008886   
     45. B(O  43,C  17)                  1.4217         0.498154   
     46. B(O  44,C  14)                  1.2457         0.950729   
     47. B(C  45,C  13)                  1.5401         0.359933   
     48. B(C  46,C  45)                  1.5280         0.376280   
     49. B(O  47,C  11)                  1.2291         1.010758   
     50. B(C  48,C  10)                  1.5477         0.349994   
     51. B(C  49,C  48)                  1.5309         0.372295   
     52. B(C  50,C  48)                  1.5342         0.367893   
     53. B(H  51,C   2)                  1.0971         0.350783   
     54. B(H  52,C   3)                  1.0996         0.347580   
     55. B(H  53,C   3)                  1.0958         0.352564   
     56. B(H  54,C   4)                  1.1002         0.346809   
     57. B(H  55,C   4)                  1.0968         0.351246   
     58. B(H  56,C   5)                  1.0979         0.349832   
     59. B(H  57,C   5)                  1.1021         0.344429   
     60. B(H  58,N   9)                  1.0165         0.422422   
     61. B(H  59,C  10)                  1.0994         0.347815   
     62. B(H  60,N  12)                  1.0212         0.415309   
     63. B(H  61,C  13)                  1.1051         0.340607   
     64. B(H  62,N  15)                  1.0138         0.426641   
     65. B(H  63,C  16)                  1.0968         0.351169   
     66. B(H  64,C  16)                  1.0995         0.347757   
     67. B(H  65,C  17)                  1.1008         0.346048   
     68. B(H  66,C  18)                  1.1015         0.345182   
     69. B(H  67,N  20)                  1.0266         0.407106   
     70. B(H  68,C  21)                  1.0966         0.351462   
     71. B(H  69,O  44)                  2.0846         0.008351   
     72. B(H  69,N  23)                  1.0238         0.411317   
     73. B(H  70,C  24)                  1.1015         0.345236   
     74. B(H  71,C  25)                  1.0963         0.351815   
     75. B(H  72,C  25)                  1.0987         0.348755   
     76. B(H  73,C  25)                  1.0978         0.349898   
     77. B(H  74,C  27)                  1.1023         0.344197   
     78. B(H  75,C  27)                  1.1033         0.342867   
     79. B(H  76,C  28)                  1.1037         0.342366   
     80. B(H  77,C  29)                  1.1005         0.346519   
     81. B(H  78,C  29)                  1.0997         0.347500   
     82. B(H  79,C  29)                  1.1017         0.344912   
     83. B(H  80,C  30)                  1.0977         0.350041   
     84. B(H  81,C  30)                  1.1021         0.344447   
     85. B(H  82,C  30)                  1.0997         0.347435   
     86. B(H  83,C  33)                  1.1041         0.341983   
     87. B(H  84,C  33)                  1.1035         0.342640   
     88. B(H  85,C  34)                  1.1021         0.344495   
     89. B(H  86,C  34)                  1.1000         0.347173   
     90. B(H  87,C  35)                  1.1025         0.343961   
     91. B(H  88,C  35)                  1.1020         0.344518   
     92. B(H  89,H  73)                  2.3502         0.000673   
     93. B(H  89,C  36)                  1.1031         0.343164   
     94. B(H  90,C  36)                  1.1045         0.341389   
     95. B(H  91,C  37)                  1.1042         0.341747   
     96. B(H  92,H  62)                  3.5603         0.000008   
     97. B(H  92,C  37)                  1.1053         0.340409   
     98. B(H  93,C  38)                  1.1033         0.342988   
     99. B(H  94,C  38)                  1.1057         0.339871   
    100. B(H  95,C  39)                  1.1049         0.340939   
    101. B(H  96,C  39)                  1.1047         0.341189   
    102. B(H  97,H  51)                  2.2390         0.001012   
    103. B(H  97,C  40)                  1.1017         0.344914   
    104. B(H  98,C  40)                  1.1050         0.340817   
    105. B(H  99,C  41)                  1.0989         0.348496   
    106. B(H 100,C  41)                  1.1005         0.346420   
    107. B(H 101,C  41)                  1.1011         0.345752   
    108. B(H 102,O  43)                  0.9851         0.474092   
    109. B(H 103,C  45)                  1.1002         0.346917   
    110. B(H 104,C  45)                  1.0971         0.350810   
    111. B(H 105,C  46)                  1.0981         0.349571   
    112. B(H 106,H  67)                  4.0589         0.000001   
    113. B(H 106,C  46)                  1.1004         0.346637   
    114. B(H 107,C  46)                  1.1006         0.346335   
    115. B(H 108,H  77)                  4.2816         0.000001   
    116. B(H 108,C  48)                  1.1071         0.338195   
    117. B(H 109,C  49)                  1.0963         0.351911   
    118. B(H 110,C  49)                  1.0996         0.347676   
    119. B(H 111,C  49)                  1.0992         0.348128   
    120. B(H 112,C  50)                  1.0989         0.348470   
    121. B(H 113,C  50)                  1.0989         0.348459   
    122. B(H 114,C  50)                  1.1006         0.346341   
    123. A(O   0,C   1,N   9)          123.5212         0.468778   
    124. A(C   2,C   1,N   9)          116.7727         0.393168   
    125. A(O   0,C   1,C   2)          119.6987         0.428362   
    126. A(C   1,C   2,H  51)          104.7888         0.321836   
    127. A(N   6,C   2,H  51)          109.2980         0.325702   
    128. A(C   1,C   2,N   6)          115.4145         0.365312   
    129. A(C   1,C   2,C   3)          112.0565         0.359857   
    130. A(C   3,C   2,H  51)          112.1276         0.321029   
    131. A(C   3,C   2,N   6)          103.3452         0.364354   
    132. A(C   4,C   3,H  53)          114.0729         0.322202   
    133. A(C   4,C   3,H  52)          110.4198         0.321452   
    134. A(C   2,C   3,C   4)          103.4268         0.359972   
    135. A(C   2,C   3,H  53)          111.3408         0.321295   
    136. A(C   2,C   3,H  52)          109.5041         0.320548   
    137. A(H  52,C   3,H  53)          107.9982         0.288273   
    138. A(H  54,C   4,H  55)          107.9882         0.288004   
    139. A(C   3,C   4,H  55)          113.3706         0.322004   
    140. A(C   3,C   4,C   5)          103.0645         0.361742   
    141. A(C   3,C   4,H  54)          110.2292         0.321335   
    142. A(C   5,C   4,H  55)          112.1269         0.322614   
    143. A(C   5,C   4,H  54)          110.0133         0.321943   
    144. A(H  56,C   5,H  57)          108.0706         0.287513   
    145. A(C   4,C   5,N   6)          102.8065         0.366006   
    146. A(C   4,C   5,H  56)          113.3180         0.322401   
    147. A(N   6,C   5,H  57)          110.5802         0.324599   
    148. A(N   6,C   5,H  56)          111.0040         0.325431   
    149. A(C   4,C   5,H  57)          111.0330         0.321580   
    150. A(C   5,N   6,C   7)          127.3470         0.398591   
    151. A(C   2,N   6,C   7)          119.7559         0.398755   
    152. A(C   2,N   6,C   5)          112.2482         0.369750   
    153. A(O   8,C   7,C  24)          120.8568         0.427410   
    154. A(N   6,C   7,O   8)          121.1588         0.464889   
    155. A(N   6,C   7,C  24)          117.9440         0.396517   
    156. A(C   1,N   9,C  10)          122.1376         0.403174   
    157. A(C  10,N   9,H  58)          118.7961         0.336904   
    158. A(C   1,N   9,H  58)          117.9464         0.357592   
    159. A(C  48,C  10,H  59)          110.1123         0.319057   
    160. A(C  11,C  10,H  59)          105.3291         0.319373   
    161. A(N   9,C  10,C  11)          112.5530         0.367305   
    162. A(N   9,C  10,C  48)          109.0032         0.366924   
    163. A(N   9,C  10,H  59)          108.0872         0.329034   
    164. A(C  11,C  10,C  48)          111.6409         0.355738   
    165. A(N  12,C  11,O  47)          124.2630         0.468291   
    166. A(C  10,C  11,O  47)          121.1506         0.425313   
    167. A(C  10,C  11,N  12)          114.4479         0.390237   
    168. A(C  13,N  12,H  60)          116.3184         0.335330   
    169. A(C  11,N  12,C  13)          123.0585         0.402078   
    170. A(C  11,N  12,H  60)          118.7207         0.356302   
    171. A(C  14,C  13,C  45)          109.3243         0.362022   
    172. A(N  12,C  13,H  61)          109.6606         0.327296   
    173. A(C  14,C  13,H  61)          110.7299         0.322203   
    174. A(N  12,C  13,C  14)          105.6596         0.371348   
    175. A(C  45,C  13,H  61)          108.9871         0.319425   
    176. A(N  12,C  13,C  45)          112.4560         0.367985   
    177. A(C  13,C  14,N  15)          118.1426         0.399644   
    178. A(N  15,C  14,O  44)          121.8421         0.468269   
    179. A(C  13,C  14,O  44)          120.0124         0.426354   
    180. A(C  14,N  15,H  62)          119.4991         0.361672   
    181. A(C  16,N  15,H  62)          120.2608         0.337910   
    182. A(C  14,N  15,C  16)          120.1957         0.407804   
    183. A(H  63,C  16,H  64)          107.9153         0.288117   
    184. A(C  17,C  16,H  64)          111.0984         0.319365   
    185. A(N  15,C  16,H  63)          108.2297         0.329989   
    186. A(C  17,C  16,H  63)          109.0646         0.319875   
    187. A(N  15,C  16,C  17)          113.2067         0.367807   
    188. A(N  15,C  16,H  64)          107.1532         0.329457   
    189. A(O  43,C  17,H  65)          105.8043         0.335857   
    190. A(C  18,C  17,H  65)          108.3123         0.317064   
    191. A(C  16,C  17,H  65)          108.7620         0.319108   
    192. A(C  16,C  17,C  18)          111.8467         0.353733   
    193. A(C  18,C  17,O  43)          111.1947         0.373001   
    194. A(C  16,C  17,O  43)          110.6806         0.375547   
    195. A(C  19,C  18,H  66)          105.5993         0.321216   
    196. A(C  17,C  18,H  66)          105.8554         0.316934   
    197. A(C  17,C  18,C  32)          106.8470         0.356134   
    198. A(C  17,C  18,C  19)          118.7504         0.356310   
    199. A(C  19,C  18,C  32)          112.9153         0.361152   
    200. A(C  32,C  18,H  66)          105.9397         0.321064   
    201. A(C  18,C  19,N  20)          117.3815         0.393861   
    202. A(N  20,C  19,O  31)          123.5057         0.467645   
    203. A(C  18,C  19,O  31)          119.1015         0.427242   
    204. A(C  19,N  20,H  67)          121.0847         0.355702   
    205. A(C  19,N  20,C  21)          122.0028         0.403406   
    206. A(C  21,N  20,H  67)          115.9577         0.334703   
    207. A(C  27,C  21,H  68)          111.2808         0.321054   
    208. A(C  22,C  21,H  68)          105.5014         0.320863   
    209. A(N  20,C  21,H  68)          107.2949         0.329466   
    210. A(N  20,C  21,C  22)          112.1976         0.368288   
    211. A(C  22,C  21,C  27)          111.1018         0.358517   
    212. A(N  20,C  21,C  27)          109.3655         0.368518   
    213. A(C  21,C  22,N  23)          115.5535         0.391271   
    214. A(C  21,C  22,O  26)          121.8687         0.425657   
    215. A(N  23,C  22,O  26)          122.5618         0.466879   
    216. A(C  22,N  23,C  24)          121.0369         0.404666   
    217. A(C  24,N  23,H  69)          117.0724         0.336988   
    218. A(C  22,N  23,H  69)          121.6555         0.355542   
    219. A(C  25,C  24,H  70)          108.4836         0.319738   
    220. A(N  23,C  24,H  70)          108.4839         0.330161   
    221. A(C   7,C  24,H  70)          111.3598         0.323146   
    222. A(N  23,C  24,C  25)          111.5360         0.370000   
    223. A(C   7,C  24,N  23)          107.7469         0.374150   
    224. A(C   7,C  24,C  25)          109.2498         0.361826   
    225. A(H  71,C  25,H  73)          109.4859         0.288477   
    226. A(C  24,C  25,H  73)          109.8971         0.320440   
    227. A(H  71,C  25,H  72)          108.6146         0.288329   
    228. A(C  24,C  25,H  72)          111.5922         0.320268   
    229. A(C  24,C  25,H  71)          108.6201         0.320726   
    230. A(H  72,C  25,H  73)          108.6012         0.288083   
    231. A(C  28,C  27,H  75)          109.2594         0.320627   
    232. A(C  21,C  27,C  28)          115.7308         0.359756   
    233. A(H  74,C  27,H  75)          106.6542         0.286581   
    234. A(C  21,C  27,H  75)          107.1893         0.319757   
    235. A(C  28,C  27,H  74)          109.3499         0.320830   
    236. A(C  21,C  27,H  74)          108.2709         0.319959   
    237. A(C  29,C  28,C  30)          111.2023         0.362123   
    238. A(C  27,C  28,C  30)          112.1831         0.361521   
    239. A(C  27,C  28,C  29)          109.4312         0.361376   
    240. A(C  30,C  28,H  76)          107.7063         0.321185   
    241. A(C  29,C  28,H  76)          108.0752         0.321061   
    242. A(C  27,C  28,H  76)          108.0951         0.320550   
    243. A(C  28,C  29,H  79)          110.8211         0.321451   
    244. A(H  78,C  29,H  79)          107.6075         0.287275   
    245. A(H  77,C  29,H  79)          107.6539         0.287149   
    246. A(H  77,C  29,H  78)          108.0338         0.287484   
    247. A(C  28,C  29,H  78)          111.0865         0.321844   
    248. A(C  28,C  29,H  77)          111.4730         0.321695   
    249. A(H  81,C  30,H  82)          107.6839         0.287207   
    250. A(H  80,C  30,H  82)          107.6049         0.287931   
    251. A(C  28,C  30,H  82)          110.7185         0.321958   
    252. A(H  80,C  30,H  81)          108.5674         0.287542   
    253. A(C  28,C  30,H  81)          110.7017         0.321503   
    254. A(C  28,C  30,H  80)          111.4265         0.322353   
    255. A(C  33,C  32,O  42)          122.3949         0.435740   
    256. A(C  18,C  32,O  42)          117.8929         0.428223   
    257. A(C  18,C  32,C  33)          119.5834         0.367000   
    258. A(C  32,C  33,C  34)          114.6092         0.368685   
    259. A(C  34,C  33,H  84)          111.8267         0.322080   
    260. A(H  83,C  33,H  84)          103.2583         0.286263   
    261. A(C  32,C  33,H  84)          105.7783         0.325810   
    262. A(C  34,C  33,H  83)          112.3257         0.321979   
    263. A(C  32,C  33,H  83)          108.2311         0.325707   
    264. A(C  33,C  34,C  35)          114.5371         0.362755   
    265. A(H  85,C  34,H  86)          106.6857         0.287179   
    266. A(C  35,C  34,H  86)          108.8979         0.321479   
    267. A(C  33,C  34,H  86)          108.5580         0.322775   
    268. A(C  35,C  34,H  85)          109.5871         0.321072   
    269. A(C  33,C  34,H  85)          108.2846         0.322365   
    270. A(C  34,C  35,C  36)          115.3037         0.361979   
    271. A(H  87,C  35,H  88)          105.4876         0.286765   
    272. A(C  36,C  35,H  88)          109.5803         0.321707   
    273. A(C  34,C  35,H  88)          108.9695         0.321075   
    274. A(C  36,C  35,H  87)          108.4801         0.321622   
    275. A(C  34,C  35,H  87)          108.5630         0.320990   
    276. A(C  35,C  36,C  37)          112.2867         0.363069   
    277. A(H  89,C  36,H  90)          105.9369         0.286254   
    278. A(C  37,C  36,H  90)          109.4770         0.321521   
    279. A(C  35,C  36,H  90)          109.5096         0.321227   
    280. A(C  37,C  36,H  89)          108.7096         0.321794   
    281. A(C  35,C  36,H  89)          110.7162         0.321500   
    282. A(C  36,C  37,C  38)          114.4338         0.363457   
    283. A(H  91,C  37,H  92)          105.5040         0.285941   
    284. A(C  38,C  37,H  92)          109.0728         0.321405   
    285. A(C  36,C  37,H  92)          109.0156         0.321370   
    286. A(C  38,C  37,H  91)          109.3554         0.321611   
    287. A(C  36,C  37,H  91)          109.0793         0.321576   
    288. A(C  37,C  38,C  39)          112.9389         0.363206   
    289. A(H  93,C  38,H  94)          106.2356         0.286032   
    290. A(C  39,C  38,H  94)          109.1799         0.321075   
    291. A(C  37,C  38,H  94)          109.0719         0.321322   
    292. A(C  39,C  38,H  93)          109.9583         0.321555   
    293. A(C  37,C  38,H  93)          109.2316         0.321802   
    294. A(C  38,C  39,C  40)          114.0585         0.363112   
    295. A(H  95,C  39,H  96)          105.7721         0.285938   
    296. A(C  40,C  39,H  96)          109.1007         0.321445   
    297. A(C  38,C  39,H  96)          109.2066         0.321278   
    298. A(C  40,C  39,H  95)          109.3249         0.321407   
    299. A(C  38,C  39,H  95)          109.0492         0.321239   
    300. A(C  39,C  40,C  41)          113.1278         0.363469   
    301. A(H  97,C  40,H  98)          106.3004         0.286406   
    302. A(C  41,C  40,H  98)          109.3838         0.321523   
    303. A(C  39,C  40,H  98)          108.9645         0.321388   
    304. A(C  41,C  40,H  97)          108.8232         0.322153   
    305. A(C  39,C  40,H  97)          110.0129         0.322017   
    306. A(H 100,C  41,H 101)          107.5853         0.287245   
    307. A(H  99,C  41,H 101)          107.9994         0.287513   
    308. A(C  40,C  41,H 101)          111.3679         0.322281   
    309. A(H  99,C  41,H 100)          107.4794         0.287600   
    310. A(C  40,C  41,H 100)          110.8808         0.322382   
    311. A(C  40,C  41,H  99)          111.3497         0.322698   
    312. A(C  17,O  43,H 102)          105.7690         0.350999   
    313. A(C  13,C  45,C  46)          112.2570         0.361496   
    314. A(C  46,C  45,H 104)          110.6463         0.323313   
    315. A(C  13,C  45,H 104)          107.3066         0.320969   
    316. A(C  46,C  45,H 103)          110.9124         0.322722   
    317. A(C  13,C  45,H 103)          107.4395         0.320384   
    318. A(H 103,C  45,H 104)          108.0928         0.287962   
    319. A(H 106,C  46,H 107)          107.7043         0.287349   
    320. A(H 105,C  46,H 107)          107.4598         0.287727   
    321. A(C  45,C  46,H 107)          111.2396         0.322633   
    322. A(H 105,C  46,H 106)          107.4469         0.287767   
    323. A(C  45,C  46,H 106)          112.0754         0.322679   
    324. A(C  45,C  46,H 105)          110.7067         0.323126   
    325. A(C  50,C  48,H 108)          108.7356         0.320196   
    326. A(C  49,C  48,H 108)          107.8549         0.320820   
    327. A(C  10,C  48,H 108)          106.6429         0.317601   
    328. A(C  49,C  48,C  50)          110.5494         0.362189   
    329. A(C  10,C  48,C  50)          110.2426         0.358396   
    330. A(C  10,C  48,C  49)          112.6405         0.359122   
    331. A(H 110,C  49,H 111)          108.2069         0.287715   
    332. A(H 109,C  49,H 111)          108.3615         0.288260   
    333. A(C  48,C  49,H 111)          109.7029         0.322343   
    334. A(H 109,C  49,H 110)          107.3689         0.288202   
    335. A(C  48,C  49,H 110)          110.8444         0.322275   
    336. A(C  48,C  49,H 109)          112.2282         0.322915   
    337. A(H 113,C  50,H 114)          107.8652         0.287585   
    338. A(H 112,C  50,H 114)          107.6860         0.287587   
    339. A(C  48,C  50,H 114)          110.2967         0.321445   
    340. A(H 112,C  50,H 113)          107.9888         0.287861   
    341. A(C  48,C  50,H 113)          110.5135         0.321766   
    342. A(C  48,C  50,H 112)          112.3333         0.321768   
    343. D(H  51,C   2,C   1,N   9)   -133.2565         0.010044   
    344. D(C   3,C   2,C   1,N   9)    104.9198         0.010044   
    345. D(N   6,C   2,C   1,N   9)    -13.0005         0.010044   
    346. D(N   6,C   2,C   1,O   0)    167.9535         0.010044   
    347. D(C   3,C   2,C   1,O   0)    -74.1261         0.010044   
    348. D(H  51,C   2,C   1,O   0)     47.6975         0.010044   
    349. D(C   4,C   3,C   2,N   6)     28.5862         0.010417   
    350. D(H  53,C   3,C   2,H  51)    -90.9029         0.010417   
    351. D(H  53,C   3,C   2,C   1)     26.6175         0.010417   
    352. D(C   4,C   3,C   2,H  51)    146.1746         0.010417   
    353. D(H  53,C   3,C   2,N   6)    151.5087         0.010417   
    354. D(H  52,C   3,C   2,H  51)     28.4584         0.010417   
    355. D(C   4,C   3,C   2,C   1)    -96.3050         0.010417   
    356. D(H  52,C   3,C   2,C   1)    145.9787         0.010417   
    357. D(H  52,C   3,C   2,N   6)    -89.1300         0.010417   
    358. D(H  55,C   4,C   3,H  53)     78.4868         0.010757   
    359. D(H  55,C   4,C   3,H  52)    -43.3454         0.010757   
    360. D(H  54,C   4,C   3,H  52)   -164.5290         0.010757   
    361. D(H  55,C   4,C   3,C   2)   -160.4199         0.010757   
    362. D(H  54,C   4,C   3,H  53)    -42.6968         0.010757   
    363. D(C   5,C   4,C   3,C   2)    -38.9867         0.010757   
    364. D(H  54,C   4,C   3,C   2)     78.3966         0.010757   
    365. D(C   5,C   4,C   3,H  53)   -160.0801         0.010757   
    366. D(C   5,C   4,C   3,H  52)     78.0877         0.010757   
    367. D(N   6,C   5,C   4,C   3)     33.7958         0.010993   
    368. D(H  57,C   5,C   4,C   3)    -84.4741         0.010993   
    369. D(H  56,C   5,C   4,H  55)    -84.0473         0.010993   
    370. D(H  56,C   5,C   4,C   3)    153.6802         0.010993   
    371. D(H  57,C   5,C   4,H  54)    157.9904         0.010993   
    372. D(H  56,C   5,C   4,H  54)     36.1446         0.010993   
    373. D(H  57,C   5,C   4,H  55)     37.7984         0.010993   
    374. D(N   6,C   5,C   4,H  54)    -83.7397         0.010993   
    375. D(N   6,C   5,C   4,H  55)    156.0683         0.010993   
    376. D(C   5,N   6,C   2,C   3)     -7.5714         0.014216   
    377. D(C   7,N   6,C   5,H  57)    -68.5884         0.014150   
    378. D(C   7,N   6,C   5,H  56)     51.3507         0.014150   
    379. D(C   7,N   6,C   5,C   4)    172.8239         0.014150   
    380. D(C   2,N   6,C   5,H  57)    102.0495         0.014150   
    381. D(C   2,N   6,C   5,H  56)   -138.0114         0.014150   
    382. D(C   7,N   6,C   2,H  51)     44.3083         0.014216   
    383. D(C   2,N   6,C   5,C   4)    -16.5382         0.014150   
    384. D(C   7,N   6,C   2,C   3)    163.8618         0.014216   
    385. D(C   5,N   6,C   2,C   1)    115.1128         0.014216   
    386. D(C   7,N   6,C   2,C   1)    -73.4540         0.014216   
    387. D(C   5,N   6,C   2,H  51)   -127.1249         0.014216   
    388. D(C  24,C   7,N   6,C   5)      3.7670         0.032085   
    389. D(C  24,C   7,N   6,C   2)   -166.2457         0.032085   
    390. D(O   8,C   7,N   6,C   5)   -178.5289         0.032085   
    391. D(O   8,C   7,N   6,C   2)     11.4584         0.032085   
    392. D(H  58,N   9,C   1,O   0)   -176.4474         0.031558   
    393. D(C  10,N   9,C   1,C   2)    172.2953         0.031558   
    394. D(H  58,N   9,C   1,C   2)      4.5466         0.031558   
    395. D(C  10,N   9,C   1,O   0)     -8.6988         0.031558   
    396. D(H  59,C  10,N   9,C   1)     41.8495         0.016350   
    397. D(C  48,C  10,N   9,H  58)    -30.8279         0.016350   
    398. D(C  48,C  10,N   9,C   1)    161.5235         0.016350   
    399. D(C  11,C  10,N   9,C   1)    -74.0486         0.016350   
    400. D(H  59,C  10,N   9,H  58)   -150.5019         0.016350   
    401. D(C  11,C  10,N   9,H  58)     93.6000         0.016350   
    402. D(O  47,C  11,C  10,N   9)    151.1602         0.009359   
    403. D(N  12,C  11,C  10,H  59)   -150.4852         0.009359   
    404. D(N  12,C  11,C  10,C  48)     90.0204         0.009359   
    405. D(N  12,C  11,C  10,N   9)    -32.9423         0.009359   
    406. D(O  47,C  11,C  10,H  59)     33.6173         0.009359   
    407. D(O  47,C  11,C  10,C  48)    -85.8771         0.009359   
    408. D(H  60,N  12,C  11,O  47)   -165.0134         0.031268   
    409. D(H  60,N  12,C  11,C  10)     19.2350         0.031268   
    410. D(C  13,N  12,C  11,O  47)     -1.3045         0.031268   
    411. D(C  13,N  12,C  11,C  10)   -177.0561         0.031268   
    412. D(H  61,C  13,N  12,C  11)    -57.2276         0.015988   
    413. D(H  61,C  13,N  12,H  60)    106.8429         0.015988   
    414. D(C  45,C  13,N  12,H  60)   -131.7234         0.015988   
    415. D(C  45,C  13,N  12,C  11)     64.2062         0.015988   
    416. D(C  14,C  13,N  12,C  11)   -176.6023         0.015988   
    417. D(C  14,C  13,N  12,H  60)    -12.5318         0.015988   
    418. D(O  44,C  14,C  13,C  45)     63.3485         0.010749   
    419. D(O  44,C  14,C  13,N  12)    -57.8955         0.010749   
    420. D(N  15,C  14,C  13,H  61)      2.8232         0.010749   
    421. D(N  15,C  14,C  13,C  45)   -117.2670         0.010749   
    422. D(O  44,C  14,C  13,H  61)   -176.5612         0.010749   
    423. D(N  15,C  14,C  13,N  12)    121.4889         0.010749   
    424. D(H  62,N  15,C  14,O  44)   -178.7101         0.035688   
    425. D(H  62,N  15,C  14,C  13)      1.9173         0.035688   
    426. D(C  16,N  15,C  14,O  44)      3.7067         0.035688   
    427. D(C  16,N  15,C  14,C  13)   -175.6658         0.035688   
    428. D(H  64,C  16,N  15,H  62)   -133.8525         0.016614   
    429. D(H  64,C  16,N  15,C  14)     43.7121         0.016614   
    430. D(H  63,C  16,N  15,H  62)    -17.7103         0.016614   
    431. D(H  63,C  16,N  15,C  14)    159.8542         0.016614   
    432. D(C  17,C  16,N  15,C  14)    -79.1232         0.016614   
    433. D(C  17,C  16,N  15,H  62)    103.3122         0.016614   
    434. D(H  65,C  17,C  16,H  64)    -83.6496         0.009980   
    435. D(H  65,C  17,C  16,H  63)    157.5220         0.009980   
    436. D(H  65,C  17,C  16,N  15)     36.9723         0.009980   
    437. D(O  43,C  17,C  16,H  64)    160.5222         0.009980   
    438. D(O  43,C  17,C  16,H  63)     41.6939         0.009980   
    439. D(O  43,C  17,C  16,N  15)    -78.8558         0.009980   
    440. D(C  18,C  17,C  16,H  64)     35.9337         0.009980   
    441. D(C  18,C  17,C  16,H  63)    -82.8946         0.009980   
    442. D(C  18,C  17,C  16,N  15)    156.5557         0.009980   
    443. D(H  66,C  18,C  17,H  65)    -73.4082         0.009286   
    444. D(H  66,C  18,C  17,O  43)     42.4425         0.009286   
    445. D(H  66,C  18,C  17,C  16)    166.7442         0.009286   
    446. D(C  32,C  18,C  17,O  43)    -70.1574         0.009286   
    447. D(C  32,C  18,C  17,C  16)     54.1443         0.009286   
    448. D(C  32,C  18,C  17,H  65)    173.9919         0.009286   
    449. D(C  19,C  18,C  17,H  65)     44.9295         0.009286   
    450. D(C  19,C  18,C  17,O  43)    160.7802         0.009286   
    451. D(C  19,C  18,C  17,C  16)    -74.9181         0.009286   
    452. D(O  31,C  19,C  18,H  66)    -61.8885         0.010125   
    453. D(O  31,C  19,C  18,C  32)     53.4257         0.010125   
    454. D(O  31,C  19,C  18,C  17)    179.6404         0.010125   
    455. D(N  20,C  19,C  18,H  66)    116.9321         0.010125   
    456. D(N  20,C  19,C  18,C  17)     -1.5390         0.010125   
    457. D(N  20,C  19,C  18,C  32)   -127.7537         0.010125   
    458. D(H  67,N  20,C  19,O  31)   -175.4385         0.031951   
    459. D(H  67,N  20,C  19,C  18)      5.7974         0.031951   
    460. D(C  21,N  20,C  19,O  31)     -7.0733         0.031951   
    461. D(C  21,N  20,C  19,C  18)    174.1626         0.031951   
    462. D(H  68,C  21,N  20,H  67)   -166.4850         0.016269   
    463. D(H  68,C  21,N  20,C  19)     24.5899         0.016269   
    464. D(C  27,C  21,N  20,H  67)    -45.6638         0.016269   
    465. D(C  27,C  21,N  20,C  19)    145.4111         0.016269   
    466. D(C  22,C  21,N  20,H  67)     78.0871         0.016269   
    467. D(C  22,C  21,N  20,C  19)    -90.8380         0.016269   
    468. D(N  23,C  22,C  21,C  27)     86.6017         0.009673   
    469. D(N  23,C  22,C  21,N  20)    -36.1735         0.009673   
    470. D(O  26,C  22,C  21,H  68)     28.7391         0.009673   
    471. D(O  26,C  22,C  21,C  27)    -91.9742         0.009673   
    472. D(O  26,C  22,C  21,N  20)    145.2506         0.009673   
    473. D(N  23,C  22,C  21,H  68)   -152.6850         0.009673   
    474. D(H  69,N  23,C  22,O  26)    173.3889         0.031071   
    475. D(H  69,N  23,C  22,C  21)     -5.1761         0.031071   
    476. D(C  24,N  23,C  22,O  26)     -0.8757         0.031071   
    477. D(C  24,N  23,C  22,C  21)   -179.4407         0.031071   
    478. D(H  70,C  24,N  23,H  69)   -130.7599         0.017305   
    479. D(H  70,C  24,N  23,C  22)     43.7581         0.017305   
    480. D(C  25,C  24,N  23,H  69)    109.8149         0.017305   
    481. D(C  25,C  24,N  23,C  22)    -75.6671         0.017305   
    482. D(C   7,C  24,N  23,H  69)    -10.0821         0.017305   
    483. D(C   7,C  24,N  23,C  22)    164.4359         0.017305   
    484. D(H  70,C  24,C   7,O   8)    145.3819         0.010836   
    485. D(H  70,C  24,C   7,N   6)    -36.9067         0.010836   
    486. D(C  25,C  24,C   7,O   8)    -94.8066         0.010836   
    487. D(C  25,C  24,C   7,N   6)     82.9048         0.010836   
    488. D(N  23,C  24,C   7,O   8)     26.5268         0.010836   
    489. D(N  23,C  24,C   7,N   6)   -155.7619         0.010836   
    490. D(H  73,C  25,C  24,H  70)    178.5970         0.010250   
    491. D(H  73,C  25,C  24,N  23)    -61.9776         0.010250   
    492. D(H  73,C  25,C  24,C   7)     57.0289         0.010250   
    493. D(H  72,C  25,C  24,H  70)     58.0613         0.010250   
    494. D(H  72,C  25,C  24,N  23)    177.4867         0.010250   
    495. D(H  72,C  25,C  24,C   7)    -63.5068         0.010250   
    496. D(H  71,C  25,C  24,H  70)    -61.6480         0.010250   
    497. D(H  71,C  25,C  24,N  23)     57.7774         0.010250   
    498. D(H  71,C  25,C  24,C   7)    176.7839         0.010250   
    499. D(H  75,C  27,C  21,H  68)     58.2285         0.010389   
    500. D(H  75,C  27,C  21,C  22)    175.4701         0.010389   
    501. D(H  75,C  27,C  21,N  20)    -60.1359         0.010389   
    502. D(H  74,C  27,C  21,H  68)    172.9404         0.010389   
    503. D(H  74,C  27,C  21,C  22)    -69.8181         0.010389   
    504. D(H  74,C  27,C  21,N  20)     54.5760         0.010389   
    505. D(C  28,C  27,C  21,H  68)    -63.9361         0.010389   
    506. D(C  28,C  27,C  21,C  22)     53.3055         0.010389   
    507. D(C  28,C  27,C  21,N  20)    177.6995         0.010389   
    508. D(H  76,C  28,C  27,H  75)    179.9612         0.010716   
    509. D(H  76,C  28,C  27,H  74)     63.5723         0.010716   
    510. D(H  76,C  28,C  27,C  21)    -58.9817         0.010716   
    511. D(C  30,C  28,C  27,H  75)    -61.4336         0.010716   
    512. D(C  30,C  28,C  27,H  74)   -177.8224         0.010716   
    513. D(C  30,C  28,C  27,C  21)     59.6235         0.010716   
    514. D(C  29,C  28,C  27,H  75)     62.4842         0.010716   
    515. D(C  29,C  28,C  27,H  74)    -53.9047         0.010716   
    516. D(C  29,C  28,C  27,C  21)   -176.4587         0.010716   
    517. D(H  79,C  29,C  28,C  30)     61.3857         0.010914   
    518. D(H  79,C  29,C  28,C  27)    -63.1061         0.010914   
    519. D(H  78,C  29,C  28,H  76)     59.8341         0.010914   
    520. D(H  78,C  29,C  28,C  30)    -58.1847         0.010914   
    521. D(H  78,C  29,C  28,C  27)    177.3235         0.010914   
    522. D(H  77,C  29,C  28,H  76)    -60.7115         0.010914   
    523. D(H  77,C  29,C  28,C  30)   -178.7302         0.010914   
    524. D(H  79,C  29,C  28,H  76)    179.4045         0.010914   
    525. D(H  77,C  29,C  28,C  27)     56.7780         0.010914   
    526. D(H  82,C  30,C  28,H  76)    -64.7704         0.010962   
    527. D(H  82,C  30,C  28,C  29)     53.4711         0.010962   
    528. D(H  82,C  30,C  28,C  27)    176.3952         0.010962   
    529. D(H  81,C  30,C  28,H  76)    175.8811         0.010962   
    530. D(H  81,C  30,C  28,C  29)    -65.8774         0.010962   
    531. D(H  81,C  30,C  28,C  27)     57.0466         0.010962   
    532. D(H  80,C  30,C  28,H  76)     54.9523         0.010962   
    533. D(H  80,C  30,C  28,C  29)    173.1939         0.010962   
    534. D(H  80,C  30,C  28,C  27)    -63.8821         0.010962   
    535. D(O  42,C  32,C  18,H  66)    -49.3329         0.010070   
    536. D(O  42,C  32,C  18,C  19)   -164.4429         0.010070   
    537. D(O  42,C  32,C  18,C  17)     63.2091         0.010070   
    538. D(C  33,C  32,C  18,H  66)    134.6936         0.010070   
    539. D(C  33,C  32,C  18,C  19)     19.5836         0.010070   
    540. D(C  33,C  32,C  18,C  17)   -112.7644         0.010070   
    541. D(H  84,C  33,C  32,O  42)    111.3848         0.012086   
    542. D(H  84,C  33,C  32,C  18)    -72.8302         0.012086   
    543. D(H  83,C  33,C  32,O  42)   -138.4952         0.012086   
    544. D(H  83,C  33,C  32,C  18)     37.2899         0.012086   
    545. D(C  34,C  33,C  32,O  42)    -12.2833         0.012086   
    546. D(C  34,C  33,C  32,C  18)    163.5018         0.012086   
    547. D(H  86,C  34,C  33,H  84)    -64.0733         0.011302   
    548. D(H  86,C  34,C  33,H  83)   -179.6388         0.011302   
    549. D(H  86,C  34,C  33,C  32)     56.2996         0.011302   
    550. D(H  85,C  34,C  33,H  84)     51.3882         0.011302   
    551. D(H  85,C  34,C  33,H  83)    -64.1774         0.011302   
    552. D(H  85,C  34,C  33,C  32)    171.7611         0.011302   
    553. D(C  35,C  34,C  33,H  84)    174.0008         0.011302   
    554. D(C  35,C  34,C  33,H  83)     58.4352         0.011302   
    555. D(C  35,C  34,C  33,C  32)    -65.6263         0.011302   
    556. D(H  88,C  35,C  34,H  86)    -63.0885         0.010792   
    557. D(H  88,C  35,C  34,H  85)   -179.4436         0.010792   
    558. D(H  88,C  35,C  34,C  33)     58.6519         0.010792   
    559. D(H  87,C  35,C  34,H  86)     51.3234         0.010792   
    560. D(H  87,C  35,C  34,H  85)    -65.0317         0.010792   
    561. D(H  87,C  35,C  34,C  33)    173.0637         0.010792   
    562. D(C  36,C  35,C  34,H  86)    173.2359         0.010792   
    563. D(C  36,C  35,C  34,H  85)     56.8808         0.010792   
    564. D(C  36,C  35,C  34,C  33)    -65.0237         0.010792   
    565. D(H  90,C  36,C  35,H  87)     61.1873         0.011038   
    566. D(H  90,C  36,C  35,C  34)    -60.7698         0.011038   
    567. D(H  89,C  36,C  35,H  88)    -67.6716         0.011038   
    568. D(H  89,C  36,C  35,H  87)    177.6385         0.011038   
    569. D(H  89,C  36,C  35,C  34)     55.6815         0.011038   
    570. D(C  37,C  36,C  35,H  88)     54.0396         0.011038   
    571. D(C  37,C  36,C  35,H  87)    -60.6502         0.011038   
    572. D(H  90,C  36,C  35,H  88)    175.8771         0.011038   
    573. D(C  37,C  36,C  35,C  34)    177.3927         0.011038   
    574. D(H  92,C  37,C  36,H  90)   -179.3448         0.011154   
    575. D(H  92,C  37,C  36,H  89)     65.3607         0.011154   
    576. D(H  92,C  37,C  36,C  35)    -57.4887         0.011154   
    577. D(H  91,C  37,C  36,H  90)    -64.6132         0.011154   
    578. D(H  91,C  37,C  36,H  89)   -179.9076         0.011154   
    579. D(H  91,C  37,C  36,C  35)     57.2429         0.011154   
    580. D(C  38,C  37,C  36,H  90)     58.2293         0.011154   
    581. D(C  38,C  37,C  36,H  89)    -57.0651         0.011154   
    582. D(C  38,C  37,C  36,C  35)   -179.9146         0.011154   
    583. D(H  94,C  38,C  37,H  92)   -178.0756         0.011168   
    584. D(H  94,C  38,C  37,H  91)     67.0120         0.011168   
    585. D(H  94,C  38,C  37,C  36)    -55.6809         0.011168   
    586. D(H  93,C  38,C  37,H  92)    -62.3589         0.011168   
    587. D(H  93,C  38,C  37,H  91)   -177.2713         0.011168   
    588. D(H  93,C  38,C  37,C  36)     60.0358         0.011168   
    589. D(C  39,C  38,C  37,H  92)     60.3379         0.011168   
    590. D(C  39,C  38,C  37,H  91)    -54.5744         0.011168   
    591. D(C  39,C  38,C  37,C  36)   -177.2674         0.011168   
    592. D(H  95,C  39,C  38,H  94)    -65.8855         0.011070   
    593. D(H  95,C  39,C  38,H  93)    177.9307         0.011070   
    594. D(H  95,C  39,C  38,C  37)     55.6400         0.011070   
    595. D(C  40,C  39,C  38,H  94)     56.6321         0.011070   
    596. D(C  40,C  39,C  38,H  93)    -59.5517         0.011070   
    597. D(C  40,C  39,C  38,C  37)    178.1576         0.011070   
    598. D(H  96,C  39,C  38,H  94)    178.9768         0.011070   
    599. D(H  96,C  39,C  38,H  93)     62.7931         0.011070   
    600. D(H  96,C  39,C  38,C  37)    -59.4977         0.011070   
    601. D(H  98,C  40,C  39,H  95)     66.6916         0.011136   
    602. D(H  98,C  40,C  39,C  38)    -55.6751         0.011136   
    603. D(H  97,C  40,C  39,H  96)    -61.9091         0.011136   
    604. D(H  97,C  40,C  39,H  95)   -177.1397         0.011136   
    605. D(H  97,C  40,C  39,C  38)     60.4936         0.011136   
    606. D(C  41,C  40,C  39,H  96)     60.0259         0.011136   
    607. D(C  41,C  40,C  39,H  95)    -55.2047         0.011136   
    608. D(H  98,C  40,C  39,H  96)   -178.0778         0.011136   
    609. D(C  41,C  40,C  39,C  38)   -177.5713         0.011136   
    610. D(H 101,C  41,C  40,H  98)    -61.5431         0.011190   
    611. D(H 101,C  41,C  40,H  97)   -177.2829         0.011190   
    612. D(H 101,C  41,C  40,C  39)     60.1178         0.011190   
    613. D(H 100,C  41,C  40,H  98)    178.6892         0.011190   
    614. D(H 100,C  41,C  40,H  97)     62.9494         0.011190   
    615. D(H 100,C  41,C  40,C  39)    -59.6499         0.011190   
    616. D(H  99,C  41,C  40,H  98)     59.0672         0.011190   
    617. D(H  99,C  41,C  40,H  97)    -56.6726         0.011190   
    618. D(H  99,C  41,C  40,C  39)   -179.2719         0.011190   
    619. D(H 102,O  43,C  17,H  65)    157.4836         0.019614   
    620. D(H 102,O  43,C  17,C  18)     40.0973         0.019614   
    621. D(H 102,O  43,C  17,C  16)    -84.8615         0.019614   
    622. D(H 104,C  45,C  13,H  61)     65.8927         0.010394   
    623. D(H 104,C  45,C  13,C  14)   -172.9535         0.010394   
    624. D(H 104,C  45,C  13,N  12)    -55.9245         0.010394   
    625. D(H 103,C  45,C  13,H  61)   -178.0774         0.010394   
    626. D(H 103,C  45,C  13,C  14)    -56.9237         0.010394   
    627. D(H 103,C  45,C  13,N  12)     60.1054         0.010394   
    628. D(C  46,C  45,C  13,H  61)    -55.8813         0.010394   
    629. D(C  46,C  45,C  13,C  14)     65.2725         0.010394   
    630. D(C  46,C  45,C  13,N  12)   -177.6985         0.010394   
    631. D(H 107,C  46,C  45,H 104)    -60.3133         0.011296   
    632. D(H 107,C  46,C  45,H 103)    179.7361         0.011296   
    633. D(H 107,C  46,C  45,C  13)     59.5347         0.011296   
    634. D(H 106,C  46,C  45,H 104)    179.0425         0.011296   
    635. D(H 106,C  46,C  45,H 103)     59.0918         0.011296   
    636. D(H 106,C  46,C  45,C  13)    -61.1096         0.011296   
    637. D(H 105,C  46,C  45,H 104)     59.0963         0.011296   
    638. D(H 105,C  46,C  45,H 103)    -60.8543         0.011296   
    639. D(H 105,C  46,C  45,C  13)    178.9443         0.011296   
    640. D(H 108,C  48,C  10,H  59)    173.3224         0.009869   
    641. D(H 108,C  48,C  10,C  11)    -70.0515         0.009869   
    642. D(H 108,C  48,C  10,N   9)     54.9113         0.009869   
    643. D(C  50,C  48,C  10,H  59)     55.4469         0.009869   
    644. D(C  50,C  48,C  10,C  11)    172.0730         0.009869   
    645. D(C  50,C  48,C  10,N   9)    -62.9642         0.009869   
    646. D(C  49,C  48,C  10,H  59)    -68.5515         0.009869   
    647. D(C  49,C  48,C  10,C  11)     48.0746         0.009869   
    648. D(C  49,C  48,C  10,N   9)    173.0374         0.009869   
    649. D(H 111,C  49,C  48,C  50)     54.3509         0.011072   
    650. D(H 111,C  49,C  48,C  10)    178.1797         0.011072   
    651. D(H 110,C  49,C  48,H 108)    176.1536         0.011072   
    652. D(H 110,C  49,C  48,C  50)    -65.0865         0.011072   
    653. D(H 110,C  49,C  48,C  10)     58.7423         0.011072   
    654. D(H 109,C  49,C  48,H 108)     56.1091         0.011072   
    655. D(H 109,C  49,C  48,C  50)    174.8690         0.011072   
    656. D(H 111,C  49,C  48,H 108)    -64.4090         0.011072   
    657. D(H 109,C  49,C  48,C  10)    -61.3022         0.011072   
    658. D(H 114,C  50,C  48,H 108)    178.2432         0.010827   
    659. D(H 114,C  50,C  48,C  49)     60.0199         0.010827   
    660. D(H 114,C  50,C  48,C  10)    -65.1786         0.010827   
    661. D(H 113,C  50,C  48,H 108)     59.0595         0.010827   
    662. D(H 113,C  50,C  48,C  49)    -59.1639         0.010827   
    663. D(H 113,C  50,C  48,C  10)    175.6376         0.010827   
    664. D(H 112,C  50,C  48,H 108)    -61.6167         0.010827   
    665. D(H 112,C  50,C  48,C  49)   -179.8400         0.010827   
    666. D(H 112,C  50,C  48,C  10)     54.9615         0.010827   
    -----------------------------------------------------------------

Number of atoms                         .... 115
Number of degrees of freedom            .... 666

         *************************************************************
         *                GEOMETRY OPTIMIZATION CYCLE   1            *
         *************************************************************
---------------------------------
CARTESIAN COORDINATES (ANGSTROEM)
---------------------------------
  O      3.782822   -3.378525   -0.932037
  C      3.819587   -2.249153   -0.449513
  C      3.952848   -1.030605   -1.374453
  C      5.376250   -0.890489   -1.944775
  C      6.042575    0.116430   -0.996781
  C      4.921925    1.122904   -0.717364
  N      3.711062    0.278188   -0.736626
  C      2.444602    0.645904   -0.411392
  O      1.509069   -0.172132   -0.443188
  N      3.768279   -2.001227    0.887080
  C      3.478742   -3.047287    1.858709
  C      1.988399   -3.458745    1.860684
  N      1.123813   -2.445858    1.577295
  C     -0.326666   -2.609994    1.590048
  C     -0.896827   -1.269328    1.136903
  N     -1.681209   -1.250204    0.044558
  C     -2.171644    0.013973   -0.481907
  C     -3.380088    0.573330    0.303708
  C     -3.516833    2.115026    0.135814
  C     -2.540431    3.028870    0.888178
  N     -1.621191    2.433728    1.692630
  C     -0.568083    3.192618    2.355316
  C      0.713622    3.276024    1.503538
  N      1.009476    2.162601    0.776430
  C      2.193762    2.107259   -0.056806
  C      2.011820    2.921196   -1.353990
  O      1.432980    4.277114    1.506366
  C     -0.278513    2.568366    3.733235
  C      0.852465    3.224972    4.538246
  C      1.076049    2.440952    5.836503
  C      0.574963    4.704465    4.825086
  O     -2.638699    4.251503    0.754536
  C     -3.557142    2.396455   -1.372867
  C     -2.413976    3.135715   -2.023536
  C     -2.362457    3.014871   -3.545846
  C     -2.081740    1.597707   -4.063529
  C     -0.702434    1.033392   -3.711121
  C     -0.519901   -0.403122   -4.204661
  C      0.842385   -1.016629   -3.876479
  C      1.012949   -2.428666   -4.442951
  C      2.383917   -3.049818   -4.167638
  C      2.552131   -4.435418   -4.792830
  O     -4.497503    1.937661   -2.018665
  O     -4.577298   -0.093157   -0.075241
  O     -0.622549   -0.230498    1.767330
  C     -0.868326   -2.946502    2.991960
  C     -2.379532   -3.172656    2.989610
  O      1.643116   -4.595594    2.175229
  C      3.943046   -2.577510    3.258444
  C      3.525792   -3.541614    4.372070
  C      5.462542   -2.366159    3.270429
  H      3.206381   -1.193677   -2.161791
  H      5.324685   -0.481493   -2.964215
  H      5.883223   -1.860641   -1.994432
  H      6.342892   -0.381612   -0.062818
  H      6.930871    0.595798   -1.425797
  H      5.028821    1.635511    0.247590
  H      4.872317    1.889216   -1.507905
  H      3.749371   -1.031465    1.191344
  H      4.029439   -3.951234    1.561384
  H      1.481074   -1.612925    1.106787
  H     -0.615962   -3.414793    0.890076
  H     -1.897486   -2.119615   -0.430025
  H     -2.464507   -0.140317   -1.527600
  H     -1.328968    0.720070   -0.467338
  H     -3.239874    0.352954    1.373107
  H     -4.517388    2.371830    0.518281
  H     -1.526200    1.411997    1.723487
  H     -0.922807    4.225663    2.452997
  H      0.458104    1.304025    0.860124
  H      3.038057    2.533773    0.507551
  H      1.775119    3.957732   -1.086563
  H      2.924523    2.916484   -1.965647
  H      1.190276    2.499410   -1.947603
  H     -0.050339    1.499841    3.587479
  H     -1.214450    2.615268    4.315644
  H      1.777850    3.166945    3.939454
  H      1.297979    1.382182    5.634574
  H      1.913467    2.860422    6.412790
  H      0.179632    2.478380    6.475912
  H      0.533536    5.291664    3.898558
  H     -0.381070    4.824965    5.359968
  H      1.367041    5.133723    5.455793
  H     -1.474294    2.808946   -1.544840
  H     -2.511845    4.185702   -1.698381
  H     -1.589928    3.705221   -3.921546
  H     -3.322164    3.360810   -3.957162
  H     -2.189667    1.597057   -5.160716
  H     -2.865093    0.918291   -3.690372
  H     -0.538443    1.056371   -2.620508
  H      0.081914    1.675829   -4.149353
  H     -0.681163   -0.432842   -5.296658
  H     -1.315188   -1.036636   -3.771206
  H      0.980410   -1.030744   -2.781985
  H      1.638976   -0.364596   -4.280152
  H      0.835081   -2.403778   -5.533141
  H      0.228384   -3.084880   -4.025615
  H      2.551558   -3.127183   -3.081490
  H      3.168310   -2.374916   -4.555220
  H      3.540532   -4.859091   -4.566599
  H      1.796052   -5.135000   -4.405372
  H      2.440543   -4.397817   -5.887584
  H     -4.901900    0.375627   -0.878590
  H     -0.596789   -2.114654    3.658768
  H     -0.343161   -3.845609    3.337603
  H     -2.735354   -3.428786    3.996368
  H     -2.930998   -2.278447    2.662358
  H     -2.657689   -4.000977    2.320390
  H      3.447363   -1.605784    3.447340
  H      2.436755   -3.642839    4.446512
  H      3.937431   -4.545702    4.194902
  H      3.906708   -3.179709    5.337564
  H      5.794283   -1.675297    2.482826
  H      5.787056   -1.958694    4.238077
  H      5.982434   -3.323844    3.115891

----------------------------
CARTESIAN COORDINATES (A.U.)
----------------------------
  NO LB      ZA    FRAG     MASS         X           Y           Z
   0 O     8.0000    0    15.999    7.148497   -6.384488   -1.761294
   1 C     6.0000    0    12.011    7.217973   -4.250284   -0.849457
   2 C     6.0000    0    12.011    7.469801   -1.947560   -2.597339
   3 C     6.0000    0    12.011   10.159639   -1.682780   -3.675093
   4 C     6.0000    0    12.011   11.418812    0.220020   -1.883644
   5 C     6.0000    0    12.011    9.301090    2.121980   -1.355622
   6 N     7.0000    0    14.007    7.012891    0.525699   -1.392021
   7 C     6.0000    0    12.011    4.619628    1.220581   -0.777418
   8 O     8.0000    0    15.999    2.851727   -0.325283   -0.837504
   9 N     7.0000    0    14.007    7.121016   -3.781770    1.676339
  10 C     6.0000    0    12.011    6.573870   -5.758538    3.512451
  11 C     6.0000    0    12.011    3.757529   -6.536080    3.516183
  12 N     7.0000    0    14.007    2.123699   -4.622001    2.980656
  13 C     6.0000    0    12.011   -0.617310   -4.932173    3.004756
  14 C     6.0000    0    12.011   -1.694757   -2.398681    2.148436
  15 N     7.0000    0    14.007   -3.177025   -2.362544    0.084202
  16 C     6.0000    0    12.011   -4.103813    0.026406   -0.910671
  17 C     6.0000    0    12.011   -6.387441    1.083437    0.573926
  18 C     6.0000    0    12.011   -6.645851    3.996820    0.256652
  19 C     6.0000    0    12.011   -4.800718    5.723734    1.678412
  20 N     7.0000    0    14.007   -3.063606    4.599080    3.198606
  21 C     6.0000    0    12.011   -1.073522    6.033174    4.450901
  22 C     6.0000    0    12.011    1.348550    6.190788    2.841276
  23 N     7.0000    0    14.007    1.907633    4.086723    1.467240
  24 C     6.0000    0    12.011    4.145610    3.982142   -0.107348
  25 C     6.0000    0    12.011    3.801790    5.520260   -2.558671
  26 O     8.0000    0    15.999    2.707941    8.082573    2.846620
  27 C     6.0000    0    12.011   -0.526313    4.853508    7.054791
  28 C     6.0000    0    12.011    1.610925    6.094314    8.576041
  29 C     6.0000    0    12.011    2.033438    4.612731   11.029391
  30 C     6.0000    0    12.011    1.086522    8.890151    9.118090
  31 O     8.0000    0    15.999   -4.986419    8.034176    1.425866
  32 C     6.0000    0    12.011   -6.722024    4.528645   -2.594343
  33 C     6.0000    0    12.011   -4.561754    5.925643   -3.823930
  34 C     6.0000    0    12.011   -4.464397    5.697280   -6.700678
  35 C     6.0000    0    12.011   -3.933919    3.019228   -7.678958
  36 C     6.0000    0    12.011   -1.327408    1.952827   -7.013003
  37 C     6.0000    0    12.011   -0.982471   -0.761790   -7.945658
  38 C     6.0000    0    12.011    1.591878   -1.921149   -7.325484
  39 C     6.0000    0    12.011    1.914195   -4.589514   -8.395961
  40 C     6.0000    0    12.011    4.504951   -5.763321   -7.875695
  41 C     6.0000    0    12.011    4.822828   -8.381725   -9.057137
  42 O     8.0000    0    15.999   -8.499048    3.661648   -3.814725
  43 O     8.0000    0    15.999   -8.649839   -0.176040   -0.142185
  44 O     8.0000    0    15.999   -1.176448   -0.435579    3.339769
  45 C     6.0000    0    12.011   -1.640898   -5.568081    5.653985
  46 C     6.0000    0    12.011   -4.496663   -5.995452    5.649543
  47 O     8.0000    0    15.999    3.105039   -8.684414    4.110587
  48 C     6.0000    0    12.011    7.451276   -4.870789    6.157567
  49 C     6.0000    0    12.011    6.662781   -6.692681    8.262016
  50 C     6.0000    0    12.011   10.322709   -4.471393    6.180215
  51 H     1.0000    0     1.008    6.059182   -2.255723   -4.085192
  52 H     1.0000    0     1.008   10.062197   -0.909890   -5.601554
  53 H     1.0000    0     1.008   11.117680   -3.516102   -3.768931
  54 H     1.0000    0     1.008   11.986329   -0.721142   -0.118710
  55 H     1.0000    0     1.008   13.097449    1.125894   -2.694367
  56 H     1.0000    0     1.008    9.503095    3.090667    0.467876
  57 H     1.0000    0     1.008    9.207346    3.570100   -2.849528
  58 H     1.0000    0     1.008    7.085285   -1.949186    2.251314
  59 H     1.0000    0     1.008    7.614535   -7.466749    2.950589
  60 H     1.0000    0     1.008    2.798824   -3.047986    2.091524
  61 H     1.0000    0     1.008   -1.163999   -6.453023    1.682000
  62 H     1.0000    0     1.008   -3.585728   -4.005492   -0.812629
  63 H     1.0000    0     1.008   -4.657242   -0.265161   -2.886747
  64 H     1.0000    0     1.008   -2.511385    1.360735   -0.883140
  65 H     1.0000    0     1.008   -6.122475    0.666987    2.594796
  66 H     1.0000    0     1.008   -8.536627    4.482110    0.979410
  67 H     1.0000    0     1.008   -2.884100    2.668287    3.256918
  68 H     1.0000    0     1.008   -1.743852    7.985345    4.635492
  69 H     1.0000    0     1.008    0.865691    2.464250    1.625398
  70 H     1.0000    0     1.008    5.741095    4.788137    0.959132
  71 H     1.0000    0     1.008    3.354489    7.479030   -2.053306
  72 H     1.0000    0     1.008    5.526548    5.511355   -3.714535
  73 H     1.0000    0     1.008    2.249295    4.723201   -3.680437
  74 H     1.0000    0     1.008   -0.095126    2.834288    6.779353
  75 H     1.0000    0     1.008   -2.294979    4.942139    8.155385
  76 H     1.0000    0     1.008    3.359650    5.984658    7.444489
  77 H     1.0000    0     1.008    2.452824    2.611945   10.647801
  78 H     1.0000    0     1.008    3.615928    5.405413   12.118417
  79 H     1.0000    0     1.008    0.339455    4.683459   12.237700
  80 H     1.0000    0     1.008    1.008237    9.999795    7.367207
  81 H     1.0000    0     1.008   -0.720118    9.117863   10.128872
  82 H     1.0000    0     1.008    2.583332    9.701331   10.309955
  83 H     1.0000    0     1.008   -2.786012    5.308138   -2.919324
  84 H     1.0000    0     1.008   -4.746699    7.909831   -3.209474
  85 H     1.0000    0     1.008   -3.004528    7.001852   -7.410648
  86 H     1.0000    0     1.008   -6.277981    6.351010   -7.477953
  87 H     1.0000    0     1.008   -4.137871    3.018000   -9.752339
  88 H     1.0000    0     1.008   -5.414242    1.735318   -6.973792
  89 H     1.0000    0     1.008   -1.017509    1.996252   -4.952042
  90 H     1.0000    0     1.008    0.154796    3.166857   -7.841141
  91 H     1.0000    0     1.008   -1.287212   -0.817954  -10.009233
  92 H     1.0000    0     1.008   -2.485345   -1.958959   -7.126546
  93 H     1.0000    0     1.008    1.852707   -1.947824   -5.257190
  94 H     1.0000    0     1.008    3.097217   -0.688986   -8.088316
  95 H     1.0000    0     1.008    1.578075   -4.542483  -10.456120
  96 H     1.0000    0     1.008    0.431584   -5.829578   -7.607310
  97 H     1.0000    0     1.008    4.821745   -5.909519   -5.823173
  98 H     1.0000    0     1.008    5.987238   -4.487941   -8.608119
  99 H     1.0000    0     1.008    6.690636   -9.182351   -8.629621
 100 H     1.0000    0     1.008    3.394046   -9.703744   -8.324946
 101 H     1.0000    0     1.008    4.611957   -8.310670  -11.125921
 102 H     1.0000    0     1.008   -9.263248    0.709833   -1.660295
 103 H     1.0000    0     1.008   -1.127767   -3.996117    6.914069
 104 H     1.0000    0     1.008   -0.648481   -7.267148    6.307156
 105 H     1.0000    0     1.008   -5.169070   -6.479467    7.552042
 106 H     1.0000    0     1.008   -5.538783   -4.305641    5.031127
 107 H     1.0000    0     1.008   -5.022304   -7.560752    4.384902
 108 H     1.0000    0     1.008    6.514573   -3.034492    6.514528
 109 H     1.0000    0     1.008    4.604800   -6.883969    8.402689
 110 H     1.0000    0     1.008    7.440666   -8.590131    7.927216
 111 H     1.0000    0     1.008    7.382609   -6.008779   10.086534
 112 H     1.0000    0     1.008   10.949608   -3.165852    4.691861
 113 H     1.0000    0     1.008   10.935951   -3.701395    8.008805
 114 H     1.0000    0     1.008   11.305162   -6.281156    5.888181

--------------------------------
INTERNAL COORDINATES (ANGSTROEM)
--------------------------------
 O      0   0   0     0.000000000000     0.00000000     0.00000000
 C      1   0   0     1.228682900689     0.00000000     0.00000000
 C      2   1   0     1.535621170134   119.69867725     0.00000000
 C      3   2   1     1.539796040376   112.05653933   285.87387217
 C      4   3   2     1.535111357872   103.42680140   263.69495634
 C      5   4   3     1.531966431489   103.06448507   321.01326287
 N      3   2   1     1.475879950646   115.41454608   167.95354975
 C      7   3   2     1.358276161646   119.75585791   286.54603695
 O      8   7   3     1.243147481834   121.15877633    11.45838325
 N      2   1   3     1.360361350115   123.52122556   181.02171557
 C     10   2   1     1.456755514332   122.13760159   351.30122925
 C     11  10   2     1.546099633659   112.55300955   285.95141121
 N     12  11  10     1.361527831819   114.44786863   327.05769691
 C     13  12  11     1.459792318460   123.05854554   182.94391537
 C     14  13  12     1.525715784696   105.65955660   183.39769397
 N     15  14  13     1.344931401751   118.14255038   121.48894123
 C     16  15  14     1.454591672153   120.19572301   184.33420736
 C     17  16  15     1.546094551225   113.20669095   280.87681399
 C     18  17  16     1.556828062417   111.84672884   156.55571966
 C     19  18  17     1.534444874430   118.75043359   285.08192202
 N     20  19  18     1.358800452314   117.38154404   358.46100234
 C     21  20  19     1.457429731578   122.00280709   174.16262268
 C     22  21  20     1.541184361439   112.19764000   269.16199361
 N     23  22  21     1.362324042817   115.55345918   323.82653097
 C     24  23  22     1.449096364663   121.03694925   180.55928544
 C     25  24  23     1.542168166503   111.53599669   284.33290773
 O     23  22  21     1.232746926613   121.86868558   145.25062001
 C     22  21  20     1.540195697868   109.36553842   145.41108800
 C     28  22  21     1.535670784380   115.73077204   177.69953276
 C     29  28  22     1.533019286970   109.43121272   183.54128139
 C     29  28  22     1.532378650064   112.18314656    59.62348926
 O     20  19  18     1.233835244750   119.10149472   179.64041205
 C     19  18  17     1.535235601194   106.84695239    54.14431575
 C     33  19  18     1.508874958694   119.58339318   247.23558959
 C     34  33  19     1.527967243776   114.60924911   163.50178400
 C     35  34  33     1.534650475333   114.53708517   294.37365551
 C     36  35  34     1.531381240046   115.30370698   294.97625030
 C     37  36  35     1.529859807303   112.28674951   177.39266720
 C     38  37  36     1.529679050392   114.43380008   180.08542808
 C     39  38  37     1.530958072338   112.93890599   182.73263791
 C     40  39  38     1.530092542674   114.05854914   178.15757228
 C     41  40  39     1.529394408985   113.12783972   182.42865442
 O     33  19  18     1.229563175022   117.89291824    63.20911486
 O     18  17  16     1.421660194985   110.68058683   281.14418683
 O     15  14  13     1.245725275784   120.01235855   302.10451901
 C     14  13  12     1.540126405819   112.45597333    64.20615156
 C     46  14  13     1.528036053404   112.25701762   182.30150886
 O     12  11  10     1.229058537661   121.15057605   151.16018421
 C     11  10   2     1.547748851859   109.00318074   161.52354258
 C     49  11  10     1.530934338289   112.64053964   173.03735934
 C     49  11  10     1.534171981399   110.24258287   297.03582591
 H      3   2   1     1.097135799678   104.78880806    47.69752152
 H      4   3   2     1.099632891584   109.50409515   145.97872080
 H      4   3   2     1.095757301972   111.34084028    26.61745366
 H      5   4   3     1.100237396125   110.22924547    78.39656842
 H      5   4   3     1.096776530286   113.37058593   199.58012232
 H      6   5   4     1.097874499125   113.31801824   153.68020519
 H      6   5   4     1.102111683035   111.03297158   275.52594311
 H     10   2   1     1.016549108439   117.94637499   183.55257006
 H     11  10   2     1.099448680698   108.08715113    41.84947341
 H     13  12  11     1.021171444757   118.72071081    19.23499304
 H     14  13  12     1.105148913083   109.66059841   302.77242301
 H     16  15  14     1.013843623594   119.49910991     1.91732138
 H     17  16  15     1.096836240040   108.22968035   159.85424861
 H     17  16  15     1.099494481323   107.15323457    43.71210281
 H     18  17  16     1.100835180296   108.76198911    36.97233894
 H     19  18  17     1.101517368348   105.85536055   166.74415914
 H     21  20  19     1.026601945809   121.08466175     5.79740261
 H     22  21  20     1.096609091840   107.29485712    24.58988464
 H     24  23  22     1.023801054309   121.65549285   354.82390525
 H     25  24  23     1.101474729905   108.48394116    43.75812907
 H     26  25  24     1.096335733097   108.62011187    57.77742541
 H     26  25  24     1.098714257333   111.59222358   177.48668523
 H     26  25  24     1.097823188712   109.89710044   298.02242056
 H     28  22  21     1.102294996285   108.27091356    54.57597278
 H     28  22  21     1.103348945294   107.18928213   299.86414189
 H     29  28  22     1.103746911204   108.09507462   301.01826220
 H     30  29  28     1.100464744629   111.47304040    56.77796152
 H     30  29  28     1.099695600985   111.08646009   177.32351436
 H     30  29  28     1.101730078759   110.82113820   296.89389472
 H     31  29  28     1.097711971160   111.42648818   296.11788995
 H     31  29  28     1.102097178146   110.70168167    57.04662562
 H     31  29  28     1.099746161974   110.71845494   176.39518623
 H     34  33  19     1.104051980604   108.23113497    37.28989687
 H     34  33  19     1.103529481732   105.77831269   287.16984851
 H     35  34  33     1.102059385203   108.28464685   171.76106223
 H     35  34  33     1.099951338754   108.55796886    56.29960852
 H     36  35  34     1.102481943106   108.56300530   173.06374365
 H     36  35  34     1.102041168022   108.96952333    58.65185187
 H     37  36  35     1.103113300280   110.71620693    55.68145124
 H     37  36  35     1.104524785002   109.50957054   299.23016402
 H     38  37  36     1.104240007127   109.07925108    57.24291948
 H     38  37  36     1.105307763553   109.01555611   302.51127704
 H     39  38  37     1.103252601435   109.23163316    60.03579376
 H     39  38  37     1.105738069493   109.07190296   304.31910231
 H     40  39  38     1.104884099868   109.04920939    55.63998866
 H     40  39  38     1.104684366751   109.20658465   300.50234032
 H     41  40  39     1.101728457737   110.01287182    60.49362628
 H     41  40  39     1.104981471931   108.96445149   304.32493616
 H     42  41  40     1.098916481938   111.34966251   180.72808488
 H     42  41  40     1.100542672217   110.88082395   300.35011809
 H     42  41  40     1.101068199723   111.36785221    60.11781170
 H     44  18  17     0.985137042755   105.76896750   275.13848195
 H     46  14  13     1.100152439214   107.43950867    60.10535227
 H     46  14  13     1.097114960571   107.30656381   304.07550503
 H     47  46  14     1.098078103085   110.70666855   178.94428836
 H     47  46  14     1.100372385068   112.07542684   298.89041459
 H     47  46  14     1.100609668273   111.23964169    59.53466358
 H     49  11  10     1.107083901368   106.64286003    54.91130778
 H     50  49  11     1.096261648084   112.22818217   298.69775346
 H     50  49  11     1.099557862087   110.84435702    58.74226473
 H     50  49  11     1.099204239438   109.70286578   178.17968917
 H     51  49  11     1.098936195314   112.33332109    54.96145204
 H     51  49  11     1.098944927873   110.51354499   175.63762995
 H     51  49  11     1.100604401139   110.29665522   294.82136991

---------------------------
INTERNAL COORDINATES (A.U.)
---------------------------
 O      0   0   0     0.000000000000     0.00000000     0.00000000
 C      1   0   0     2.321874187735     0.00000000     0.00000000
 C      2   1   0     2.901903457006   119.69867725     0.00000000
 C      3   2   1     2.909792818407   112.05653933   285.87387217
 C      4   3   2     2.900940051449   103.42680140   263.69495634
 C      5   4   3     2.894997001876   103.06448507   321.01326287
 N      3   2   1     2.789008913267   115.41454608   167.95354975
 C      7   3   2     2.566769959745   119.75585791   286.54603695
 O      8   7   3     2.349208284739   121.15877633    11.45838325
 N      2   1   3     2.570710394889   123.52122556   181.02171557
 C     10   2   1     2.752868966166   122.13760159   351.30122925
 C     11  10   2     2.921704883371   112.55300955   285.95141121
 N     12  11  10     2.572914725849   114.44786863   327.05769691
 C     13  12  11     2.758607694291   123.05854554   182.94391537
 C     14  13  12     2.883184991277   105.65955660   183.39769397
 N     15  14  13     2.541552018221   118.14255038   121.48894123
 C     16  15  14     2.748779897052   120.19572301   184.33420736
 C     17  16  15     2.921695278963   113.20669095   280.87681399
 C     18  17  16     2.941978675570   111.84672884   156.55571966
 C     19  18  17     2.899680580273   118.75043359   285.08192202
 N     20  19  18     2.567760725523   117.38154404   358.46100234
 C     21  20  19     2.754143052117   122.00280709   174.16262268
 C     22  21  20     2.912416365003   112.19764000   269.16199361
 N     23  22  21     2.574419346580   115.55345918   323.82653097
 C     24  23  22     2.738395270874   121.03694925   180.55928544
 C     25  24  23     2.914275487142   111.53599669   284.33290773
 O     23  22  21     2.329554083733   121.86868558   145.25062001
 C     22  21  20     2.910548061614   109.36553842   145.41108800
 C     28  22  21     2.901997214343   115.73077204   177.69953276
 C     29  28  22     2.896986610393   109.43121272   183.54128139
 C     29  28  22     2.895775982089   112.18314656    59.62348926
 O     20  19  18     2.331610706956   119.10149472   179.64041205
 C     19  18  17     2.901174837302   106.84695239    54.14431575
 C     33  19  18     2.851360442263   119.58339318   247.23558959
 C     34  33  19     2.887439632340   114.60924911   163.50178400
 C     35  34  33     2.900069109672   114.53708517   294.37365551
 C     36  35  34     2.893891150312   115.30370698   294.97625030
 C     37  36  35     2.891016059095   112.28674951   177.39266720
 C     38  37  36     2.890674478038   114.43380008   180.08542808
 C     39  38  37     2.893091479235   112.93890599   182.73263791
 C     40  39  38     2.891455865209   114.05854914   178.15757228
 C     41  40  39     2.890136583732   113.12783972   182.42865442
 O     33  19  18     2.323537665146   117.89291824    63.20911486
 O     18  17  16     2.686548424018   110.68058683   281.14418683
 O     15  14  13     2.354079609335   120.01235855   302.10451901
 C     14  13  12     2.910417118619   112.45597333    64.20615156
 C     46  14  13     2.887569663691   112.25701762   182.30150886
 O     12  11  10     2.322584038737   121.15057605   151.16018421
 C     11  10   2     2.924821454105   109.00318074   161.52354258
 C     49  11  10     2.893046628382   112.64053964   173.03735934
 C     49  11  10     2.899164887179   110.24258287   297.03582591
 H      3   2   1     2.073286193112   104.78880806    47.69752152
 H      4   3   2     2.078005012945   109.50409515   145.97872080
 H      4   3   2     2.070681209971   111.34084028    26.61745366
 H      5   4   3     2.079147360974   110.22924547    78.39656842
 H      5   4   3     2.072607272353   113.37058593   199.58012232
 H      6   5   4     2.074682132762   113.31801824   153.68020519
[...]
freq.      82.20  E(vib)   ...       0.48 
freq.      87.10  E(vib)   ...       0.48 
freq.      91.95  E(vib)   ...       0.47 
freq.      98.09  E(vib)   ...       0.46 
freq.      99.71  E(vib)   ...       0.46 
freq.     112.89  E(vib)   ...       0.45 
freq.     114.21  E(vib)   ...       0.44 
freq.     122.01  E(vib)   ...       0.44 
freq.     123.75  E(vib)   ...       0.43 
freq.     127.37  E(vib)   ...       0.43 
freq.     135.82  E(vib)   ...       0.42 
freq.     145.42  E(vib)   ...       0.41 
freq.     150.70  E(vib)   ...       0.40 
freq.     155.05  E(vib)   ...       0.40 
freq.     159.09  E(vib)   ...       0.39 
freq.     161.14  E(vib)   ...       0.39 
freq.     170.28  E(vib)   ...       0.38 
freq.     176.63  E(vib)   ...       0.38 
freq.     180.25  E(vib)   ...       0.37 
freq.     186.38  E(vib)   ...       0.37 
freq.     189.11  E(vib)   ...       0.36 
freq.     203.24  E(vib)   ...       0.35 
freq.     204.18  E(vib)   ...       0.35 
freq.     213.04  E(vib)   ...       0.34 
freq.     217.11  E(vib)   ...       0.34 
freq.     221.96  E(vib)   ...       0.33 
freq.     225.11  E(vib)   ...       0.33 
freq.     227.67  E(vib)   ...       0.33 
freq.     229.58  E(vib)   ...       0.32 
freq.     232.63  E(vib)   ...       0.32 
freq.     236.85  E(vib)   ...       0.32 
freq.     239.79  E(vib)   ...       0.31 
freq.     242.26  E(vib)   ...       0.31 
freq.     246.97  E(vib)   ...       0.31 
freq.     253.15  E(vib)   ...       0.30 
freq.     262.21  E(vib)   ...       0.29 
freq.     267.89  E(vib)   ...       0.29 
freq.     275.37  E(vib)   ...       0.28 
freq.     277.81  E(vib)   ...       0.28 
freq.     291.57  E(vib)   ...       0.27 
freq.     297.80  E(vib)   ...       0.27 
freq.     303.32  E(vib)   ...       0.26 
freq.     307.38  E(vib)   ...       0.26 
freq.     317.83  E(vib)   ...       0.25 
freq.     325.41  E(vib)   ...       0.24 
freq.     338.73  E(vib)   ...       0.23 
freq.     347.18  E(vib)   ...       0.23 
freq.     352.09  E(vib)   ...       0.23 
freq.     366.30  E(vib)   ...       0.22 
freq.     367.16  E(vib)   ...       0.22 
freq.     386.49  E(vib)   ...       0.20 
freq.     388.17  E(vib)   ...       0.20 
freq.     390.80  E(vib)   ...       0.20 
freq.     408.29  E(vib)   ...       0.19 
freq.     416.85  E(vib)   ...       0.18 
freq.     418.76  E(vib)   ...       0.18 
freq.     419.22  E(vib)   ...       0.18 
freq.     441.81  E(vib)   ...       0.17 
freq.     454.93  E(vib)   ...       0.16 
freq.     463.97  E(vib)   ...       0.16 
freq.     469.92  E(vib)   ...       0.16 
freq.     474.64  E(vib)   ...       0.15 
freq.     478.85  E(vib)   ...       0.15 
freq.     484.85  E(vib)   ...       0.15 
freq.     495.78  E(vib)   ...       0.14 
freq.     510.32  E(vib)   ...       0.14 
freq.     520.63  E(vib)   ...       0.13 
freq.     527.07  E(vib)   ...       0.13 
freq.     537.84  E(vib)   ...       0.12 
freq.     550.34  E(vib)   ...       0.12 
freq.     561.50  E(vib)   ...       0.11 
freq.     584.45  E(vib)   ...       0.11 
freq.     588.36  E(vib)   ...       0.10 
freq.     599.41  E(vib)   ...       0.10 
freq.     619.35  E(vib)   ...       0.09 
freq.     627.41  E(vib)   ...       0.09 
freq.     649.07  E(vib)   ...       0.08 
freq.     657.77  E(vib)   ...       0.08 
freq.     678.99  E(vib)   ...       0.08 
freq.     687.96  E(vib)   ...       0.07 
freq.     695.89  E(vib)   ...       0.07 
freq.     702.39  E(vib)   ...       0.07 
freq.     718.39  E(vib)   ...       0.07 
freq.     721.54  E(vib)   ...       0.07 
freq.     726.09  E(vib)   ...       0.06 
freq.     740.49  E(vib)   ...       0.06 
freq.     742.02  E(vib)   ...       0.06 
freq.     747.79  E(vib)   ...       0.06 
freq.     750.49  E(vib)   ...       0.06 
freq.     755.56  E(vib)   ...       0.06 
freq.     769.72  E(vib)   ...       0.05 
freq.     775.83  E(vib)   ...       0.05 
freq.     783.66  E(vib)   ...       0.05 
freq.     802.66  E(vib)   ...       0.05 
freq.     812.89  E(vib)   ...       0.05 
freq.     816.93  E(vib)   ...       0.05 
freq.     826.19  E(vib)   ...       0.04 
freq.     836.27  E(vib)   ...       0.04 
freq.     850.68  E(vib)   ...       0.04 
freq.     859.90  E(vib)   ...       0.04 
freq.     866.75  E(vib)   ...       0.04 
freq.     869.80  E(vib)   ...       0.04 
freq.     871.09  E(vib)   ...       0.04 
freq.     874.19  E(vib)   ...       0.04 
freq.     879.45  E(vib)   ...       0.04 
freq.     881.48  E(vib)   ...       0.04 
freq.     890.80  E(vib)   ...       0.04 
freq.     903.34  E(vib)   ...       0.03 
freq.     905.09  E(vib)   ...       0.03 
freq.     908.46  E(vib)   ...       0.03 
freq.     910.06  E(vib)   ...       0.03 
freq.     915.43  E(vib)   ...       0.03 
freq.     920.48  E(vib)   ...       0.03 
freq.     928.46  E(vib)   ...       0.03 
freq.     936.46  E(vib)   ...       0.03 
freq.     940.39  E(vib)   ...       0.03 
freq.     942.40  E(vib)   ...       0.03 
freq.     949.07  E(vib)   ...       0.03 
freq.     952.11  E(vib)   ...       0.03 
freq.     960.70  E(vib)   ...       0.03 
freq.     975.14  E(vib)   ...       0.03 
freq.     977.68  E(vib)   ...       0.03 
freq.     982.74  E(vib)   ...       0.02 
freq.     990.36  E(vib)   ...       0.02 
freq.     995.21  E(vib)   ...       0.02 
freq.    1008.88  E(vib)   ...       0.02 
freq.    1017.33  E(vib)   ...       0.02 
freq.    1025.55  E(vib)   ...       0.02 
freq.    1028.46  E(vib)   ...       0.02 
freq.    1033.02  E(vib)   ...       0.02 
freq.    1034.15  E(vib)   ...       0.02 
freq.    1041.42  E(vib)   ...       0.02 
freq.    1044.74  E(vib)   ...       0.02 
freq.    1048.69  E(vib)   ...       0.02 
freq.    1053.70  E(vib)   ...       0.02 
freq.    1061.01  E(vib)   ...       0.02 
freq.    1061.41  E(vib)   ...       0.02 
freq.    1065.54  E(vib)   ...       0.02 
freq.    1065.87  E(vib)   ...       0.02 
freq.    1075.12  E(vib)   ...       0.02 
freq.    1079.99  E(vib)   ...       0.02 
freq.    1084.09  E(vib)   ...       0.02 
freq.    1088.59  E(vib)   ...       0.02 
freq.    1093.70  E(vib)   ...       0.02 
freq.    1097.87  E(vib)   ...       0.02 
freq.    1105.21  E(vib)   ...       0.02 
freq.    1107.98  E(vib)   ...       0.02 
freq.    1114.28  E(vib)   ...       0.01 
freq.    1122.42  E(vib)   ...       0.01 
freq.    1129.66  E(vib)   ...       0.01 
freq.    1132.86  E(vib)   ...       0.01 
freq.    1141.50  E(vib)   ...       0.01 
freq.    1148.70  E(vib)   ...       0.01 
freq.    1150.54  E(vib)   ...       0.01 
freq.    1154.66  E(vib)   ...       0.01 
freq.    1156.83  E(vib)   ...       0.01 
freq.    1160.20  E(vib)   ...       0.01 
freq.    1161.01  E(vib)   ...       0.01 
freq.    1176.04  E(vib)   ...       0.01 
freq.    1184.92  E(vib)   ...       0.01 
freq.    1193.05  E(vib)   ...       0.01 
freq.    1195.57  E(vib)   ...       0.01 
freq.    1197.64  E(vib)   ...       0.01 
freq.    1208.81  E(vib)   ...       0.01 
freq.    1218.83  E(vib)   ...       0.01 
freq.    1221.83  E(vib)   ...       0.01 
freq.    1222.57  E(vib)   ...       0.01 
freq.    1225.42  E(vib)   ...       0.01 
freq.    1234.14  E(vib)   ...       0.01 
freq.    1242.60  E(vib)   ...       0.01 
freq.    1243.67  E(vib)   ...       0.01 
freq.    1244.42  E(vib)   ...       0.01 
freq.    1248.49  E(vib)   ...       0.01 
freq.    1252.50  E(vib)   ...       0.01 
freq.    1256.20  E(vib)   ...       0.01 
freq.    1259.61  E(vib)   ...       0.01 
freq.    1265.21  E(vib)   ...       0.01 
freq.    1270.62  E(vib)   ...       0.01 
freq.    1273.57  E(vib)   ...       0.01 
freq.    1276.89  E(vib)   ...       0.01 
freq.    1279.52  E(vib)   ...       0.01 
freq.    1283.22  E(vib)   ...       0.01 
freq.    1283.62  E(vib)   ...       0.01 
freq.    1292.03  E(vib)   ...       0.01 
freq.    1293.84  E(vib)   ...       0.01 
freq.    1294.62  E(vib)   ...       0.01 
freq.    1298.40  E(vib)   ...       0.01 
freq.    1304.19  E(vib)   ...       0.01 
freq.    1304.99  E(vib)   ...       0.01 
freq.    1305.73  E(vib)   ...       0.01 
freq.    1308.36  E(vib)   ...       0.01 
freq.    1311.95  E(vib)   ...       0.01 
freq.    1312.43  E(vib)   ...       0.01 
freq.    1313.57  E(vib)   ...       0.01 
freq.    1315.35  E(vib)   ...       0.01 
freq.    1320.39  E(vib)   ...       0.01 
freq.    1322.33  E(vib)   ...       0.01 
freq.    1331.39  E(vib)   ...       0.01 
freq.    1336.29  E(vib)   ...       0.01 
freq.    1338.25  E(vib)   ...       0.01 
freq.    1340.83  E(vib)   ...       0.01 
freq.    1342.85  E(vib)   ...       0.01 
freq.    1343.33  E(vib)   ...       0.01 
freq.    1347.21  E(vib)   ...       0.01 
freq.    1348.44  E(vib)   ...       0.01 
freq.    1349.56  E(vib)   ...       0.01 
freq.    1349.90  E(vib)   ...       0.01 
freq.    1353.91  E(vib)   ...       0.01 
freq.    1356.00  E(vib)   ...       0.01 
freq.    1363.20  E(vib)   ...       0.01 
freq.    1368.52  E(vib)   ...       0.01 
freq.    1370.77  E(vib)   ...       0.01 
freq.    1378.20  E(vib)   ...       0.01 
freq.    1382.12  E(vib)   ...       0.01 
freq.    1407.99  E(vib)   ...       0.00 
freq.    1416.87  E(vib)   ...       0.00 
freq.    1423.38  E(vib)   ...       0.00 
freq.    1428.97  E(vib)   ...       0.00 
freq.    1432.72  E(vib)   ...       0.00 
freq.    1434.44  E(vib)   ...       0.00 
freq.    1434.91  E(vib)   ...       0.00 
freq.    1435.69  E(vib)   ...       0.00 
freq.    1438.27  E(vib)   ...       0.00 
freq.    1439.35  E(vib)   ...       0.00 
freq.    1443.04  E(vib)   ...       0.00 
freq.    1443.18  E(vib)   ...       0.00 
freq.    1444.25  E(vib)   ...       0.00 
freq.    1445.33  E(vib)   ...       0.00 
freq.    1446.99  E(vib)   ...       0.00 
freq.    1448.02  E(vib)   ...       0.00 
freq.    1450.49  E(vib)   ...       0.00 
freq.    1451.39  E(vib)   ...       0.00 
freq.    1453.21  E(vib)   ...       0.00 
freq.    1453.31  E(vib)   ...       0.00 
freq.    1453.54  E(vib)   ...       0.00 
freq.    1455.07  E(vib)   ...       0.00 
freq.    1455.18  E(vib)   ...       0.00 
freq.    1455.46  E(vib)   ...       0.00 
freq.    1458.76  E(vib)   ...       0.00 
freq.    1463.03  E(vib)   ...       0.00 
freq.    1464.22  E(vib)   ...       0.00 
freq.    1466.19  E(vib)   ...       0.00 
freq.    1469.87  E(vib)   ...       0.00 
freq.    1472.35  E(vib)   ...       0.00 
freq.    1482.58  E(vib)   ...       0.00 
freq.    1499.52  E(vib)   ...       0.00 
freq.    1510.35  E(vib)   ...       0.00 
freq.    1534.33  E(vib)   ...       0.00 
freq.    1621.50  E(vib)   ...       0.00 
freq.    1635.79  E(vib)   ...       0.00 
freq.    1662.22  E(vib)   ...       0.00 
freq.    1669.14  E(vib)   ...       0.00 
freq.    1672.37  E(vib)   ...       0.00 
freq.    1684.52  E(vib)   ...       0.00 
freq.    1694.32  E(vib)   ...       0.00 
freq.    2908.79  E(vib)   ...       0.00 
freq.    2916.58  E(vib)   ...       0.00 
freq.    2920.72  E(vib)   ...       0.00 
freq.    2925.24  E(vib)   ...       0.00 
freq.    2929.92  E(vib)   ...       0.00 
freq.    2930.65  E(vib)   ...       0.00 
freq.    2935.69  E(vib)   ...       0.00 
freq.    2939.37  E(vib)   ...       0.00 
freq.    2946.00  E(vib)   ...       0.00 
freq.    2947.72  E(vib)   ...       0.00 
freq.    2950.75  E(vib)   ...       0.00 
freq.    2950.91  E(vib)   ...       0.00 
freq.    2953.29  E(vib)   ...       0.00 
freq.    2954.59  E(vib)   ...       0.00 
freq.    2955.57  E(vib)   ...       0.00 
freq.    2956.49  E(vib)   ...       0.00 
freq.    2957.61  E(vib)   ...       0.00 
freq.    2959.77  E(vib)   ...       0.00 
freq.    2961.88  E(vib)   ...       0.00 
freq.    2962.84  E(vib)   ...       0.00 
freq.    2969.57  E(vib)   ...       0.00 
freq.    2972.46  E(vib)   ...       0.00 
freq.    2973.22  E(vib)   ...       0.00 
freq.    2978.74  E(vib)   ...       0.00 
freq.    2978.95  E(vib)   ...       0.00 
freq.    2980.64  E(vib)   ...       0.00 
freq.    2981.85  E(vib)   ...       0.00 
freq.    2981.91  E(vib)   ...       0.00 
freq.    2987.47  E(vib)   ...       0.00 
freq.    2987.98  E(vib)   ...       0.00 
freq.    2989.35  E(vib)   ...       0.00 
freq.    2989.65  E(vib)   ...       0.00 
freq.    2989.93  E(vib)   ...       0.00 
freq.    2992.19  E(vib)   ...       0.00 
freq.    2996.36  E(vib)   ...       0.00 
freq.    3009.92  E(vib)   ...       0.00 
freq.    3010.12  E(vib)   ...       0.00 
freq.    3014.10  E(vib)   ...       0.00 
freq.    3016.98  E(vib)   ...       0.00 
freq.    3019.47  E(vib)   ...       0.00 
freq.    3020.20  E(vib)   ...       0.00 
freq.    3021.33  E(vib)   ...       0.00 
freq.    3026.25  E(vib)   ...       0.00 
freq.    3029.25  E(vib)   ...       0.00 
freq.    3031.03  E(vib)   ...       0.00 
freq.    3032.43  E(vib)   ...       0.00 
freq.    3035.47  E(vib)   ...       0.00 
freq.    3038.19  E(vib)   ...       0.00 
freq.    3040.76  E(vib)   ...       0.00 
freq.    3041.61  E(vib)   ...       0.00 
freq.    3047.66  E(vib)   ...       0.00 
freq.    3048.06  E(vib)   ...       0.00 
freq.    3050.31  E(vib)   ...       0.00 
freq.    3050.46  E(vib)   ...       0.00 
freq.    3051.37  E(vib)   ...       0.00 
freq.    3060.79  E(vib)   ...       0.00 
freq.    3061.57  E(vib)   ...       0.00 
freq.    3072.23  E(vib)   ...       0.00 
freq.    3303.86  E(vib)   ...       0.00 
freq.    3380.57  E(vib)   ...       0.00 
freq.    3418.24  E(vib)   ...       0.00 
freq.    3468.29  E(vib)   ...       0.00 
freq.    3492.38  E(vib)   ...       0.00 
freq.    3541.84  E(vib)   ...       0.00 

------------
INNER ENERGY
------------

The inner energy is: U= E(el) + E(ZPE) + E(vib) + E(rot) + E(trans)
    E(el)   - is the total energy from the electronic structure calculation
              = E(kin-el) + E(nuc-el) + E(el-el) + E(nuc-nuc)
    E(ZPE)  - the the zero temperature vibrational energy from the frequency calculation
    E(vib)  - the the finite temperature correction to E(ZPE) due to population
              of excited vibrational states
    E(rot)  - is the rotational thermal energy
    E(trans)- is the translational thermal energy

Summary of contributions to the inner energy U:
Electronic energy                ...  -2380.08620109 Eh
Zero point energy                ...      0.97729321 Eh     613.26 kcal/mol
Thermal vibrational correction   ...      0.05472996 Eh      34.34 kcal/mol
Thermal rotational correction    ...      0.00141627 Eh       0.89 kcal/mol
Thermal translational correction ...      0.00141627 Eh       0.89 kcal/mol
-----------------------------------------------------------------------
Total thermal energy                  -2379.05134538 Eh


Summary of corrections to the electronic energy:
(perhaps to be used in another calculation)
Total thermal correction                  0.05756250 Eh      36.12 kcal/mol
Non-thermal (ZPE) correction              0.97729321 Eh     613.26 kcal/mol
-----------------------------------------------------------------------
Total correction                          1.03485570 Eh     649.38 kcal/mol


--------
ENTHALPY
--------

The enthalpy is H = U + kB*T
                kB is Boltzmann's constant
Total free energy                 ...  -2379.05134538 Eh 
Thermal Enthalpy correction       ...      0.00094421 Eh       0.59 kcal/mol
-----------------------------------------------------------------------
Total Enthalpy                    ...  -2379.05040117 Eh


Note: Only C1 symmetry has been detected, increase convergence thresholds 
      if your molecule has a higher symmetry. Symmetry factor of 1.0 is   
      used for the rotational entropy correction. 
 

Note: Rotational entropy computed according to Herzberg 
Infrared and Raman Spectra, Chapter V,1, Van Nostrand Reinhold, 1945 
Point Group:  C1, Symmetry Number:   1  
Rotational constants in cm-1:     0.002084     0.001651     0.001368 

Vibrational entropy computed according to the QRRHO of S. Grimme
Chem.Eur.J. 2012 18 9955


-------
ENTROPY
-------

The entropy contributions are T*S = T*(S(el)+S(vib)+S(rot)+S(trans))
     S(el)   - electronic entropy
     S(vib)  - vibrational entropy
     S(rot)  - rotational entropy
     S(trans)- translational entropy
The entropies will be listed as mutliplied by the temperature to get
units of energy

Electronic entropy                ...      0.00000000 Eh      0.00 kcal/mol
Vibrational entropy               ...      0.09938177 Eh     62.36 kcal/mol
Rotational entropy                ...      0.01856293 Eh     11.65 kcal/mol
Translational entropy             ...      0.02166895 Eh     13.60 kcal/mol
-----------------------------------------------------------------------
Final entropy term                ...      0.13961365 Eh     87.61 kcal/mol

In case the symmetry of your molecule has not been determined correctly
or in case you have a reason to use a different symmetry number we print 
out the resulting rotational entropy values for sn=1,12 :
 --------------------------------------------------------
|  sn= 1 | S(rot)=       0.01856293 Eh     11.65 kcal/mol|
|  sn= 2 | S(rot)=       0.01790847 Eh     11.24 kcal/mol|
|  sn= 3 | S(rot)=       0.01752564 Eh     11.00 kcal/mol|
|  sn= 4 | S(rot)=       0.01725402 Eh     10.83 kcal/mol|
|  sn= 5 | S(rot)=       0.01704333 Eh     10.69 kcal/mol|
|  sn= 6 | S(rot)=       0.01687119 Eh     10.59 kcal/mol|
|  sn= 7 | S(rot)=       0.01672564 Eh     10.50 kcal/mol|
|  sn= 8 | S(rot)=       0.01659956 Eh     10.42 kcal/mol|
|  sn= 9 | S(rot)=       0.01648835 Eh     10.35 kcal/mol|
|  sn=10 | S(rot)=       0.01638887 Eh     10.28 kcal/mol|
|  sn=11 | S(rot)=       0.01629888 Eh     10.23 kcal/mol|
|  sn=12 | S(rot)=       0.01621673 Eh     10.18 kcal/mol|
 --------------------------------------------------------


-------------------
GIBBS FREE ENERGY
-------------------

The Gibbs free energy is G = H - T*S

Total enthalpy                    ...  -2379.05040117 Eh 
Total entropy correction          ...     -0.13961365 Eh    -87.61 kcal/mol
-----------------------------------------------------------------------
Final Gibbs free energy         ...  -2379.19001482 Eh

For completeness - the Gibbs free energy minus the electronic energy
G-E(el)                           ...      0.89618627 Eh    562.36 kcal/mol

--------------------------------------------------------------------------
WARNING: No preset parameters were found for the device that Open MPI
detected:

  Local host:            eu-g1-049-2
  Device name:           mlx5_0
  Device vendor ID:      0x02c9
  Device vendor part ID: 4123

Default device parameters will be used, which may result in lower
performance.  You can edit any of the files specified by the
btl_openib_device_param_files MCA parameter to set values for your
device.

NOTE: You can turn off this warning by setting the MCA parameter
      btl_openib_warn_no_device_params_found to 0.
--------------------------------------------------------------------------
--------------------------------------------------------------------------
WARNING: There was an error initializing an OpenFabrics device.

  Local host:   eu-g1-049-2
  Local device: mlx5_0
--------------------------------------------------------------------------

Timings for individual modules:

Sum of individual times         ...    42056.820 sec (= 700.947 min)
GTO integral calculation        ...       60.745 sec (=   1.012 min)   0.1 %
SCF iterations                  ...     1757.054 sec (=  29.284 min)   4.2 %
SCF Gradient evaluation         ...      667.028 sec (=  11.117 min)   1.6 %
Geometry relaxation             ...       24.080 sec (=   0.401 min)   0.1 %
Analytical frequency calculation...    39547.914 sec (= 659.132 min)  94.0 %
                             ****ORCA TERMINATED NORMALLY****
TOTAL RUN TIME: 0 days 11 hours 41 minutes 28 seconds 591 msec
