
                                 *****************
                                 * O   R   C   A *
                                 *****************

           --- An Ab Initio, DFT and Semiempirical electronic structure package ---

                  #######################################################
                  #                        -***-                        #
                  #          Department of theory and spectroscopy      #
                  #               Directorship: Frank Neese             #
                  #        Max Planck Institute fuer Kohlenforschung    #
                  #                Kaiser Wilhelm Platz 1               #
                  #                 D-45470 Muelheim/Ruhr               #
                  #                      Germany                        #
                  #                                                     #
                  #                  All rights reserved                #
                  #                        -***-                        #
                  #######################################################


                         Program Version 4.2.0 -  RELEASE  -


 With contributions from (in alphabetic order):
   Daniel Aravena         : Magnetic Suceptibility
   Michael Atanasov       : Ab Initio Ligand Field Theory (pilot matlab implementation)
   Alexander A. Auer      : GIAO ZORA, VPT2
   Ute Becker             : Parallelization
   Giovanni Bistoni       : ED, misc. LED, open-shell LED, HFLED
   Martin Brehm           : Molecular dynamics
   Dmytro Bykov           : SCF Hessian
   Vijay G. Chilkuri      : MRCI spin determinant printing, contributions to CSF-ICE
   Dipayan Datta          : RHF DLPNO-CCSD density
   Achintya Kumar Dutta   : EOM-CC, STEOM-CC
   Dmitry Ganyushin       : Spin-Orbit,Spin-Spin,Magnetic field MRCI
   Miquel Garcia          : C-PCM Hessian, Gaussian charge scheme
   Yang Guo               : DLPNO-NEVPT2, CIM, IAO-localization
   Andreas Hansen         : Spin unrestricted coupled pair/coupled cluster methods
   Benjamin Helmich-Paris : CASSCF linear response (MC-RPA)
   Lee Huntington         : MR-EOM, pCC
   Robert Izsak           : Overlap fitted RIJCOSX, COSX-SCS-MP3, EOM
   Christian Kollmar      : KDIIS, OOCD, Brueckner-CCSD(T), CCSD density
   Simone Kossmann        : Meta GGA functionals, TD-DFT gradient, OOMP2, MP2 Hessian
   Martin Krupicka        : AUTO-CI
   Lucas Lang             : DCDCAS
   Dagmar Lenk            : GEPOL surface, SMD
   Dimitrios Liakos       : Extrapolation schemes; Compound Job, initial MDCI parallelization
   Dimitrios Manganas     : Further ROCIS development; embedding schemes
   Dimitrios Pantazis     : SARC Basis sets
   Taras Petrenko         : DFT Hessian,TD-DFT gradient, ASA, ECA, R-Raman, ABS, FL, XAS/XES, NRVS
   Peter Pinski           : DLPNO-MP2, DLPNO-MP2 Gradient
   Christoph Reimann      : Effective Core Potentials
   Marius Retegan         : Local ZFS, SOC
   Christoph Riplinger    : Optimizer, TS searches, QM/MM, DLPNO-CCSD(T), (RO)-DLPNO pert. Triples
   Tobias Risthaus        : Range-separated hybrids, TD-DFT gradient, RPA, STAB
   Michael Roemelt        : Original ROCIS implementation
   Masaaki Saitow         : Open-shell DLPNO-CCSD energy and density
   Barbara Sandhoefer     : DKH picture change effects
   Avijit Sen             : IP-ROCIS
   Kantharuban Sivalingam : CASSCF convergence, NEVPT2, FIC-MRCI
   Bernardo de Souza      : ESD, SOC TD-DFT
   Georgi Stoychev        : AutoAux, RI-MP2 NMR
   Willem Van den Heuvel  : Paramagnetic NMR
   Boris Wezisla          : Elementary symmetry handling
   Frank Wennmohs         : Technical directorship


 We gratefully acknowledge several colleagues who have allowed us to
 interface, adapt or use parts of their codes:
   Stefan Grimme, W. Hujo, H. Kruse,             : VdW corrections, initial TS optimization,
                  C. Bannwarth                     DFT functionals, gCP, sTDA/sTD-DF
   Ed Valeev, F. Pavosevic, A. Kumar             : LibInt (2-el integral package), F12 methods
   Garnet Chan, S. Sharma, J. Yang, R. Olivares  : DMRG
   Ulf Ekstrom                                   : XCFun DFT Library
   Mihaly Kallay                                 : mrcc  (arbitrary order and MRCC methods)
   Andreas Klamt, Michael Diedenhofen            : otool_cosmo (COSMO solvation model)
   Jiri Pittner, Ondrej Demel                    : Mk-CCSD
   Frank Weinhold                                : gennbo (NPA and NBO analysis)
   Christopher J. Cramer and Donald G. Truhlar   : smd solvation model
   Lars Goerigk                                  : TD-DFT with DH, B97 family of functionals
   V. Asgeirsson, H. Jonsson                     : NEB implementation
   FAccTs GmbH                                   : IRC, NEB, NEB-TS, Multilevel, MM, QM/MM, CI optimization
   S Lehtola, MJT Oliveira, MAL Marques          : LibXC Library


 Your calculation uses the libint2 library for the computation of 2-el integrals
 For citations please refer to: http://libint.valeyev.net

 Your ORCA version has been built with support for libXC version: 4.2.3
 For citations please refer to: https://tddft.org/programs/libxc/

 This ORCA versions uses:
   CBLAS   interface :  Fast vector & matrix operations
   LAPACKE interface :  Fast linear algebra routines
   SCALAPACK package :  Parallel linear algebra routines




***************************************
The coordinates will be read from file: 50.xyz
***************************************


Your calculation utilizes the atom-pairwise dispersion correction
with the Becke-Johnson damping scheme (D3BJ)
Cite in your paper:
S.Grimme, S.Ehrlich, L.Goerigk, J Comput Chem, (2011), 32, 1456–1465 
S.Grimme, J.Antony, S.Ehrlich and H.Krieg, J.Chem.Phys., 132, (2010), 154104 
   

----- Orbital basis set information -----
Your calculation utilizes the basis: def2-TZVP
   F. Weigend and R. Ahlrichs, Phys. Chem. Chem. Phys. 7, 3297 (2005).

----- AuxJ basis set information -----
Your calculation utilizes the auxiliary basis: def2/J
   F. Weigend, Phys. Chem. Chem. Phys. 8, 1057 (2006).

================================================================================
                                        WARNINGS
                       Please study these warnings very carefully!
================================================================================


WARNING: Geometry Optimization
  ===> : Switching off AutoStart
         For restart on a previous wavefunction, please use MOREAD

INFO   : the flag for use of LIBINT has been found!

================================================================================
                                       INPUT FILE
================================================================================
NAME = 50.inp
|  1> !RI BP86 def2-tzvp def2/J D3BJ VeryTightSCF VeryTightOpt Grid5 FinalGrid6 freq
|  2> %maxcore 4000
|  3> %pal nprocs 24
|  4> end
|  5> * xyzfile 0 1 50.xyz 
|  6> 
|  7>                          ****END OF INPUT****
================================================================================

                       *****************************
                       * Geometry Optimization Run *
                       *****************************

Geometry optimization settings:
Update method            Update   .... BFGS
Choice of coordinates    CoordSys .... Z-matrix Internals
Initial Hessian          InHess   .... Almoef's Model

Convergence Tolerances:
Energy Change            TolE     ....  2.0000e-07 Eh
Max. Gradient            TolMAXG  ....  3.0000e-05 Eh/bohr
RMS Gradient             TolRMSG  ....  8.0000e-06 Eh/bohr
Max. Displacement        TolMAXD  ....  2.0000e-04 bohr
RMS Displacement         TolRMSD  ....  1.0000e-04 bohr
Strict Convergence                ....  False
------------------------------------------------------------------------------
                        ORCA OPTIMIZATION COORDINATE SETUP
------------------------------------------------------------------------------

The optimization will be done in new redundant internal coordinates
Making redundant internal coordinates   ...  (new redundants) done
Evaluating the initial hessian          ...  (Almloef) done
Evaluating the coordinates              ...  done
Calculating the B-matrix                .... done
Calculating the G-matrix                .... done
Diagonalizing the G-matrix              .... done
Small eigenvalue found = 4.191e-04
Small eigenvalue found = 1.274e-03
Small eigenvalue found = 2.062e-03
Small eigenvalue found = 2.975e-03
Small eigenvalue found = 3.993e-03
Small eigenvalue found = 4.281e-03
Small eigenvalue found = 6.050e-03
Small eigenvalue found = 7.759e-03
Small eigenvalue found = 8.564e-03
Small eigenvalue found = 1.123e-02
Small eigenvalue found = 1.188e-02
Small eigenvalue found = 1.270e-02
Small eigenvalue found = 1.559e-02
Small eigenvalue found = 1.823e-02
Small eigenvalue found = 1.943e-02
Small eigenvalue found = 2.246e-02
Small eigenvalue found = 2.646e-02
Small eigenvalue found = 2.714e-02
The first mode is                       ....  326
The number of degrees of freedom        ....  339

    -----------------------------------------------------------------
                    Redundant Internal Coordinates


    -----------------------------------------------------------------
         Definition                    Initial Value    Approx d2E/dq
    -----------------------------------------------------------------
      1. B(C   1,O   0)                  1.2266         1.019838   
      2. B(C   2,C   1)                  1.5322         0.370535   
      3. B(C   3,C   2)                  1.5556         0.340013   
      4. B(C   4,C   3)                  1.5377         0.363127   
      5. B(C   5,C   4)                  1.5300         0.373581   
      6. B(N   6,C   2)                  1.4763         0.407505   
      7. B(N   6,C   5)                  1.4703         0.416676   
      8. B(C   7,N   6)                  1.3670         0.608959   
      9. B(O   8,C   7)                  1.2335         0.994468   
     10. B(N   9,C   1)                  1.3674         0.608004   
     11. B(C  10,N   9)                  1.4543         0.441787   
     12. B(C  11,C  10)                  1.5345         0.367516   
     13. B(N  12,C  11)                  1.3581         0.629263   
     14. B(C  13,N  12)                  1.4495         0.449666   
     15. B(C  14,C  13)                  1.5335         0.368803   
     16. B(N  15,C  14)                  1.3563         0.633287   
     17. B(C  16,N  15)                  1.4557         0.439604   
     18. B(C  17,C  16)                  1.5294         0.374354   
     19. B(C  18,C  17)                  1.5474         0.350409   
     20. B(C  19,C  18)                  1.5387         0.361876   
     21. B(N  20,C  19)                  1.3567         0.632313   
     22. B(C  21,N  20)                  1.4590         0.434283   
     23. B(C  22,C  21)                  1.5314         0.371706   
     24. B(N  23,C  22)                  1.3489         0.650731   
     25. B(C  24,N  23)                  1.4520         0.445644   
     26. B(C  24,C   7)                  1.5356         0.366007   
     27. B(C  25,C  24)                  1.5409         0.358865   
     28. B(O  26,C  22)                  1.2388         0.975281   
     29. B(C  27,C  21)                  1.5391         0.361351   
     30. B(C  28,C  27)                  1.5390         0.361360   
     31. B(C  29,C  28)                  1.5329         0.369637   
     32. B(C  30,C  28)                  1.5335         0.368740   
     33. B(O  31,C  19)                  1.2328         0.997106   
     34. B(C  32,C  18)                  1.5373         0.363741   
     35. B(C  33,C  32)                  1.5176         0.390964   
     36. B(C  34,C  33)                  1.5497         0.347518   
     37. B(C  35,C  34)                  1.5340         0.368072   
     38. B(C  36,C  35)                  1.5318         0.371121   
     39. B(C  37,C  36)                  1.5300         0.373525   
     40. B(C  38,C  37)                  1.5342         0.367863   
     41. B(C  39,C  38)                  1.5313         0.371810   
     42. B(C  40,C  39)                  1.5307         0.372608   
     43. B(C  41,C  40)                  1.5296         0.374083   
     44. B(O  42,C  32)                  1.2169         1.057052   
     45. B(O  43,C  17)                  1.4343         0.475571   
     46. B(O  44,C  14)                  1.2367         0.982779   
     47. B(C  45,C  13)                  1.5490         0.348327   
     48. B(C  46,C  45)                  1.5272         0.377504   
     49. B(O  47,C  11)                  1.2338         0.993483   
     50. B(C  48,C  10)                  1.5531         0.343218   
     51. B(C  49,C  48)                  1.5322         0.370574   
     52. B(C  50,C  48)                  1.5284         0.375755   
     53. B(H  51,C   2)                  1.0975         0.350334   
     54. B(H  52,C   3)                  1.0953         0.353202   
     55. B(H  53,C   3)                  1.0990         0.348344   
     56. B(H  54,C   4)                  1.0975         0.350290   
     57. B(H  55,C   4)                  1.1005         0.346496   
     58. B(H  56,C   5)                  1.1045         0.341457   
     59. B(H  57,C   5)                  1.0934         0.355673   
     60. B(H  58,N   9)                  1.0162         0.422986   
     61. B(H  59,C  10)                  1.1008         0.346139   
     62. B(H  60,N  12)                  1.0213         0.415104   
     63. B(H  61,C  13)                  1.1026         0.343839   
     64. B(H  62,N  15)                  1.0148         0.425093   
     65. B(H  63,C  16)                  1.0949         0.353659   
     66. B(H  64,C  16)                  1.0957         0.352675   
     67. B(H  65,C  17)                  1.1056         0.340014   
     68. B(H  66,C  18)                  1.1050         0.340783   
     69. B(H  67,N  20)                  1.0179         0.420306   
     70. B(H  68,C  21)                  1.1009         0.345973   
     71. B(H  69,O  44)                  3.4785         0.000050   
     72. B(H  69,N  23)                  1.0218         0.414308   
     73. B(H  70,C  24)                  1.1007         0.346240   
     74. B(H  71,C  25)                  1.0971         0.350806   
     75. B(H  72,C  25)                  1.0977         0.349993   
     76. B(H  73,C  25)                  1.0979         0.349834   
     77. B(H  74,C  27)                  1.1000         0.347076   
     78. B(H  75,C  27)                  1.0996         0.347628   
     79. B(H  76,C  28)                  1.1056         0.339982   
     80. B(H  77,C  29)                  1.0960         0.352313   
     81. B(H  78,C  29)                  1.0999         0.347278   
     82. B(H  79,C  29)                  1.1011         0.345769   
     83. B(H  80,C  30)                  1.0994         0.347889   
     84. B(H  81,C  30)                  1.1016         0.345085   
     85. B(H  82,C  30)                  1.0998         0.347364   
     86. B(H  83,C  33)                  1.1001         0.346993   
     87. B(H  84,C  33)                  1.1008         0.346073   
     88. B(H  85,C  34)                  1.0985         0.349001   
     89. B(H  86,C  34)                  1.1002         0.346909   
     90. B(H  87,C  35)                  1.1047         0.341229   
     91. B(H  88,C  35)                  1.1023         0.344159   
     92. B(H  89,C  36)                  1.1037         0.342405   
     93. B(H  90,C  36)                  1.1023         0.344212   
     94. B(H  91,C  37)                  1.1046         0.341262   
     95. B(H  92,C  37)                  1.1030         0.343264   
     96. B(H  93,C  38)                  1.1030         0.343303   
     97. B(H  94,C  38)                  1.1044         0.341572   
     98. B(H  95,H  74)                  2.1795         0.001260   
     99. B(H  95,C  39)                  1.1024         0.344002   
    100. B(H  96,C  39)                  1.1046         0.341236   
    101. B(H  97,C  40)                  1.1032         0.343105   
    102. B(H  98,C  40)                  1.1040         0.342013   
    103. B(H  99,C  41)                  1.0996         0.347625   
    104. B(H 100,C  41)                  1.1010         0.345885   
    105. B(H 101,H  71)                  4.2414         0.000001   
    106. B(H 101,C  41)                  1.1011         0.345704   
    107. B(H 102,O  43)                  0.9721         0.497345   
    108. B(H 103,C  45)                  1.0989         0.348522   
    109. B(H 104,C  45)                  1.1013         0.345457   
    110. B(H 105,C  46)                  1.0984         0.349118   
    111. B(H 106,H  56)                  4.3969         0.000000   
    112. B(H 106,C  46)                  1.0993         0.348014   
    113. B(H 107,H  67)                  4.4234         0.000000   
    114. B(H 107,C  46)                  1.1000         0.347118   
    115. B(H 108,C  48)                  1.1003         0.346710   
    116. B(H 109,C  49)                  1.0994         0.347821   
    117. B(H 110,C  49)                  1.0988         0.348601   
    118. B(H 111,C  49)                  1.1027         0.343630   
    119. B(H 112,C  50)                  1.0981         0.349596   
    120. B(H 113,C  50)                  1.1006         0.346339   
    121. B(H 114,C  50)                  1.0995         0.347731   
    122. A(O   0,C   1,N   9)          124.2654         0.467203   
    123. A(C   2,C   1,N   9)          115.4389         0.392244   
    124. A(O   0,C   1,C   2)          120.1865         0.429905   
    125. A(C   1,C   2,H  51)          106.3838         0.322427   
    126. A(N   6,C   2,H  51)          108.4750         0.325543   
    127. A(C   1,C   2,N   6)          115.2400         0.365988   
    128. A(C   1,C   2,C   3)          110.0523         0.357072   
    129. A(C   3,C   2,H  51)          112.6169         0.317929   
    130. A(C   3,C   2,N   6)          104.2279         0.360651   
    131. A(C   4,C   3,H  53)          110.2082         0.321063   
    132. A(C   4,C   3,H  52)          113.3930         0.321791   
    133. A(C   2,C   3,C   4)          104.9728         0.355849   
    134. A(C   2,C   3,H  53)          109.8908         0.317634   
    135. A(C   2,C   3,H  52)          111.1752         0.318352   
    136. A(H  52,C   3,H  53)          107.2107         0.288454   
    137. A(H  54,C   4,H  55)          108.2139         0.287841   
    138. A(C   3,C   4,H  55)          110.7446         0.320784   
    139. A(C   3,C   4,C   5)          102.8354         0.361597   
    140. A(C   3,C   4,H  54)          112.8341         0.321356   
    141. A(C   5,C   4,H  55)          109.3410         0.322278   
    142. A(C   5,C   4,H  54)          112.7969         0.322853   
    143. A(H  56,C   5,H  57)          107.6791         0.287868   
    144. A(C   4,C   5,N   6)          102.4995         0.367903   
    145. A(C   4,C   5,H  56)          110.5657         0.321505   
    146. A(N   6,C   5,H  57)          111.7748         0.327553   
    147. A(N   6,C   5,H  56)          109.9097         0.325361   
    148. A(C   4,C   5,H  57)          114.3555         0.323662   
    149. A(C   5,N   6,C   7)          127.8462         0.397955   
    150. A(C   2,N   6,C   7)          118.2071         0.396402   
    151. A(C   2,N   6,C   5)          110.6096         0.371104   
    152. A(O   8,C   7,C  24)          120.2609         0.427025   
    153. A(N   6,C   7,O   8)          121.3572         0.465187   
    154. A(N   6,C   7,C  24)          118.3384         0.391509   
    155. A(C   1,N   9,C  10)          122.1336         0.401963   
    156. A(C  10,N   9,H  58)          119.1148         0.337476   
    157. A(C   1,N   9,H  58)          116.9757         0.356101   
    158. A(C  48,C  10,H  59)          108.4373         0.317791   
    159. A(C  11,C  10,H  59)          107.3841         0.321361   
    160. A(N   9,C  10,C  11)          113.9382         0.370577   
    161. A(N   9,C  10,C  48)          112.5855         0.366251   
    162. A(N   9,C  10,H  59)          105.5373         0.329252   
    163. A(C  11,C  10,C  48)          108.6655         0.357145   
    164. A(N  12,C  11,O  47)          122.6766         0.467905   
    165. A(C  10,C  11,O  47)          119.9476         0.427264   
    166. A(C  10,C  11,N  12)          117.2992         0.394047   
    167. A(C  13,N  12,H  60)          115.8614         0.337412   
    168. A(C  11,N  12,C  13)          120.7452         0.405671   
    169. A(C  11,N  12,H  60)          122.5276         0.357044   
    170. A(C  14,C  13,C  45)          110.7475         0.358256   
    171. A(N  12,C  13,H  61)          108.8247         0.329851   
    172. A(C  14,C  13,H  61)          109.9784         0.321194   
    173. A(N  12,C  13,C  14)          107.6861         0.371930   
    174. A(C  45,C  13,H  61)          108.1097         0.318211   
    175. A(N  12,C  13,C  45)          111.4783         0.368295   
    176. A(C  13,C  14,N  15)          114.2892         0.394729   
    177. A(N  15,C  14,O  44)          123.7277         0.467523   
    178. A(C  13,C  14,O  44)          121.9556         0.426703   
    179. A(C  14,N  15,H  62)          117.7743         0.358879   
    180. A(C  16,N  15,H  62)          117.3034         0.337477   
    181. A(C  14,N  15,C  16)          122.3116         0.404508   
    182. A(H  63,C  16,H  64)          108.4616         0.289071   
    183. A(C  17,C  16,H  64)          109.9793         0.323322   
    184. A(N  15,C  16,H  63)          109.3726         0.330153   
    185. A(C  17,C  16,H  63)          109.4419         0.323470   
    186. A(N  15,C  16,C  17)          110.6243         0.371437   
    187. A(N  15,C  16,H  64)          108.9239         0.330001   
    188. A(O  43,C  17,H  65)          109.8259         0.332307   
    189. A(C  18,C  17,H  65)          106.6435         0.317940   
    190. A(C  16,C  17,H  65)          106.9337         0.321391   
    191. A(C  16,C  17,C  18)          114.0822         0.359533   
    192. A(C  18,C  17,O  43)          112.0196         0.372240   
    193. A(C  16,C  17,O  43)          107.1922         0.376510   
    194. A(C  19,C  18,H  66)          108.4462         0.319733   
    195. A(C  17,C  18,H  66)          107.3840         0.318057   
    196. A(C  17,C  18,C  32)          116.0989         0.357777   
    197. A(C  17,C  18,C  19)          108.2172         0.357465   
    198. A(C  19,C  18,C  32)          109.3146         0.359743   
    199. A(C  32,C  18,H  66)          107.1463         0.320001   
    200. A(C  18,C  19,N  20)          114.8222         0.393314   
    201. A(N  20,C  19,O  31)          122.7887         0.468632   
    202. A(C  18,C  19,O  31)          122.1694         0.426360   
    203. A(C  19,N  20,H  67)          122.0811         0.358095   
    204. A(C  19,N  20,C  21)          121.2715         0.403530   
    205. A(C  21,N  20,H  67)          115.8483         0.336159   
    206. A(C  27,C  21,H  68)          108.6682         0.320448   
    207. A(C  22,C  21,H  68)          110.8216         0.321932   
    208. A(N  20,C  21,H  68)          106.9605         0.328296   
    209. A(N  20,C  21,C  22)          105.3193         0.370208   
    210. A(C  22,C  21,C  27)          113.7773         0.360985   
    211. A(N  20,C  21,C  27)          111.0689         0.368415   
    212. A(C  21,C  22,N  23)          115.4640         0.397162   
    213. A(C  21,C  22,O  26)          120.9074         0.426717   
    214. A(N  23,C  22,O  26)          123.6274         0.469198   
    215. A(C  22,N  23,C  24)          122.8616         0.407437   
    216. A(C  24,N  23,H  69)          114.5260         0.336800   
    217. A(C  22,N  23,H  69)          122.0130         0.358969   
    218. A(C  25,C  24,H  70)          109.7541         0.320127   
    219. A(N  23,C  24,H  70)          108.1783         0.329741   
    220. A(C   7,C  24,H  70)          111.5079         0.321160   
    221. A(N  23,C  24,C  25)          110.7693         0.369614   
    222. A(C   7,C  24,N  23)          105.9987         0.370869   
    223. A(C   7,C  24,C  25)          110.5564         0.359612   
    224. A(H  71,C  25,H  73)          109.0937         0.288339   
    225. A(C  24,C  25,H  73)          109.7643         0.320667   
    226. A(H  71,C  25,H  72)          108.2383         0.288360   
    227. A(C  24,C  25,H  72)          112.2855         0.320691   
    228. A(C  24,C  25,H  71)          109.1177         0.320813   
    229. A(H  72,C  25,H  73)          108.2819         0.288235   
    230. A(C  28,C  27,H  75)          109.5421         0.320699   
    231. A(C  21,C  27,C  28)          115.7045         0.359252   
    232. A(H  74,C  27,H  75)          107.0961         0.287573   
    233. A(C  21,C  27,H  75)          105.2813         0.320698   
    234. A(C  28,C  27,H  74)          110.1930         0.320616   
    235. A(C  21,C  27,H  74)          108.6010         0.320614   
    236. A(C  29,C  28,C  30)          110.2473         0.361888   
    237. A(C  27,C  28,C  30)          110.1003         0.360493   
    238. A(C  27,C  28,C  29)          112.2123         0.360643   
    239. A(C  30,C  28,H  76)          107.7027         0.320593   
    240. A(C  29,C  28,H  76)          108.4172         0.320720   
    241. A(C  27,C  28,H  76)          108.0156         0.319536   
    242. A(C  28,C  29,H  79)          110.2629         0.321607   
    243. A(H  78,C  29,H  79)          107.8344         0.287358   
    244. A(H  77,C  29,H  79)          107.5639         0.288006   
    245. A(H  77,C  29,H  78)          107.8128         0.288202   
    246. A(C  28,C  29,H  78)          111.0634         0.321836   
    247. A(C  28,C  29,H  77)          112.1309         0.322596   
    248. A(H  81,C  30,H  82)          107.5965         0.287281   
    249. A(H  80,C  30,H  82)          108.1672         0.287644   
    250. A(C  28,C  30,H  82)          111.2538         0.321722   
    251. A(H  80,C  30,H  81)          107.8190         0.287348   
    252. A(C  28,C  30,H  81)          110.5325         0.321375   
    253. A(C  28,C  30,H  80)          111.3203         0.321801   
    254. A(C  33,C  32,O  42)          122.2536         0.436882   
    255. A(C  18,C  32,O  42)          122.7954         0.431245   
    256. A(C  18,C  32,C  33)          114.9263         0.364523   
    257. A(C  32,C  33,C  34)          111.8523         0.361692   
    258. A(C  34,C  33,H  84)          109.6995         0.318427   
    259. A(H  83,C  33,H  84)          107.6059         0.287361   
    260. A(C  32,C  33,H  84)          108.1013         0.324626   
    261. A(C  34,C  33,H  83)          109.7807         0.318565   
    262. A(C  32,C  33,H  83)          109.6936         0.324768   
    263. A(C  33,C  34,C  35)          111.6627         0.357993   
    264. A(H  85,C  34,H  86)          106.6725         0.287729   
    265. A(C  35,C  34,H  86)          109.2059         0.321557   
    266. A(C  33,C  34,H  86)          109.2222         0.318552   
    267. A(C  35,C  34,H  85)          111.1958         0.321874   
    268. A(C  33,C  34,H  85)          108.7404         0.318865   
    269. A(C  34,C  35,C  36)          112.3331         0.362024   
    270. A(H  87,C  35,H  88)          106.1276         0.286362   
    271. A(C  36,C  35,H  88)          109.1969         0.321572   
    272. A(C  34,C  35,H  88)          109.4540         0.321139   
    273. A(C  36,C  35,H  87)          109.7302         0.321123   
    274. A(C  34,C  35,H  87)          109.8055         0.320690   
    275. A(C  35,C  36,C  37)          114.2140         0.362934   
    276. A(H  89,C  36,H  90)          105.4389         0.286523   
    277. A(C  37,C  36,H  90)          109.1146         0.321921   
    278. A(C  35,C  36,H  90)          109.4111         0.321581   
    279. A(C  37,C  36,H  89)          109.5100         0.321643   
    280. A(C  35,C  36,H  89)          108.7845         0.321304   
    281. A(C  36,C  37,C  38)          113.5369         0.362388   
    282. A(H  91,C  37,H  92)          106.0410         0.286250   
    283. A(C  38,C  37,H  92)          109.2588         0.320972   
    284. A(C  36,C  37,H  92)          109.1126         0.321775   
    285. A(C  38,C  37,H  91)          109.3879         0.320665   
    286. A(C  36,C  37,H  91)          109.2311         0.321467   
    287. A(C  37,C  38,C  39)          114.3539         0.362104   
    288. A(H  93,C  38,H  94)          105.9891         0.286296   
    289. A(C  39,C  38,H  94)          108.8767         0.321273   
    290. A(C  37,C  38,H  94)          108.8967         0.320713   
    291. A(C  39,C  38,H  93)          108.9745         0.321539   
    292. A(C  37,C  38,H  93)          109.4167         0.320978   
    293. A(C  38,C  39,C  40)          113.2509         0.362897   
    294. A(H  95,C  39,H  96)          105.8449         0.286343   
    295. A(C  40,C  39,H  96)          109.4931         0.321334   
    296. A(C  38,C  39,H  96)          109.5449         0.321221   
    297. A(C  40,C  39,H  95)          108.6738         0.321759   
    298. A(C  38,C  39,H  95)          109.7635         0.321646   
    299. A(C  39,C  40,C  41)          113.1942         0.363275   
    300. A(H  97,C  40,H  98)          105.6662         0.286328   
    301. A(C  41,C  40,H  98)          109.4181         0.321662   
    302. A(C  39,C  40,H  98)          108.7840         0.321454   
    303. A(C  41,C  40,H  97)          110.1569         0.321830   
    304. A(C  39,C  40,H  97)          109.3370         0.321622   
    305. A(H 100,C  41,H 101)          107.6532         0.287169   
    306. A(H  99,C  41,H 101)          107.5118         0.287395   
    307. A(C  40,C  41,H 101)          111.3208         0.322228   
    308. A(H  99,C  41,H 100)          107.6194         0.287418   
    309. A(C  40,C  41,H 100)          111.0219         0.322255   
    310. A(C  40,C  41,H  99)          111.5216         0.322520   
    311. A(C  17,O  43,H 102)          108.2687         0.351088   
    312. A(C  13,C  45,C  46)          113.5170         0.359681   
    313. A(C  46,C  45,H 104)          110.0359         0.322671   
    314. A(C  13,C  45,H 104)          108.7567         0.318455   
    315. A(C  46,C  45,H 103)          110.9623         0.323139   
    316. A(C  13,C  45,H 103)          106.7501         0.318914   
    317. A(H 103,C  45,H 104)          106.5271         0.287478   
    318. A(H 106,C  46,H 107)          107.5548         0.287628   
    319. A(H 105,C  46,H 107)          107.9227         0.287771   
    320. A(C  45,C  46,H 107)          111.6018         0.322925   
    321. A(H 105,C  46,H 106)          107.8103         0.287887   
    322. A(C  45,C  46,H 106)          111.0101         0.323061   
    323. A(C  45,C  46,H 105)          110.7779         0.323229   
    324. A(C  50,C  48,H 108)          109.2022         0.322617   
    325. A(C  49,C  48,H 108)          108.1820         0.321884   
    326. A(C  10,C  48,H 108)          104.5306         0.317876   
    327. A(C  49,C  48,C  50)          111.5085         0.363212   
    328. A(C  10,C  48,C  50)          111.5255         0.358494   
    329. A(C  10,C  48,C  49)          111.5802         0.357648   
    330. A(H 110,C  49,H 111)          106.8757         0.287250   
    331. A(H 109,C  49,H 111)          108.3270         0.287150   
    332. A(C  48,C  49,H 111)          111.4085         0.321414   
    333. A(H 109,C  49,H 110)          107.6692         0.287795   
    334. A(C  48,C  49,H 110)          110.5839         0.322171   
    335. A(C  48,C  49,H 109)          111.7726         0.322052   
    336. A(H 113,C  50,H 114)          107.3837         0.287491   
    337. A(H 112,C  50,H 114)          108.5138         0.287912   
    338. A(C  48,C  50,H 114)          110.4414         0.322772   
    339. A(H 112,C  50,H 113)          107.4827         0.287731   
    340. A(C  48,C  50,H 113)          111.1788         0.322560   
    341. A(C  48,C  50,H 112)          111.6780         0.323055   
    342. D(H  51,C   2,C   1,N   9)   -137.3479         0.010279   
    343. D(C   3,C   2,C   1,N   9)    100.3743         0.010279   
    344. D(N   6,C   2,C   1,N   9)    -17.0983         0.010279   
    345. D(N   6,C   2,C   1,O   0)    166.5426         0.010279   
    346. D(C   3,C   2,C   1,O   0)    -75.9848         0.010279   
    347. D(H  51,C   2,C   1,O   0)     46.2931         0.010279   
    348. D(C   4,C   3,C   2,N   6)    -13.0975         0.009361   
    349. D(H  53,C   3,C   2,H  51)   -137.2330         0.009361   
    350. D(H  53,C   3,C   2,C   1)    -18.7205         0.009361   
    351. D(C   4,C   3,C   2,H  51)    104.2760         0.009361   
    352. D(H  53,C   3,C   2,N   6)    105.3935         0.009361   
    353. D(H  52,C   3,C   2,H  51)    -18.7042         0.009361   
    354. D(C   4,C   3,C   2,C   1)   -137.2115         0.009361   
    355. D(H  52,C   3,C   2,C   1)     99.8083         0.009361   
    356. D(H  52,C   3,C   2,N   6)   -136.0777         0.009361   
    357. D(H  55,C   4,C   3,H  53)    156.8104         0.010566   
    358. D(H  55,C   4,C   3,H  52)     36.6272         0.010566   
    359. D(H  54,C   4,C   3,H  52)    -84.8484         0.010566   
    360. D(H  55,C   4,C   3,C   2)    -84.9129         0.010566   
    361. D(H  54,C   4,C   3,H  53)     35.3348         0.010566   
    362. D(C   5,C   4,C   3,C   2)     31.8002         0.010566   
    363. D(H  54,C   4,C   3,C   2)    153.6115         0.010566   
    364. D(C   5,C   4,C   3,H  53)    -86.4764         0.010566   
    365. D(C   5,C   4,C   3,H  52)    153.3403         0.010566   
    366. D(N   6,C   5,C   4,C   3)    -38.3580         0.011144   
    367. D(H  57,C   5,C   4,C   3)   -159.5186         0.011144   
    368. D(H  56,C   5,C   4,H  55)   -163.5375         0.011144   
    369. D(H  56,C   5,C   4,C   3)     78.7535         0.011144   
    370. D(H  57,C   5,C   4,H  54)     78.6448         0.011144   
    371. D(H  56,C   5,C   4,H  54)    -43.0831         0.011144   
    372. D(H  57,C   5,C   4,H  55)    -41.8096         0.011144   
    373. D(N   6,C   5,C   4,H  54)   -160.1946         0.011144   
    374. D(N   6,C   5,C   4,H  55)     79.3510         0.011144   
    375. D(C   5,N   6,C   2,C   3)    -11.7558         0.014169   
    376. D(C   7,N   6,C   5,H  57)     -3.9556         0.014806   
    377. D(C   7,N   6,C   5,H  56)    115.5485         0.014806   
    378. D(C   7,N   6,C   5,C   4)   -126.8723         0.014806   
    379. D(C   2,N   6,C   5,H  57)    154.7427         0.014806   
    380. D(C   2,N   6,C   5,H  56)    -85.7532         0.014806   
    381. D(C   7,N   6,C   2,H  51)     29.0474         0.014169   
    382. D(C   2,N   6,C   5,C   4)     31.8260         0.014806   
    383. D(C   7,N   6,C   2,C   3)    149.2467         0.014169   
    384. D(C   5,N   6,C   2,C   1)    108.9475         0.014169   
    385. D(C   7,N   6,C   2,C   1)    -90.0499         0.014169   
    386. D(C   5,N   6,C   2,H  51)   -131.9552         0.014169   
    387. D(C  24,C   7,N   6,C   5)     -6.4692         0.029946   
    388. D(C  24,C   7,N   6,C   2)   -163.7726         0.029946   
    389. D(O   8,C   7,N   6,C   5)    171.1359         0.029946   
    390. D(O   8,C   7,N   6,C   2)     13.8326         0.029946   
    391. D(H  58,N   9,C   1,O   0)    175.3268         0.029845   
    392. D(C  10,N   9,C   1,C   2)   -165.5380         0.029845   
    393. D(H  58,N   9,C   1,C   2)     -0.8648         0.029845   
    394. D(C  10,N   9,C   1,O   0)     10.6536         0.029845   
    395. D(H  59,C  10,N   9,C   1)    -20.2213         0.016644   
    396. D(C  48,C  10,N   9,H  58)    -66.4680         0.016644   
    397. D(C  48,C  10,N   9,C   1)     97.8894         0.016644   
    398. D(C  11,C  10,N   9,C   1)   -137.7840         0.016644   
    399. D(H  59,C  10,N   9,H  58)    175.4213         0.016644   
    400. D(C  11,C  10,N   9,H  58)     57.8585         0.016644   
    401. D(O  47,C  11,C  10,N   9)   -174.8008         0.010124   
    402. D(N  12,C  11,C  10,H  59)   -114.3911         0.010124   
    403. D(N  12,C  11,C  10,C  48)    128.5078         0.010124   
    404. D(N  12,C  11,C  10,N   9)      2.1019         0.010124   
    405. D(O  47,C  11,C  10,H  59)     68.7062         0.010124   
    406. D(O  47,C  11,C  10,C  48)    -48.3950         0.010124   
    407. D(H  60,N  12,C  11,O  47)   -168.3246         0.032140   
    408. D(H  60,N  12,C  11,C  10)     14.8638         0.032140   
    409. D(C  13,N  12,C  11,O  47)      0.5793         0.032140   
    410. D(C  13,N  12,C  11,C  10)   -176.2323         0.032140   
    411. D(H  61,C  13,N  12,C  11)    -45.7397         0.017249   
    412. D(H  61,C  13,N  12,H  60)    123.8716         0.017249   
    413. D(C  45,C  13,N  12,H  60)   -116.9816         0.017249   
    414. D(C  45,C  13,N  12,C  11)     73.4071         0.017249   
    415. D(C  14,C  13,N  12,C  11)   -164.9219         0.017249   
    416. D(C  14,C  13,N  12,H  60)      4.6894         0.017249   
    417. D(O  44,C  14,C  13,C  45)    109.7674         0.010190   
    418. D(O  44,C  14,C  13,N  12)    -12.3570         0.010190   
    419. D(N  15,C  14,C  13,H  61)     51.0420         0.010190   
    420. D(N  15,C  14,C  13,C  45)    -68.3901         0.010190   
    421. D(O  44,C  14,C  13,H  61)   -130.8005         0.010190   
    422. D(N  15,C  14,C  13,N  12)    169.4855         0.010190   
    423. D(H  62,N  15,C  14,O  44)   -171.6132         0.032586   
    424. D(H  62,N  15,C  14,C  13)      6.5071         0.032586   
    425. D(C  16,N  15,C  14,O  44)    -10.4384         0.032586   
    426. D(C  16,N  15,C  14,C  13)    167.6819         0.032586   
    427. D(H  64,C  16,N  15,H  62)   -152.4509         0.016478   
    428. D(H  64,C  16,N  15,C  14)     46.2908         0.016478   
    429. D(H  63,C  16,N  15,H  62)    -34.0652         0.016478   
    430. D(H  63,C  16,N  15,C  14)    164.6765         0.016478   
    431. D(C  17,C  16,N  15,C  14)    -74.7047         0.016478   
    432. D(C  17,C  16,N  15,H  62)     86.5537         0.016478   
    433. D(H  65,C  17,C  16,H  64)    -70.2812         0.011188   
    434. D(H  65,C  17,C  16,H  63)    170.6636         0.011188   
    435. D(H  65,C  17,C  16,N  15)     50.0860         0.011188   
    436. D(O  43,C  17,C  16,H  64)    171.9879         0.011188   
    437. D(O  43,C  17,C  16,H  63)     52.9327         0.011188   
    438. D(O  43,C  17,C  16,N  15)    -67.6448         0.011188   
    439. D(C  18,C  17,C  16,H  64)     47.3657         0.011188   
    440. D(C  18,C  17,C  16,H  63)    -71.6895         0.011188   
    441. D(C  18,C  17,C  16,N  15)    167.7330         0.011188   
    442. D(H  66,C  18,C  17,H  65)    -59.1768         0.009891   
    443. D(H  66,C  18,C  17,O  43)     61.0050         0.009891   
    444. D(H  66,C  18,C  17,C  16)   -176.9903         0.009891   
    445. D(C  32,C  18,C  17,O  43)    -58.8207         0.009891   
    446. D(C  32,C  18,C  17,C  16)     63.1839         0.009891   
    447. D(C  32,C  18,C  17,H  65)   -179.0025         0.009891   
    448. D(C  19,C  18,C  17,H  65)     57.7011         0.009891   
    449. D(C  19,C  18,C  17,O  43)    177.8830         0.009891   
    450. D(C  19,C  18,C  17,C  16)    -60.1124         0.009891   
    451. D(O  31,C  19,C  18,H  66)   -151.7367         0.009839   
    452. D(O  31,C  19,C  18,C  32)    -35.2353         0.009839   
    453. D(O  31,C  19,C  18,C  17)     92.0731         0.009839   
    454. D(N  20,C  19,C  18,H  66)     33.5112         0.009839   
    455. D(N  20,C  19,C  18,C  17)    -82.6790         0.009839   
    456. D(N  20,C  19,C  18,C  32)    150.0125         0.009839   
    457. D(H  67,N  20,C  19,O  31)    179.5599         0.032477   
    458. D(H  67,N  20,C  19,C  18)     -5.7243         0.032477   
    459. D(C  21,N  20,C  19,O  31)    -11.1045         0.032477   
    460. D(C  21,N  20,C  19,C  18)    163.6113         0.032477   
    461. D(H  68,C  21,N  20,H  67)    140.7759         0.016080   
    462. D(H  68,C  21,N  20,C  19)    -29.1904         0.016080   
    463. D(C  27,C  21,N  20,H  67)   -100.7927         0.016080   
    464. D(C  27,C  21,N  20,C  19)     89.2411         0.016080   
    465. D(C  22,C  21,N  20,H  67)     22.8159         0.016080   
    466. D(C  22,C  21,N  20,C  19)   -147.1504         0.016080   
    467. D(N  23,C  22,C  21,C  27)   -106.3577         0.010340   
    468. D(N  23,C  22,C  21,N  20)    131.7722         0.010340   
    469. D(O  26,C  22,C  21,H  68)   -163.1615         0.010340   
    470. D(O  26,C  22,C  21,C  27)     74.0345         0.010340   
    471. D(O  26,C  22,C  21,N  20)    -47.8356         0.010340   
    472. D(N  23,C  22,C  21,H  68)     16.4463         0.010340   
    473. D(H  69,N  23,C  22,O  26)    171.1178         0.034565   
    474. D(H  69,N  23,C  22,C  21)     -8.4780         0.034565   
    475. D(C  24,N  23,C  22,O  26)      0.4833         0.034565   
    476. D(C  24,N  23,C  22,C  21)   -179.1125         0.034565   
    477. D(H  70,C  24,N  23,H  69)   -133.3446         0.016938   
    478. D(H  70,C  24,N  23,C  22)     37.9317         0.016938   
    479. D(C  25,C  24,N  23,H  69)    106.3244         0.016938   
    480. D(C  25,C  24,N  23,C  22)    -82.3993         0.016938   
    481. D(C   7,C  24,N  23,H  69)    -13.6361         0.016938   
    482. D(C   7,C  24,N  23,C  22)    157.6402         0.016938   
    483. D(H  70,C  24,C   7,O   8)    137.8704         0.010048   
    484. D(H  70,C  24,C   7,N   6)    -44.4973         0.010048   
    485. D(C  25,C  24,C   7,O   8)    -99.7340         0.010048   
    486. D(C  25,C  24,C   7,N   6)     77.8983         0.010048   
    487. D(N  23,C  24,C   7,O   8)     20.3655         0.010048   
    488. D(N  23,C  24,C   7,N   6)   -162.0022         0.010048   
    489. D(H  73,C  25,C  24,H  70)   -178.0542         0.010337   
    490. D(H  73,C  25,C  24,N  23)    -58.6665         0.010337   
    491. D(H  73,C  25,C  24,C   7)     58.5296         0.010337   
    492. D(H  72,C  25,C  24,H  70)     61.4485         0.010337   
    493. D(H  72,C  25,C  24,N  23)   -179.1638         0.010337   
    494. D(H  72,C  25,C  24,C   7)    -61.9676         0.010337   
    495. D(H  71,C  25,C  24,H  70)    -58.5539         0.010337   
    496. D(H  71,C  25,C  24,N  23)     60.8338         0.010337   
    497. D(H  71,C  25,C  24,C   7)    178.0299         0.010337   
    498. D(H  75,C  27,C  21,H  68)     66.5094         0.010470   
    499. D(H  75,C  27,C  21,C  22)   -169.5139         0.010470   
    500. D(H  75,C  27,C  21,N  20)    -50.8861         0.010470   
    501. D(H  74,C  27,C  21,H  68)   -179.0657         0.010470   
    502. D(H  74,C  27,C  21,C  22)    -55.0890         0.010470   
    503. D(H  74,C  27,C  21,N  20)     63.5388         0.010470   
    504. D(C  28,C  27,C  21,H  68)    -54.5790         0.010470   
    505. D(C  28,C  27,C  21,C  22)     69.3977         0.010470   
    506. D(C  28,C  27,C  21,N  20)   -171.9746         0.010470   
    507. D(H  76,C  28,C  27,H  75)    -86.1081         0.010471   
    508. D(H  76,C  28,C  27,H  74)    156.3162         0.010471   
    509. D(H  76,C  28,C  27,C  21)     32.6584         0.010471   
    510. D(C  30,C  28,C  27,H  75)     31.2474         0.010471   
    511. D(C  30,C  28,C  27,H  74)    -86.3283         0.010471   
    512. D(C  30,C  28,C  27,C  21)    150.0139         0.010471   
    513. D(C  29,C  28,C  27,H  75)    154.4425         0.010471   
    514. D(C  29,C  28,C  27,H  74)     36.8668         0.010471   
    515. D(C  29,C  28,C  27,C  21)    -86.7910         0.010471   
    516. D(H  79,C  29,C  28,C  30)     59.6939         0.010924   
    517. D(H  79,C  29,C  28,C  27)    -63.4186         0.010924   
    518. D(H  78,C  29,C  28,H  76)     57.8933         0.010924   
    519. D(H  78,C  29,C  28,C  30)    -59.7800         0.010924   
    520. D(H  78,C  29,C  28,C  27)    177.1075         0.010924   
    521. D(H  77,C  29,C  28,H  76)    -62.8047         0.010924   
    522. D(H  77,C  29,C  28,C  30)    179.5220         0.010924   
    523. D(H  79,C  29,C  28,H  76)    177.3672         0.010924   
    524. D(H  77,C  29,C  28,C  27)     56.4095         0.010924   
    525. D(H  82,C  30,C  28,H  76)    -62.1379         0.010874   
    526. D(H  82,C  30,C  28,C  29)     55.9755         0.010874   
    527. D(H  82,C  30,C  28,C  27)   -179.6875         0.010874   
    528. D(H  81,C  30,C  28,H  76)    178.3864         0.010874   
    529. D(H  81,C  30,C  28,C  29)    -63.5002         0.010874   
    530. D(H  81,C  30,C  28,C  27)     60.8368         0.010874   
    531. D(H  80,C  30,C  28,H  76)     58.5878         0.010874   
    532. D(H  80,C  30,C  28,C  29)    176.7013         0.010874   
    533. D(H  80,C  30,C  28,C  27)    -58.9617         0.010874   
    534. D(O  42,C  32,C  18,H  66)   -136.3502         0.009933   
    535. D(O  42,C  32,C  18,C  19)    106.3265         0.009933   
    536. D(O  42,C  32,C  18,C  17)    -16.3959         0.009933   
    537. D(C  33,C  32,C  18,H  66)     45.4241         0.009933   
    538. D(C  33,C  32,C  18,C  19)    -71.8993         0.009933   
    539. D(C  33,C  32,C  18,C  17)    165.3784         0.009933   
    540. D(H  84,C  33,C  32,O  42)     51.7476         0.011369   
    541. D(H  84,C  33,C  32,C  18)   -130.0161         0.011369   
    542. D(H  83,C  33,C  32,O  42)    168.8114         0.011369   
    543. D(H  83,C  33,C  32,C  18)    -12.9522         0.011369   
    544. D(C  34,C  33,C  32,O  42)    -69.1283         0.011369   
    545. D(C  34,C  33,C  32,C  18)    109.1081         0.011369   
    546. D(H  86,C  34,C  33,H  84)   -152.1621         0.009741   
    547. D(H  86,C  34,C  33,H  83)     89.7917         0.009741   
    548. D(H  86,C  34,C  33,C  32)    -32.2186         0.009741   
    549. D(H  85,C  34,C  33,H  84)    -36.1129         0.009741   
    550. D(H  85,C  34,C  33,H  83)   -154.1591         0.009741   
    551. D(H  85,C  34,C  33,C  32)     83.8306         0.009741   
    552. D(C  35,C  34,C  33,H  84)     86.9505         0.009741   
    553. D(C  35,C  34,C  33,H  83)    -31.0956         0.009741   
    554. D(C  35,C  34,C  33,C  32)   -153.1060         0.009741   
    555. D(H  88,C  35,C  34,H  86)     74.1967         0.010837   
    556. D(H  88,C  35,C  34,H  85)    -43.2511         0.010837   
    557. D(H  88,C  35,C  34,C  33)   -164.9064         0.010837   
    558. D(H  87,C  35,C  34,H  86)   -169.6789         0.010837   
    559. D(H  87,C  35,C  34,H  85)     72.8732         0.010837   
    560. D(H  87,C  35,C  34,C  33)    -48.7821         0.010837   
    561. D(C  36,C  35,C  34,H  86)    -47.2769         0.010837   
    562. D(C  36,C  35,C  34,H  85)   -164.7248         0.010837   
    563. D(C  36,C  35,C  34,C  33)     73.6199         0.010837   
    564. D(H  90,C  36,C  35,H  87)     73.7721         0.011006   
    565. D(H  90,C  36,C  35,C  34)    -48.6725         0.011006   
    566. D(H  89,C  36,C  35,H  88)    -55.5856         0.011006   
    567. D(H  89,C  36,C  35,H  87)   -171.5204         0.011006   
    568. D(H  89,C  36,C  35,C  34)     66.0350         0.011006   
    569. D(C  37,C  36,C  35,H  88)     67.0809         0.011006   
    570. D(C  37,C  36,C  35,H  87)    -48.8539         0.011006   
    571. D(H  90,C  36,C  35,H  88)   -170.2930         0.011006   
    572. D(C  37,C  36,C  35,C  34)   -171.2985         0.011006   
    573. D(H  92,C  37,C  36,H  90)   -179.4828         0.011141   
    574. D(H  92,C  37,C  36,H  89)     65.5752         0.011141   
    575. D(H  92,C  37,C  36,C  35)    -56.6954         0.011141   
    576. D(H  91,C  37,C  36,H  90)    -63.9763         0.011141   
    577. D(H  91,C  37,C  36,H  89)   -178.9183         0.011141   
    578. D(H  91,C  37,C  36,C  35)     58.8110         0.011141   
    579. D(C  38,C  37,C  36,H  90)     58.3972         0.011141   
    580. D(C  38,C  37,C  36,H  89)    -56.5449         0.011141   
    581. D(C  38,C  37,C  36,C  35)   -178.8155         0.011141   
    582. D(H  94,C  38,C  37,H  92)    -64.8740         0.010826   
    583. D(H  94,C  38,C  37,H  91)    179.4516         0.010826   
    584. D(H  94,C  38,C  37,C  36)     57.1649         0.010826   
    585. D(H  93,C  38,C  37,H  92)     50.5531         0.010826   
    586. D(H  93,C  38,C  37,H  91)    -65.1213         0.010826   
    587. D(H  93,C  38,C  37,C  36)    172.5920         0.010826   
    588. D(C  39,C  38,C  37,H  92)    173.0994         0.010826   
    589. D(C  39,C  38,C  37,H  91)     57.4250         0.010826   
    590. D(C  39,C  38,C  37,C  36)    -64.8617         0.010826   
    591. D(H  95,C  39,C  38,H  94)    -65.4162         0.011045   
    592. D(H  95,C  39,C  38,H  93)    179.4078         0.011045   
    593. D(H  95,C  39,C  38,C  37)     56.6213         0.011045   
    594. D(C  40,C  39,C  38,H  94)     56.2297         0.011045   
    595. D(C  40,C  39,C  38,H  93)    -58.9464         0.011045   
    596. D(C  40,C  39,C  38,C  37)    178.2672         0.011045   
    597. D(H  96,C  39,C  38,H  94)    178.7721         0.011045   
    598. D(H  96,C  39,C  38,H  93)     63.5960         0.011045   
    599. D(H  96,C  39,C  38,C  37)    -59.1904         0.011045   
    600. D(H  98,C  40,C  39,H  95)     70.6623         0.011089   
    601. D(H  98,C  40,C  39,C  38)    -51.5927         0.011089   
    602. D(H  97,C  40,C  39,H  96)    -59.2263         0.011089   
    603. D(H  97,C  40,C  39,H  95)   -174.4002         0.011089   
    604. D(H  97,C  40,C  39,C  38)     63.3449         0.011089   
    605. D(C  41,C  40,C  39,H  96)     63.9809         0.011089   
    606. D(C  41,C  40,C  39,H  95)    -51.1930         0.011089   
    607. D(H  98,C  40,C  39,H  96)   -174.1639         0.011089   
    608. D(C  41,C  40,C  39,C  38)   -173.4480         0.011089   
    609. D(H 101,C  41,C  40,H  98)    -59.9982         0.011172   
    610. D(H 101,C  41,C  40,H  97)   -175.7451         0.011172   
    611. D(H 101,C  41,C  40,C  39)     61.5012         0.011172   
    612. D(H 100,C  41,C  40,H  98)   -179.9149         0.011172   
    613. D(H 100,C  41,C  40,H  97)     64.3382         0.011172   
    614. D(H 100,C  41,C  40,C  39)    -58.4155         0.011172   
    615. D(H  99,C  41,C  40,H  98)     60.0767         0.011172   
    616. D(H  99,C  41,C  40,H  97)    -55.6702         0.011172   
    617. D(H  99,C  41,C  40,C  39)   -178.4239         0.011172   
    618. D(H 102,O  43,C  17,H  65)     45.3305         0.017835   
    619. D(H 102,O  43,C  17,C  18)    -72.9785         0.017835   
    620. D(H 102,O  43,C  17,C  16)    161.1570         0.017835   
    621. D(H 104,C  45,C  13,H  61)    -54.1869         0.009783   
    622. D(H 104,C  45,C  13,C  14)     66.3630         0.009783   
    623. D(H 104,C  45,C  13,N  12)   -173.7582         0.009783   
    624. D(H 103,C  45,C  13,H  61)     60.3916         0.009783   
    625. D(H 103,C  45,C  13,C  14)   -179.0585         0.009783   
    626. D(H 103,C  45,C  13,N  12)    -59.1797         0.009783   
    627. D(C  46,C  45,C  13,H  61)   -177.0323         0.009783   
    628. D(C  46,C  45,C  13,C  14)    -56.4825         0.009783   
    629. D(C  46,C  45,C  13,N  12)     63.3964         0.009783   
    630. D(H 107,C  46,C  45,H 104)    -58.9429         0.011366   
    631. D(H 107,C  46,C  45,H 103)   -176.5863         0.011366   
    632. D(H 107,C  46,C  45,C  13)     63.1954         0.011366   
    633. D(H 106,C  46,C  45,H 104)   -178.9152         0.011366   
    634. D(H 106,C  46,C  45,H 103)     63.4414         0.011366   
    635. D(H 106,C  46,C  45,C  13)    -56.7770         0.011366   
    636. D(H 105,C  46,C  45,H 104)     61.3382         0.011366   
    637. D(H 105,C  46,C  45,H 103)    -56.3052         0.011366   
    638. D(H 105,C  46,C  45,C  13)   -176.5236         0.011366   
    639. D(H 108,C  48,C  10,H  59)    -65.6556         0.009522   
    640. D(H 108,C  48,C  10,C  11)     50.7706         0.009522   
    641. D(H 108,C  48,C  10,N   9)    177.9540         0.009522   
    642. D(C  50,C  48,C  10,H  59)     52.2149         0.009522   
    643. D(C  50,C  48,C  10,C  11)    168.6412         0.009522   
    644. D(C  50,C  48,C  10,N   9)    -64.1755         0.009522   
    645. D(C  49,C  48,C  10,H  59)    177.6544         0.009522   
    646. D(C  49,C  48,C  10,C  11)    -65.9193         0.009522   
    647. D(C  49,C  48,C  10,N   9)     61.2640         0.009522   
    648. D(H 111,C  49,C  48,C  50)     59.8579         0.010976   
    649. D(H 111,C  49,C  48,C  10)    -65.5911         0.010976   
    650. D(H 110,C  49,C  48,H 108)     61.2530         0.010976   
    651. D(H 110,C  49,C  48,C  50)    -58.8483         0.010976   
    652. D(H 110,C  49,C  48,C  10)    175.7028         0.010976   
    653. D(H 109,C  49,C  48,H 108)    -58.6893         0.010976   
    654. D(H 109,C  49,C  48,C  50)   -178.7906         0.010976   
    655. D(H 111,C  49,C  48,H 108)    179.9592         0.010976   
    656. D(H 109,C  49,C  48,C  10)     55.7604         0.010976   
    657. D(H 114,C  50,C  48,H 108)    -60.1857         0.011267   
    658. D(H 114,C  50,C  48,C  49)     59.3130         0.011267   
    659. D(H 114,C  50,C  48,C  10)   -175.2078         0.011267   
    660. D(H 113,C  50,C  48,H 108)   -179.2868         0.011267   
    661. D(H 113,C  50,C  48,C  49)    -59.7881         0.011267   
    662. D(H 113,C  50,C  48,C  10)     65.6911         0.011267   
    663. D(H 112,C  50,C  48,H 108)     60.6662         0.011267   
    664. D(H 112,C  50,C  48,C  49)   -179.8352         0.011267   
    665. D(H 112,C  50,C  48,C  10)    -54.3559         0.011267   
    -----------------------------------------------------------------

Number of atoms                         .... 115
Number of degrees of freedom            .... 665

         *************************************************************
         *                GEOMETRY OPTIMIZATION CYCLE   1            *
         *************************************************************
---------------------------------
CARTESIAN COORDINATES (ANGSTROEM)
---------------------------------
  O      7.251865    1.688462    1.579375
  C      6.179127    1.203887    1.924377
  C      5.235704    1.992856    2.838265
  C      5.762625    1.963722    4.301642
  C      4.515523    1.722085    5.168208
  C      3.632046    0.863843    4.260587
  N      3.862489    1.459735    2.936381
  C      2.928822    1.911553    2.045996
  O      3.256212    2.538016    1.035137
  N      5.769861   -0.062501    1.610385
  C      6.669078   -1.042509    1.022066
  C      6.038814   -1.865657   -0.109187
  N      4.760787   -1.567733   -0.458786
  C      4.064994   -2.350533   -1.460908
  C      2.828014   -1.555816   -1.896713
  N      2.199400   -2.056782   -2.989186
  C      0.876040   -1.609595   -3.398812
  C     -0.197774   -2.188902   -2.476592
  C     -1.592015   -1.538982   -2.644594
  C     -1.464190   -0.038217   -2.330198
  N     -1.510249    0.273185   -1.010477
  C     -1.058046    1.571677   -0.522477
  C     -0.476006    1.301056    0.867873
  N      0.737313    1.841216    1.103866
  C      1.445255    1.669769    2.359921
  C      0.943554    2.677757    3.411937
  O     -1.097472    0.621723    1.696651
  C     -2.207733    2.594860   -0.525487
  C     -1.808632    4.048312   -0.214254
  C     -1.796900    4.336321    1.291286
  C     -2.752932    5.019590   -0.933057
  O     -1.236030    0.798757   -3.206049
  C     -2.259467   -1.715698   -4.018076
  C     -3.740014   -1.384612   -4.057063
  C     -4.018147   -0.076605   -4.840180
  C     -5.303200    0.609184   -4.358921
  C     -5.128827    1.278999   -2.992417
  C     -6.430788    1.793565   -2.375058
  C     -6.234522    2.486831   -1.020579
  C     -5.728524    1.565466    0.092928
  C     -5.501581    2.291296    1.421358
  C     -4.847490    1.408893    2.485921
  O     -1.645133   -2.062001   -5.009759
  O     -0.233409   -3.604556   -2.704272
  O      2.432193   -0.565529   -1.270547
  C      3.658709   -3.741265   -0.912868
  C      2.665447   -3.673491    0.245160
  O      6.670516   -2.793348   -0.621519
  C      7.260723   -2.017619    2.076175
  C      6.162726   -2.826765    2.774248
  C      8.143757   -1.284153    3.085301
  H      5.185596    3.009492    2.427886
  H      6.291985    2.889833    4.550043
  H      6.476868    1.137653    4.425512
  H      4.748224    1.231804    6.122158
  H      4.001953    2.670849    5.385361
  H      3.975026   -0.186013    4.265443
  H      2.571982    0.868078    4.528354
  H      4.892143   -0.376813    2.014678
  H      7.494416   -0.460165    0.584602
  H      4.298975   -0.704418   -0.168127
  H      4.736561   -2.504217   -2.321756
  H      2.524824   -2.945222   -3.356148
  H      0.685827   -1.932562   -4.427571
  H      0.845451   -0.514796   -3.367578
  H      0.124178   -1.983972   -1.438924
  H     -2.262393   -1.997337   -1.895229
  H     -1.706107   -0.425548   -0.296638
  H     -0.274923    1.919541   -1.213618
  H      1.286656    2.283145    0.364234
  H      1.270142    0.642895    2.715405
  H     -0.125099    2.507019    3.592203
  H      1.473291    2.579588    4.368386
  H      1.086355    3.701758    3.042675
  H     -2.981984    2.254743    0.178016
  H     -2.641403    2.540526   -1.534491
  H     -0.789756    4.215330   -0.609801
  H     -1.136740    3.652801    1.837269
  H     -1.460185    5.363444    1.494647
  H     -2.809566    4.224530    1.708816
  H     -2.730566    4.866888   -2.021561
  H     -3.790423    4.872426   -0.593259
  H     -2.481021    6.065300   -0.727830
  H     -4.126704   -1.293720   -3.031191
  H     -4.265615   -2.223873   -4.537875
  H     -4.070714   -0.311368   -5.912035
  H     -3.169789    0.611458   -4.709000
  H     -6.125123   -0.127301   -4.311067
  H     -5.613542    1.366842   -5.097002
  H     -4.414077    2.113814   -3.094426
  H     -4.654098    0.569839   -2.294740
  H     -7.135403    0.951069   -2.257090
  H     -6.910507    2.496086   -3.077210
  H     -7.185806    2.945353   -0.702093
  H     -5.521629    3.320966   -1.145691
  H     -4.782448    1.091546   -0.216483
  H     -6.445352    0.738410    0.242536
  H     -6.463484    2.684255    1.791882
  H     -4.868164    3.176938    1.238878
  H     -4.722843    1.948246    3.436014
  H     -5.457949    0.515161    2.687674
  H     -3.850924    1.067240    2.165666
  H     -0.671830   -4.024376   -1.944982
  H      4.586394   -4.244176   -0.606189
  H      3.236985   -4.337374   -1.737287
  H      2.456231   -4.677575    0.638346
  H      3.062872   -3.065391    1.070212
  H      1.710060   -3.226120   -0.066423
  H      7.880727   -2.713433    1.491256
  H      5.538002   -3.373273    2.053257
  H      6.602864   -3.563823    3.460150
  H      5.507448   -2.178006    3.379034
  H      8.929949   -0.700954    2.587794
  H      7.552497   -0.586866    3.698112
  H      8.620587   -2.000150    3.770072

----------------------------
CARTESIAN COORDINATES (A.U.)
----------------------------
  NO LB      ZA    FRAG     MASS         X           Y           Z
   0 O     8.0000    0    15.999   13.704039    3.190731    2.984587
   1 C     6.0000    0    12.011   11.676858    2.275016    3.636545
   2 C     6.0000    0    12.011    9.894048    3.765951    5.363544
   3 C     6.0000    0    12.011   10.889782    3.710898    8.128926
   4 C     6.0000    0    12.011    8.533101    3.254269    9.766498
   5 C     6.0000    0    12.011    6.863572    1.632426    8.051343
   6 N     7.0000    0    14.007    7.299046    2.758499    5.548955
   7 C     6.0000    0    12.011    5.534671    3.612312    3.866371
   8 O     8.0000    0    15.999    6.153349    4.796155    1.956124
   9 N     7.0000    0    14.007   10.903457   -0.118109    3.043186
  10 C     6.0000    0    12.011   12.602731   -1.970057    1.931425
  11 C     6.0000    0    12.011   11.411704   -3.525580   -0.206334
  12 N     7.0000    0    14.007    8.996584   -2.962586   -0.866980
  13 C     6.0000    0    12.011    7.681725   -4.441863   -2.760716
  14 C     6.0000    0    12.011    5.344171   -2.940067   -3.584268
  15 N     7.0000    0    14.007    4.156264   -3.886755   -5.648744
  16 C     6.0000    0    12.011    1.655476   -3.041693   -6.422824
  17 C     6.0000    0    12.011   -0.373739   -4.136425   -4.680081
  18 C     6.0000    0    12.011   -3.008472   -2.908254   -4.997559
  19 C     6.0000    0    12.011   -2.766918   -0.072220   -4.403437
  20 N     7.0000    0    14.007   -2.853957    0.516244   -1.909525
  21 C     6.0000    0    12.011   -1.999418    2.970038   -0.987338
  22 C     6.0000    0    12.011   -0.899521    2.458639    1.640041
  23 N     7.0000    0    14.007    1.393320    3.479394    2.086004
  24 C     6.0000    0    12.011    2.731136    3.155407    4.459604
  25 C     6.0000    0    12.011    1.783059    5.060228    6.447626
  26 O     8.0000    0    15.999   -2.073922    1.174886    3.206205
  27 C     6.0000    0    12.011   -4.172011    4.903574   -0.993027
  28 C     6.0000    0    12.011   -3.417819    7.650201   -0.404881
  29 C     6.0000    0    12.011   -3.395648    8.194460    2.440176
  30 C     6.0000    0    12.011   -5.202288    9.485650   -1.763222
  31 O     8.0000    0    15.999   -2.335758    1.509432   -6.058555
  32 C     6.0000    0    12.011   -4.269775   -3.242200   -7.593063
  33 C     6.0000    0    12.011   -7.067602   -2.616538   -7.666738
  34 C     6.0000    0    12.011   -7.593197   -0.144762   -9.146614
  35 C     6.0000    0    12.011  -10.021595    1.151191   -8.237167
  36 C     6.0000    0    12.011   -9.692078    2.416958   -5.654848
  37 C     6.0000    0    12.011  -12.152427    3.389347   -4.488210
  38 C     6.0000    0    12.011  -11.781540    4.699429   -1.928614
  39 C     6.0000    0    12.011  -10.825342    2.958301    0.175609
  40 C     6.0000    0    12.011  -10.396482    4.329922    2.685977
  41 C     6.0000    0    12.011   -9.160429    2.662421    4.697711
  42 O     8.0000    0    15.999   -3.108851   -3.896618   -9.467073
  43 O     8.0000    0    15.999   -0.441080   -6.811623   -5.110334
  44 O     8.0000    0    15.999    4.596179   -1.068694   -2.400986
  45 C     6.0000    0    12.011    6.913958   -7.069965   -1.725071
  46 C     6.0000    0    12.011    5.036965   -6.941892    0.463286
  47 O     8.0000    0    15.999   12.605448   -5.278663   -1.174500
  48 C     6.0000    0    12.011   13.720778   -3.812747    3.923402
  49 C     6.0000    0    12.011   11.645864   -5.341812    5.242569
  50 C     6.0000    0    12.011   15.389470   -2.426698    5.830374
  51 H     1.0000    0     1.008    9.799355    5.687116    4.588039
  52 H     1.0000    0     1.008   11.890128    5.460992    8.598336
  53 H     1.0000    0     1.008   12.239507    2.149852    8.363006
  54 H     1.0000    0     1.008    8.972843    2.327771   11.569202
  55 H     1.0000    0     1.008    7.562596    5.047173   10.176858
  56 H     1.0000    0     1.008    7.511711   -0.351513    8.060519
  57 H     1.0000    0     1.008    4.860341    1.640431    8.557349
  58 H     1.0000    0     1.008    9.244810   -0.712074    3.807190
  59 H     1.0000    0     1.008   14.162393   -0.869587    1.104737
  60 H     1.0000    0     1.008    8.123885   -1.331157   -0.317713
  61 H     1.0000    0     1.008    8.950803   -4.732284   -4.387482
  62 H     1.0000    0     1.008    4.771226   -5.565663   -6.342201
  63 H     1.0000    0     1.008    1.296026   -3.652012   -8.366897
  64 H     1.0000    0     1.008    1.597671   -0.972824   -6.363801
  65 H     1.0000    0     1.008    0.234662   -3.749163   -2.719173
  66 H     1.0000    0     1.008   -4.275303   -3.774420   -3.581464
  67 H     1.0000    0     1.008   -3.224074   -0.804168   -0.560565
  68 H     1.0000    0     1.008   -0.519530    3.627407   -2.293405
  69 H     1.0000    0     1.008    2.431427    4.314518    0.688302
  70 H     1.0000    0     1.008    2.400220    1.214895    5.131372
  71 H     1.0000    0     1.008   -0.236403    4.737579    6.788280
  72 H     1.0000    0     1.008    2.784116    4.874715    8.255054
  73 H     1.0000    0     1.008    2.052914    6.995310    5.749822
  74 H     1.0000    0     1.008   -5.635134    4.260846    0.336401
  75 H     1.0000    0     1.008   -4.991527    4.800899   -2.899767
  76 H     1.0000    0     1.008   -1.492423    7.965819   -1.152357
  77 H     1.0000    0     1.008   -2.148128    6.902793    3.471935
  78 H     1.0000    0     1.008   -2.759350   10.135440    2.824474
  79 H     1.0000    0     1.008   -5.309310    7.983205    3.229194
  80 H     1.0000    0     1.008   -5.160022    9.197085   -3.820197
  81 H     1.0000    0     1.008   -7.162862    9.207551   -1.121097
  82 H     1.0000    0     1.008   -4.688450   11.461756   -1.375400
  83 H     1.0000    0     1.008   -7.798341   -2.444776   -5.728121
  84 H     1.0000    0     1.008   -8.060845   -4.202510   -8.575340
  85 H     1.0000    0     1.008   -7.692535   -0.588401  -11.172126
  86 H     1.0000    0     1.008   -5.990034    1.155487   -8.898721
  87 H     1.0000    0     1.008  -11.574805   -0.240564   -8.146737
  88 H     1.0000    0     1.008  -10.608058    2.582957   -9.631937
  89 H     1.0000    0     1.008   -8.341396    3.994530   -5.847617
  90 H     1.0000    0     1.008   -8.794971    1.076839   -4.336430
  91 H     1.0000    0     1.008  -13.483957    1.797260   -4.265283
  92 H     1.0000    0     1.008  -13.058966    4.716920   -5.815084
  93 H     1.0000    0     1.008  -13.579205    5.565911   -1.326764
  94 H     1.0000    0     1.008  -10.434366    6.275717   -2.165043
  95 H     1.0000    0     1.008   -9.037518    2.062724   -0.409093
  96 H     1.0000    0     1.008  -12.179949    1.395393    0.458327
  97 H     1.0000    0     1.008  -12.214215    5.072506    3.386167
  98 H     1.0000    0     1.008   -9.199497    6.003543    2.341141
  99 H     1.0000    0     1.008   -8.924880    3.681651    6.493126
 100 H     1.0000    0     1.008  -10.314028    0.973513    5.078968
 101 H     1.0000    0     1.008   -7.277191    2.016792    4.092515
 102 H     1.0000    0     1.008   -1.269575   -7.604969   -3.675484
 103 H     1.0000    0     1.008    8.667028   -8.020331   -1.145530
 104 H     1.0000    0     1.008    6.117016   -8.196448   -3.282996
 105 H     1.0000    0     1.008    4.641603   -8.839336    1.206299
 106 H     1.0000    0     1.008    5.787990   -5.792749    2.022408
 107 H     1.0000    0     1.008    3.231545   -6.096484   -0.125521
 108 H     1.0000    0     1.008   14.892416   -5.127646    2.818066
 109 H     1.0000    0     1.008   10.465307   -6.374561    3.880094
 110 H     1.0000    0     1.008   12.477604   -6.734650    6.538736
 111 H     1.0000    0     1.008   10.407568   -4.115835    6.385448
 112 H     1.0000    0     1.008   16.875158   -1.324611    4.890222
 113 H     1.0000    0     1.008   14.272152   -1.109016    6.988419
 114 H     1.0000    0     1.008   16.290549   -3.779736    7.124405

--------------------------------
INTERNAL COORDINATES (ANGSTROEM)
--------------------------------
 O      0   0   0     0.000000000000     0.00000000     0.00000000
 C      1   0   0     1.226624165228     0.00000000     0.00000000
 C      2   1   0     1.532223756018   120.18645447     0.00000000
 C      3   2   1     1.555624175871   110.05226411   284.01523205
 C      4   3   2     1.537721734816   104.97281519   222.78852095
 C      5   4   3     1.529995372320   102.83540615    31.80020109
 N      6   5   4     1.470277144862   102.49954321   321.64196828
 C      7   6   5     1.366988858289   127.84616113   233.12769799
 O      8   7   6     1.233481439835   121.35720732   171.13594652
 N      2   1   3     1.367416131440   124.26538256   183.97896140
 C     10   2   1     1.454347696531   122.13356928    10.65361880
 C     11  10   2     1.534450756442   113.93820818   222.21601432
 N     12  11  10     1.358060863846   117.29920748     2.10191978
 C     13  12  11     1.449535500944   120.74521929   183.76767794
 C     14  13  12     1.533499097425   107.68608438   195.07809042
 N     15  14  13     1.356325723551   114.28920498   169.48553330
 C     16  15  14     1.455696258546   122.31156333   167.68193974
 C     17  16  15     1.529432411998   110.62429420   285.29532243
 C     18  17  16     1.547426025559   114.08220430   167.73299707
 C     19  18  17     1.538660918229   108.21724973   299.88761938
 N     20  19  18     1.356744755622   114.82215240   277.32099397
 C     21  20  19     1.459010982554   121.27150784   163.61134192
 C     22  21  20     1.531364735460   105.31932715   212.84963085
 N     23  22  21     1.348928893601   115.46398669   131.77217640
 C     24  23  22     1.451981443538   122.86164742   180.88748533
 C     25  24  23     1.540934843027   110.76931720   277.60070765
 O     23  22  21     1.238784703214   120.90739882   312.16440280
 C     22  21  20     1.539055649177   111.06889278    89.24108782
 C     28  22  21     1.539049110450   115.70453709   188.02543713
 C     29  28  22     1.532884816447   112.21229241   273.20902402
 C     29  28  22     1.533545611201   110.10031858   150.01386578
 O     20  19  18     1.232760259478   122.16938944    92.07313400
 C     19  18  17     1.537261834918   116.09888743    63.18393427
 C     33  19  18     1.517615392030   114.92625402   165.37838556
 C     34  33  19     1.549681557168   111.85229441   109.10809752
 C     35  34  33     1.534039518718   111.66270715   206.89402807
 C     36  35  34     1.531793526631   112.33314382    73.61991320
 C     37  36  35     1.530036550226   114.21404097   188.70147403
 C     38  37  36     1.534194105393   113.53694368   181.18452902
 C     39  38  37     1.531288747372   114.35389619   295.13829697
 C     40  39  38     1.530705024934   113.25087353   178.26721718
 C     41  40  39     1.529629668552   113.19422999   186.55204594
 O     33  19  18     1.216868236377   122.79540044   343.60410770
 O     18  17  16     1.434288790783   107.19215090   292.35516573
 O     15  14  13     1.236700113226   121.95558260   347.64304120
 C     14  13  12     1.549048340201   111.47833173    73.40709211
 C     46  14  13     1.527151806786   113.51703899    63.39636692
 O     12  11  10     1.233751249048   119.94755391   185.19916676
 C     11  10   2     1.553070640630   112.58546554    97.88943548
 C     49  11  10     1.532195442185   111.58018764    61.26402217
 C     49  11  10     1.528415726343   111.52552832   295.82450672
 H      3   2   1     1.097484446472   106.38383436    46.29306744
 H      4   3   2     1.095265024558   111.17515702    99.80832011
 H      4   3   2     1.099035385282   109.89079632   341.27952023
 H      5   4   3     1.097518284538   112.83414887   153.61149399
 H      5   4   3     1.100482586854   110.74455969   275.08707700
 H      6   5   4     1.104470833802   110.56571855    78.75345679
 H      6   5   4     1.093367546257   114.35547762   200.48136630
 H     10   2   1     1.016185939102   116.97568590   175.32683897
 H     11  10   2     1.100763707703   105.53730866   339.77873073
 H     13  12  11     1.021306309990   122.52763172    14.86382074
 H     14  13  12     1.102578624801   108.82469380   314.26028609
 H     16  15  14     1.014833193640   117.77425422     6.50710564
 H     17  16  15     1.094912761964   109.37260685   164.67649879
 H     17  16  15     1.095671267502   108.92391162    46.29079170
 H     18  17  16     1.105623729748   106.93374508    50.08604890
 H     19  18  17     1.105008653310   107.38397093   183.00969644
 H     21  20  19     1.017916101360   122.08108885   354.27569925
 H     22  21  20     1.100893987848   106.96045368   330.80964822
 H     24  23  22     1.021828452311   122.01297897   351.52200275
 H     25  24  23     1.100683996982   108.17834760    37.93174350
 H     26  25  24     1.097118065566   109.11773938    60.83379550
 H     26  25  24     1.097749176754   112.28552309   180.83622382
 H     26  25  24     1.097872917214   109.76428657   301.33348332
 H     28  22  21     1.100027887817   108.60095767    63.53878657
 H     28  22  21     1.099594859180   105.28127479   309.11389909
 H     29  28  22     1.105649249166   108.01562059    32.65842211
 H     30  29  28     1.095950903932   112.13090479    56.40948954
 H     30  29  28     1.099869408406   111.06338577   177.10745141
 H     30  29  28     1.101054438838   110.26292184   296.58140885
 H     31  29  28     1.099390656016   111.32025861   301.03831009
 H     31  29  28     1.101593495429   110.53248869    60.83683935
 H     31  29  28     1.099801728420   111.25382534   180.31253621
 H     34  33  19     1.100093126430   109.69356705   347.04781337
 H     34  33  19     1.100815308283   108.10126470   229.98394420
 H     35  34  33     1.098521758231   108.74042027    83.83058209
 H     35  34  33     1.100158559684   109.22216635   327.78136948
 H     36  35  34     1.104652866192   109.80547269   311.21791211
 H     36  35  34     1.102325289181   109.45404955   195.09355333
 H     37  36  35     1.103716225426   108.78445521    66.03497789
 H     37  36  35     1.102283536277   109.41106376   311.32750303
 H     38  37  36     1.104626392594   109.23109339    58.81104833
 H     38  37  36     1.103034157448   109.11259156   303.30457070
 H     39  38  37     1.103003284116   109.41671333   172.59201867
 H     39  38  37     1.104378753730   108.89670969    57.16490693
 H     40  39  38     1.102449145997   109.76347743    56.62134000
 H     40  39  38     1.104646738608   109.54493683   300.80958383
 H     41  40  39     1.103159754254   109.33701593    63.34486438
 H     41  40  39     1.104027769560   108.78404190   308.40728288
 H     42  41  40     1.099597564862   111.52164204   181.57612105
 H     42  41  40     1.100963183125   111.02187940   301.58453533
 H     42  41  40     1.101106235527   111.32078727    61.50122422
 H     44  18  17     0.972102720069   108.26868532   161.15704164
 H     46  14  13     1.098895608226   106.75014238   300.82033270
 H     46  14  13     1.101300359947   108.75667013   186.24183428
 H     47  46  14     1.098431127982   110.77789338   183.47643045
 H     47  46  14     1.099292742738   111.01007781   303.22304269
 H     47  46  14     1.099994717609   111.60182500    63.19535690
 H     49  11  10     1.100314839885   104.53059681   177.95397836
 H     50  49  11     1.099444033398   111.77262878    55.76042136
 H     50  49  11     1.098834532544   110.58387081   175.70275776
 H     50  49  11     1.102743607601   111.40852832   294.40892424
 H     51  49  11     1.098058378332   111.67801174   305.64406615
 H     51  49  11     1.100606401825   111.17878137    65.69113814
 H     51  49  11     1.099514077552   110.44142406   184.79222477

---------------------------
INTERNAL COORDINATES (A.U.)
---------------------------
 O      0   0   0     0.000000000000     0.00000000     0.00000000
 C      1   0   0     2.317983741531     0.00000000     0.00000000
 C      2   1   0     2.895483274763   120.18645447     0.00000000
 C      3   2   1     2.939703659703   110.05226411   284.01523205
 C      4   3   2     2.905872948980   104.97281519   222.78852095
 C      5   4   3     2.891272239851   102.83540615    31.80020109
 N      6   5   4     2.778421144753   102.49954321   321.64196828
 C      7   6   5     2.583234570287   127.84616113   233.12769799
 O      8   7   6     2.330942112562   121.35720732   171.13594652
 N      2   1   3     2.584041999528   124.26538256   183.97896140
 C     10   2   1     2.748318849943   122.13356928    10.65361880
 C     11  10   2     2.899691695663   113.93820818   222.21601432
 N     12  11  10     2.566363105866   117.29920748     2.10191978
 C     13  12  11     2.739225118181   120.74521929   183.76767794
 C     14  13  12     2.897893320748   107.68608438   195.07809042
 N     15  14  13     2.563084165904   114.28920498   169.48553330
 C     16  15  14     2.750867262826   122.31156333   167.68193974
 C     17  16  15     2.890208399020   110.62429420   285.29532243
 C     18  17  16     2.924211400809   114.08220430   167.73299707
 C     19  18  17     2.907647748421   108.21724973   299.88761938
 N     20  19  18     2.563876021760   114.82215240   277.32099397
 C     21  20  19     2.757131183411   121.27150784   163.61134192
 C     22  21  20     2.893859961164   105.31932715   212.84963085
 N     23  22  21     2.549106183040   115.46398669   131.77217640
 C     24  23  22     2.743847279823   122.86164742   180.88748533
 C     25  24  23     2.911944843538   110.76931720   277.60070765
 O     23  22  21     2.340963827965   120.90739882   312.16440280
 C     22  21  20     2.908393681810   111.06889278    89.24108782
 C     28  22  21     2.908381325405   115.70453709   188.02543713
 C     29  28  22     2.896732497930   112.21229241   273.20902402
 C     29  28  22     2.897981219047   110.10031858   150.01386578
 O     20  19  18     2.329579279195   122.16938944    92.07313400
 C     19  18  17     2.905003864124   116.09888743    63.18393427
 C     33  19  18     2.867877467560   114.92625402   165.37838556
 C     34  33  19     2.928473737836   111.85229441   109.10809752
 C     35  34  33     2.898914568989   111.66270715   206.89402807
 C     36  35  34     2.894670259046   112.33314382    73.61991320
 C     37  36  35     2.891350054817   114.21404097   188.70147403
 C     38  37  36     2.899206695468   113.53694368   181.18452902
 C     39  38  37     2.893716364488   114.35389619   295.13829697
 C     40  39  38     2.892613288942   113.25087353   178.26721718
 C     41  40  39     2.890581159884   113.19422999   186.55204594
 O     33  19  18     2.299547707820   122.79540044   343.60410770
 O     18  17  16     2.710413011532   107.19215090   292.35516573
 O     15  14  13     2.337024523786   121.95558260   347.64304120
 C     14  13  12     2.927277131185   111.47833173    73.40709211
 C     46  14  13     2.885898679748   113.51703899    63.39636692
 O     12  11  10     2.331451978083   119.94755391   185.19916676
 C     11  10   2     2.934878177424   112.58546554    97.88943548
 C     49  11  10     2.895429769373   111.58018764    61.26402217
 C     49  11  10     2.888287141568   111.52552832   295.82450672
 H      3   2   1     2.073945040070   106.38383436    46.29306744
 H      4   3   2     2.069750940477   111.17515702    99.80832011
 H      4   3   2     2.076875889672   109.89079632   341.27952023
 H      5   4   3     2.074008984748   112.83414887   153.61149399
 H      5   4   3     2.079610704304   110.74455969   275.08707700
 H      6   5   4     2.087147398790   110.56571855    78.75345679
 H      6   5   4     2.066165226143   114.35547762   200.48136630
 H     10   2   1     1.920313126045   116.97568590   175.32683897
[...]
freq.      78.96  E(vib)   ...       0.49 
freq.      83.11  E(vib)   ...       0.48 
freq.      90.85  E(vib)   ...       0.47 
freq.      95.08  E(vib)   ...       0.47 
freq.      96.74  E(vib)   ...       0.46 
freq.     101.58  E(vib)   ...       0.46 
freq.     110.56  E(vib)   ...       0.45 
freq.     113.40  E(vib)   ...       0.45 
freq.     119.34  E(vib)   ...       0.44 
freq.     124.62  E(vib)   ...       0.43 
freq.     131.69  E(vib)   ...       0.42 
freq.     137.35  E(vib)   ...       0.42 
freq.     146.12  E(vib)   ...       0.41 
freq.     151.35  E(vib)   ...       0.40 
freq.     160.05  E(vib)   ...       0.39 
freq.     163.02  E(vib)   ...       0.39 
freq.     166.46  E(vib)   ...       0.39 
freq.     169.67  E(vib)   ...       0.38 
freq.     171.79  E(vib)   ...       0.38 
freq.     173.63  E(vib)   ...       0.38 
freq.     188.19  E(vib)   ...       0.36 
freq.     197.12  E(vib)   ...       0.35 
freq.     201.09  E(vib)   ...       0.35 
freq.     205.40  E(vib)   ...       0.35 
freq.     209.08  E(vib)   ...       0.34 
freq.     216.42  E(vib)   ...       0.34 
freq.     217.37  E(vib)   ...       0.34 
freq.     223.13  E(vib)   ...       0.33 
freq.     225.39  E(vib)   ...       0.33 
freq.     228.79  E(vib)   ...       0.32 
freq.     232.02  E(vib)   ...       0.32 
freq.     238.55  E(vib)   ...       0.32 
freq.     244.48  E(vib)   ...       0.31 
freq.     249.50  E(vib)   ...       0.31 
freq.     250.00  E(vib)   ...       0.31 
freq.     251.16  E(vib)   ...       0.30 
freq.     258.12  E(vib)   ...       0.30 
freq.     268.54  E(vib)   ...       0.29 
freq.     274.01  E(vib)   ...       0.28 
freq.     280.80  E(vib)   ...       0.28 
freq.     283.68  E(vib)   ...       0.28 
freq.     290.40  E(vib)   ...       0.27 
freq.     295.00  E(vib)   ...       0.27 
freq.     308.40  E(vib)   ...       0.26 
freq.     311.68  E(vib)   ...       0.25 
freq.     322.60  E(vib)   ...       0.25 
freq.     329.02  E(vib)   ...       0.24 
freq.     331.35  E(vib)   ...       0.24 
freq.     332.20  E(vib)   ...       0.24 
freq.     353.08  E(vib)   ...       0.22 
freq.     356.48  E(vib)   ...       0.22 
freq.     374.31  E(vib)   ...       0.21 
freq.     387.78  E(vib)   ...       0.20 
freq.     395.76  E(vib)   ...       0.20 
freq.     410.25  E(vib)   ...       0.19 
freq.     424.77  E(vib)   ...       0.18 
freq.     436.43  E(vib)   ...       0.17 
freq.     442.04  E(vib)   ...       0.17 
freq.     447.38  E(vib)   ...       0.17 
freq.     459.72  E(vib)   ...       0.16 
freq.     468.91  E(vib)   ...       0.16 
freq.     477.71  E(vib)   ...       0.15 
freq.     486.41  E(vib)   ...       0.15 
freq.     496.16  E(vib)   ...       0.14 
freq.     501.98  E(vib)   ...       0.14 
freq.     509.12  E(vib)   ...       0.14 
freq.     514.50  E(vib)   ...       0.13 
freq.     519.66  E(vib)   ...       0.13 
freq.     542.35  E(vib)   ...       0.12 
freq.     557.57  E(vib)   ...       0.12 
freq.     564.07  E(vib)   ...       0.11 
freq.     585.69  E(vib)   ...       0.11 
freq.     593.97  E(vib)   ...       0.10 
freq.     600.99  E(vib)   ...       0.10 
freq.     616.68  E(vib)   ...       0.09 
freq.     635.46  E(vib)   ...       0.09 
freq.     644.52  E(vib)   ...       0.09 
freq.     652.25  E(vib)   ...       0.08 
freq.     669.06  E(vib)   ...       0.08 
freq.     687.99  E(vib)   ...       0.07 
freq.     691.75  E(vib)   ...       0.07 
freq.     703.35  E(vib)   ...       0.07 
freq.     716.14  E(vib)   ...       0.07 
freq.     716.91  E(vib)   ...       0.07 
freq.     719.97  E(vib)   ...       0.07 
freq.     733.01  E(vib)   ...       0.06 
freq.     741.82  E(vib)   ...       0.06 
freq.     748.85  E(vib)   ...       0.06 
freq.     752.63  E(vib)   ...       0.06 
freq.     756.32  E(vib)   ...       0.06 
freq.     766.74  E(vib)   ...       0.06 
freq.     771.91  E(vib)   ...       0.05 
freq.     774.56  E(vib)   ...       0.05 
freq.     786.21  E(vib)   ...       0.05 
freq.     809.15  E(vib)   ...       0.05 
freq.     818.47  E(vib)   ...       0.05 
freq.     825.73  E(vib)   ...       0.04 
freq.     832.75  E(vib)   ...       0.04 
freq.     839.05  E(vib)   ...       0.04 
freq.     854.04  E(vib)   ...       0.04 
freq.     860.78  E(vib)   ...       0.04 
freq.     867.47  E(vib)   ...       0.04 
freq.     874.76  E(vib)   ...       0.04 
freq.     877.27  E(vib)   ...       0.04 
freq.     878.12  E(vib)   ...       0.04 
freq.     887.23  E(vib)   ...       0.04 
freq.     895.43  E(vib)   ...       0.03 
freq.     900.48  E(vib)   ...       0.03 
freq.     901.82  E(vib)   ...       0.03 
freq.     906.69  E(vib)   ...       0.03 
freq.     911.48  E(vib)   ...       0.03 
freq.     915.04  E(vib)   ...       0.03 
freq.     921.55  E(vib)   ...       0.03 
freq.     930.43  E(vib)   ...       0.03 
freq.     934.04  E(vib)   ...       0.03 
freq.     941.33  E(vib)   ...       0.03 
freq.     942.31  E(vib)   ...       0.03 
freq.     944.68  E(vib)   ...       0.03 
freq.     952.44  E(vib)   ...       0.03 
freq.     955.84  E(vib)   ...       0.03 
freq.     967.36  E(vib)   ...       0.03 
freq.     977.52  E(vib)   ...       0.03 
freq.     981.14  E(vib)   ...       0.02 
freq.     988.53  E(vib)   ...       0.02 
freq.     990.13  E(vib)   ...       0.02 
freq.     999.28  E(vib)   ...       0.02 
freq.    1000.85  E(vib)   ...       0.02 
freq.    1008.95  E(vib)   ...       0.02 
freq.    1025.28  E(vib)   ...       0.02 
freq.    1029.04  E(vib)   ...       0.02 
freq.    1033.18  E(vib)   ...       0.02 
freq.    1036.00  E(vib)   ...       0.02 
freq.    1037.80  E(vib)   ...       0.02 
freq.    1042.83  E(vib)   ...       0.02 
freq.    1049.19  E(vib)   ...       0.02 
freq.    1050.09  E(vib)   ...       0.02 
freq.    1051.46  E(vib)   ...       0.02 
freq.    1058.31  E(vib)   ...       0.02 
freq.    1065.60  E(vib)   ...       0.02 
freq.    1066.75  E(vib)   ...       0.02 
freq.    1067.96  E(vib)   ...       0.02 
freq.    1075.70  E(vib)   ...       0.02 
freq.    1077.19  E(vib)   ...       0.02 
freq.    1081.92  E(vib)   ...       0.02 
freq.    1089.69  E(vib)   ...       0.02 
freq.    1095.21  E(vib)   ...       0.02 
freq.    1100.40  E(vib)   ...       0.02 
freq.    1110.02  E(vib)   ...       0.02 
freq.    1113.28  E(vib)   ...       0.01 
freq.    1129.20  E(vib)   ...       0.01 
freq.    1133.70  E(vib)   ...       0.01 
freq.    1145.25  E(vib)   ...       0.01 
freq.    1148.47  E(vib)   ...       0.01 
freq.    1151.76  E(vib)   ...       0.01 
freq.    1156.21  E(vib)   ...       0.01 
freq.    1160.38  E(vib)   ...       0.01 
freq.    1162.85  E(vib)   ...       0.01 
freq.    1164.85  E(vib)   ...       0.01 
freq.    1169.94  E(vib)   ...       0.01 
freq.    1173.01  E(vib)   ...       0.01 
freq.    1173.88  E(vib)   ...       0.01 
freq.    1177.54  E(vib)   ...       0.01 
freq.    1193.15  E(vib)   ...       0.01 
freq.    1195.21  E(vib)   ...       0.01 
freq.    1204.57  E(vib)   ...       0.01 
freq.    1207.09  E(vib)   ...       0.01 
freq.    1212.23  E(vib)   ...       0.01 
freq.    1216.32  E(vib)   ...       0.01 
freq.    1217.52  E(vib)   ...       0.01 
freq.    1235.34  E(vib)   ...       0.01 
freq.    1236.95  E(vib)   ...       0.01 
freq.    1238.04  E(vib)   ...       0.01 
freq.    1239.96  E(vib)   ...       0.01 
freq.    1243.41  E(vib)   ...       0.01 
freq.    1246.43  E(vib)   ...       0.01 
freq.    1258.46  E(vib)   ...       0.01 
freq.    1260.53  E(vib)   ...       0.01 
freq.    1262.58  E(vib)   ...       0.01 
freq.    1266.49  E(vib)   ...       0.01 
freq.    1267.94  E(vib)   ...       0.01 
freq.    1274.70  E(vib)   ...       0.01 
freq.    1283.20  E(vib)   ...       0.01 
freq.    1283.88  E(vib)   ...       0.01 
freq.    1288.04  E(vib)   ...       0.01 
freq.    1288.31  E(vib)   ...       0.01 
freq.    1290.39  E(vib)   ...       0.01 
freq.    1292.35  E(vib)   ...       0.01 
freq.    1301.11  E(vib)   ...       0.01 
freq.    1303.40  E(vib)   ...       0.01 
freq.    1306.16  E(vib)   ...       0.01 
freq.    1311.31  E(vib)   ...       0.01 
freq.    1315.71  E(vib)   ...       0.01 
freq.    1320.38  E(vib)   ...       0.01 
freq.    1322.56  E(vib)   ...       0.01 
freq.    1323.16  E(vib)   ...       0.01 
freq.    1324.46  E(vib)   ...       0.01 
freq.    1326.41  E(vib)   ...       0.01 
freq.    1329.35  E(vib)   ...       0.01 
freq.    1332.05  E(vib)   ...       0.01 
freq.    1332.49  E(vib)   ...       0.01 
freq.    1335.33  E(vib)   ...       0.01 
freq.    1338.86  E(vib)   ...       0.01 
freq.    1345.37  E(vib)   ...       0.01 
freq.    1348.21  E(vib)   ...       0.01 
freq.    1349.80  E(vib)   ...       0.01 
freq.    1350.17  E(vib)   ...       0.01 
freq.    1351.41  E(vib)   ...       0.01 
freq.    1353.85  E(vib)   ...       0.01 
freq.    1354.90  E(vib)   ...       0.01 
freq.    1364.39  E(vib)   ...       0.01 
freq.    1369.00  E(vib)   ...       0.01 
freq.    1370.15  E(vib)   ...       0.01 
freq.    1372.64  E(vib)   ...       0.01 
freq.    1386.85  E(vib)   ...       0.00 
freq.    1404.77  E(vib)   ...       0.00 
freq.    1422.24  E(vib)   ...       0.00 
freq.    1424.03  E(vib)   ...       0.00 
freq.    1429.42  E(vib)   ...       0.00 
freq.    1430.66  E(vib)   ...       0.00 
freq.    1431.83  E(vib)   ...       0.00 
freq.    1432.48  E(vib)   ...       0.00 
freq.    1434.11  E(vib)   ...       0.00 
freq.    1437.82  E(vib)   ...       0.00 
freq.    1438.79  E(vib)   ...       0.00 
freq.    1439.29  E(vib)   ...       0.00 
freq.    1440.39  E(vib)   ...       0.00 
freq.    1441.05  E(vib)   ...       0.00 
freq.    1443.91  E(vib)   ...       0.00 
freq.    1445.81  E(vib)   ...       0.00 
freq.    1446.70  E(vib)   ...       0.00 
freq.    1448.77  E(vib)   ...       0.00 
freq.    1450.01  E(vib)   ...       0.00 
freq.    1451.56  E(vib)   ...       0.00 
freq.    1451.89  E(vib)   ...       0.00 
freq.    1452.73  E(vib)   ...       0.00 
freq.    1453.35  E(vib)   ...       0.00 
freq.    1454.26  E(vib)   ...       0.00 
freq.    1455.37  E(vib)   ...       0.00 
freq.    1456.14  E(vib)   ...       0.00 
freq.    1456.86  E(vib)   ...       0.00 
freq.    1458.71  E(vib)   ...       0.00 
freq.    1459.44  E(vib)   ...       0.00 
freq.    1461.26  E(vib)   ...       0.00 
freq.    1464.47  E(vib)   ...       0.00 
freq.    1469.86  E(vib)   ...       0.00 
freq.    1475.88  E(vib)   ...       0.00 
freq.    1485.89  E(vib)   ...       0.00 
freq.    1503.69  E(vib)   ...       0.00 
freq.    1649.42  E(vib)   ...       0.00 
freq.    1657.53  E(vib)   ...       0.00 
freq.    1660.57  E(vib)   ...       0.00 
freq.    1671.57  E(vib)   ...       0.00 
freq.    1674.73  E(vib)   ...       0.00 
freq.    1699.56  E(vib)   ...       0.00 
freq.    1729.69  E(vib)   ...       0.00 
freq.    2918.85  E(vib)   ...       0.00 
freq.    2920.38  E(vib)   ...       0.00 
freq.    2929.29  E(vib)   ...       0.00 
freq.    2929.55  E(vib)   ...       0.00 
freq.    2930.09  E(vib)   ...       0.00 
freq.    2932.19  E(vib)   ...       0.00 
freq.    2934.22  E(vib)   ...       0.00 
freq.    2938.23  E(vib)   ...       0.00 
freq.    2943.62  E(vib)   ...       0.00 
freq.    2947.07  E(vib)   ...       0.00 
freq.    2947.38  E(vib)   ...       0.00 
freq.    2952.82  E(vib)   ...       0.00 
freq.    2953.49  E(vib)   ...       0.00 
freq.    2956.57  E(vib)   ...       0.00 
freq.    2959.80  E(vib)   ...       0.00 
freq.    2961.31  E(vib)   ...       0.00 
freq.    2963.49  E(vib)   ...       0.00 
freq.    2963.75  E(vib)   ...       0.00 
freq.    2966.65  E(vib)   ...       0.00 
freq.    2966.94  E(vib)   ...       0.00 
freq.    2967.93  E(vib)   ...       0.00 
freq.    2971.44  E(vib)   ...       0.00 
freq.    2975.07  E(vib)   ...       0.00 
freq.    2978.71  E(vib)   ...       0.00 
freq.    2979.41  E(vib)   ...       0.00 
freq.    2980.99  E(vib)   ...       0.00 
freq.    2984.92  E(vib)   ...       0.00 
freq.    2985.83  E(vib)   ...       0.00 
freq.    2986.68  E(vib)   ...       0.00 
freq.    2988.61  E(vib)   ...       0.00 
freq.    2989.40  E(vib)   ...       0.00 
freq.    2994.94  E(vib)   ...       0.00 
freq.    2996.33  E(vib)   ...       0.00 
freq.    2998.50  E(vib)   ...       0.00 
freq.    3007.82  E(vib)   ...       0.00 
freq.    3013.77  E(vib)   ...       0.00 
freq.    3014.75  E(vib)   ...       0.00 
freq.    3017.35  E(vib)   ...       0.00 
freq.    3018.01  E(vib)   ...       0.00 
freq.    3022.74  E(vib)   ...       0.00 
freq.    3024.49  E(vib)   ...       0.00 
freq.    3024.88  E(vib)   ...       0.00 
freq.    3027.05  E(vib)   ...       0.00 
freq.    3028.42  E(vib)   ...       0.00 
freq.    3030.20  E(vib)   ...       0.00 
freq.    3032.78  E(vib)   ...       0.00 
freq.    3034.43  E(vib)   ...       0.00 
freq.    3036.40  E(vib)   ...       0.00 
freq.    3036.98  E(vib)   ...       0.00 
freq.    3039.47  E(vib)   ...       0.00 
freq.    3040.17  E(vib)   ...       0.00 
freq.    3046.03  E(vib)   ...       0.00 
freq.    3054.65  E(vib)   ...       0.00 
freq.    3061.19  E(vib)   ...       0.00 
freq.    3063.89  E(vib)   ...       0.00 
freq.    3068.01  E(vib)   ...       0.00 
freq.    3077.06  E(vib)   ...       0.00 
freq.    3088.21  E(vib)   ...       0.00 
freq.    3432.00  E(vib)   ...       0.00 
freq.    3434.90  E(vib)   ...       0.00 
freq.    3482.65  E(vib)   ...       0.00 
freq.    3499.94  E(vib)   ...       0.00 
freq.    3524.58  E(vib)   ...       0.00 
freq.    3690.38  E(vib)   ...       0.00 

------------
INNER ENERGY
------------

The inner energy is: U= E(el) + E(ZPE) + E(vib) + E(rot) + E(trans)
    E(el)   - is the total energy from the electronic structure calculation
              = E(kin-el) + E(nuc-el) + E(el-el) + E(nuc-nuc)
    E(ZPE)  - the the zero temperature vibrational energy from the frequency calculation
    E(vib)  - the the finite temperature correction to E(ZPE) due to population
              of excited vibrational states
    E(rot)  - is the rotational thermal energy
    E(trans)- is the translational thermal energy

Summary of contributions to the inner energy U:
Electronic energy                ...  -2380.06373060 Eh
Zero point energy                ...      0.97635373 Eh     612.67 kcal/mol
Thermal vibrational correction   ...      0.05646114 Eh      35.43 kcal/mol
Thermal rotational correction    ...      0.00141627 Eh       0.89 kcal/mol
Thermal translational correction ...      0.00141627 Eh       0.89 kcal/mol
-----------------------------------------------------------------------
Total thermal energy                  -2379.02808319 Eh


Summary of corrections to the electronic energy:
(perhaps to be used in another calculation)
Total thermal correction                  0.05929368 Eh      37.21 kcal/mol
Non-thermal (ZPE) correction              0.97635373 Eh     612.67 kcal/mol
-----------------------------------------------------------------------
Total correction                          1.03564741 Eh     649.88 kcal/mol


--------
ENTHALPY
--------

The enthalpy is H = U + kB*T
                kB is Boltzmann's constant
Total free energy                 ...  -2379.02808319 Eh 
Thermal Enthalpy correction       ...      0.00094421 Eh       0.59 kcal/mol
-----------------------------------------------------------------------
Total Enthalpy                    ...  -2379.02713898 Eh


Note: Only C1 symmetry has been detected, increase convergence thresholds 
      if your molecule has a higher symmetry. Symmetry factor of 1.0 is   
      used for the rotational entropy correction. 
 

Note: Rotational entropy computed according to Herzberg 
Infrared and Raman Spectra, Chapter V,1, Van Nostrand Reinhold, 1945 
Point Group:  C1, Symmetry Number:   1  
Rotational constants in cm-1:     0.002677     0.001111     0.000867 

Vibrational entropy computed according to the QRRHO of S. Grimme
Chem.Eur.J. 2012 18 9955


-------
ENTROPY
-------

The entropy contributions are T*S = T*(S(el)+S(vib)+S(rot)+S(trans))
     S(el)   - electronic entropy
     S(vib)  - vibrational entropy
     S(rot)  - rotational entropy
     S(trans)- translational entropy
The entropies will be listed as mutliplied by the temperature to get
units of energy

Electronic entropy                ...      0.00000000 Eh      0.00 kcal/mol
Vibrational entropy               ...      0.10492757 Eh     65.84 kcal/mol
Rotational entropy                ...      0.01884680 Eh     11.83 kcal/mol
Translational entropy             ...      0.02166895 Eh     13.60 kcal/mol
-----------------------------------------------------------------------
Final entropy term                ...      0.14544332 Eh     91.27 kcal/mol

In case the symmetry of your molecule has not been determined correctly
or in case you have a reason to use a different symmetry number we print 
out the resulting rotational entropy values for sn=1,12 :
 --------------------------------------------------------
|  sn= 1 | S(rot)=       0.01884680 Eh     11.83 kcal/mol|
|  sn= 2 | S(rot)=       0.01819234 Eh     11.42 kcal/mol|
|  sn= 3 | S(rot)=       0.01780951 Eh     11.18 kcal/mol|
|  sn= 4 | S(rot)=       0.01753789 Eh     11.01 kcal/mol|
|  sn= 5 | S(rot)=       0.01732720 Eh     10.87 kcal/mol|
|  sn= 6 | S(rot)=       0.01715505 Eh     10.76 kcal/mol|
|  sn= 7 | S(rot)=       0.01700951 Eh     10.67 kcal/mol|
|  sn= 8 | S(rot)=       0.01688343 Eh     10.59 kcal/mol|
|  sn= 9 | S(rot)=       0.01677222 Eh     10.52 kcal/mol|
|  sn=10 | S(rot)=       0.01667274 Eh     10.46 kcal/mol|
|  sn=11 | S(rot)=       0.01658275 Eh     10.41 kcal/mol|
|  sn=12 | S(rot)=       0.01650060 Eh     10.35 kcal/mol|
 --------------------------------------------------------


-------------------
GIBBS FREE ENERGY
-------------------

The Gibbs free energy is G = H - T*S

Total enthalpy                    ...  -2379.02713898 Eh 
Total entropy correction          ...     -0.14544332 Eh    -91.27 kcal/mol
-----------------------------------------------------------------------
Final Gibbs free energy         ...  -2379.17258230 Eh

For completeness - the Gibbs free energy minus the electronic energy
G-E(el)                           ...      0.89114830 Eh    559.20 kcal/mol

--------------------------------------------------------------------------
WARNING: No preset parameters were found for the device that Open MPI
detected:

  Local host:            eu-g1-048-1
  Device name:           mlx5_0
  Device vendor ID:      0x02c9
  Device vendor part ID: 4123

Default device parameters will be used, which may result in lower
performance.  You can edit any of the files specified by the
btl_openib_device_param_files MCA parameter to set values for your
device.

NOTE: You can turn off this warning by setting the MCA parameter
      btl_openib_warn_no_device_params_found to 0.
--------------------------------------------------------------------------
--------------------------------------------------------------------------
WARNING: There was an error initializing an OpenFabrics device.

  Local host:   eu-g1-048-1
  Local device: mlx5_0
--------------------------------------------------------------------------

Timings for individual modules:

Sum of individual times         ...    34773.448 sec (= 579.557 min)
GTO integral calculation        ...       40.318 sec (=   0.672 min)   0.1 %
SCF iterations                  ...     1071.288 sec (=  17.855 min)   3.1 %
SCF Gradient evaluation         ...      414.486 sec (=   6.908 min)   1.2 %
Geometry relaxation             ...       16.151 sec (=   0.269 min)   0.0 %
Analytical frequency calculation...    33231.204 sec (= 553.853 min)  95.6 %
                             ****ORCA TERMINATED NORMALLY****
TOTAL RUN TIME: 0 days 9 hours 40 minutes 1 seconds 956 msec
