
                                 *****************
                                 * O   R   C   A *
                                 *****************

           --- An Ab Initio, DFT and Semiempirical electronic structure package ---

                  #######################################################
                  #                        -***-                        #
                  #          Department of theory and spectroscopy      #
                  #               Directorship: Frank Neese             #
                  #        Max Planck Institute fuer Kohlenforschung    #
                  #                Kaiser Wilhelm Platz 1               #
                  #                 D-45470 Muelheim/Ruhr               #
                  #                      Germany                        #
                  #                                                     #
                  #                  All rights reserved                #
                  #                        -***-                        #
                  #######################################################


                         Program Version 4.2.0 -  RELEASE  -


 With contributions from (in alphabetic order):
   Daniel Aravena         : Magnetic Suceptibility
   Michael Atanasov       : Ab Initio Ligand Field Theory (pilot matlab implementation)
   Alexander A. Auer      : GIAO ZORA, VPT2
   Ute Becker             : Parallelization
   Giovanni Bistoni       : ED, misc. LED, open-shell LED, HFLED
   Martin Brehm           : Molecular dynamics
   Dmytro Bykov           : SCF Hessian
   Vijay G. Chilkuri      : MRCI spin determinant printing, contributions to CSF-ICE
   Dipayan Datta          : RHF DLPNO-CCSD density
   Achintya Kumar Dutta   : EOM-CC, STEOM-CC
   Dmitry Ganyushin       : Spin-Orbit,Spin-Spin,Magnetic field MRCI
   Miquel Garcia          : C-PCM Hessian, Gaussian charge scheme
   Yang Guo               : DLPNO-NEVPT2, CIM, IAO-localization
   Andreas Hansen         : Spin unrestricted coupled pair/coupled cluster methods
   Benjamin Helmich-Paris : CASSCF linear response (MC-RPA)
   Lee Huntington         : MR-EOM, pCC
   Robert Izsak           : Overlap fitted RIJCOSX, COSX-SCS-MP3, EOM
   Christian Kollmar      : KDIIS, OOCD, Brueckner-CCSD(T), CCSD density
   Simone Kossmann        : Meta GGA functionals, TD-DFT gradient, OOMP2, MP2 Hessian
   Martin Krupicka        : AUTO-CI
   Lucas Lang             : DCDCAS
   Dagmar Lenk            : GEPOL surface, SMD
   Dimitrios Liakos       : Extrapolation schemes; Compound Job, initial MDCI parallelization
   Dimitrios Manganas     : Further ROCIS development; embedding schemes
   Dimitrios Pantazis     : SARC Basis sets
   Taras Petrenko         : DFT Hessian,TD-DFT gradient, ASA, ECA, R-Raman, ABS, FL, XAS/XES, NRVS
   Peter Pinski           : DLPNO-MP2, DLPNO-MP2 Gradient
   Christoph Reimann      : Effective Core Potentials
   Marius Retegan         : Local ZFS, SOC
   Christoph Riplinger    : Optimizer, TS searches, QM/MM, DLPNO-CCSD(T), (RO)-DLPNO pert. Triples
   Tobias Risthaus        : Range-separated hybrids, TD-DFT gradient, RPA, STAB
   Michael Roemelt        : Original ROCIS implementation
   Masaaki Saitow         : Open-shell DLPNO-CCSD energy and density
   Barbara Sandhoefer     : DKH picture change effects
   Avijit Sen             : IP-ROCIS
   Kantharuban Sivalingam : CASSCF convergence, NEVPT2, FIC-MRCI
   Bernardo de Souza      : ESD, SOC TD-DFT
   Georgi Stoychev        : AutoAux, RI-MP2 NMR
   Willem Van den Heuvel  : Paramagnetic NMR
   Boris Wezisla          : Elementary symmetry handling
   Frank Wennmohs         : Technical directorship


 We gratefully acknowledge several colleagues who have allowed us to
 interface, adapt or use parts of their codes:
   Stefan Grimme, W. Hujo, H. Kruse,             : VdW corrections, initial TS optimization,
                  C. Bannwarth                     DFT functionals, gCP, sTDA/sTD-DF
   Ed Valeev, F. Pavosevic, A. Kumar             : LibInt (2-el integral package), F12 methods
   Garnet Chan, S. Sharma, J. Yang, R. Olivares  : DMRG
   Ulf Ekstrom                                   : XCFun DFT Library
   Mihaly Kallay                                 : mrcc  (arbitrary order and MRCC methods)
   Andreas Klamt, Michael Diedenhofen            : otool_cosmo (COSMO solvation model)
   Jiri Pittner, Ondrej Demel                    : Mk-CCSD
   Frank Weinhold                                : gennbo (NPA and NBO analysis)
   Christopher J. Cramer and Donald G. Truhlar   : smd solvation model
   Lars Goerigk                                  : TD-DFT with DH, B97 family of functionals
   V. Asgeirsson, H. Jonsson                     : NEB implementation
   FAccTs GmbH                                   : IRC, NEB, NEB-TS, Multilevel, MM, QM/MM, CI optimization
   S Lehtola, MJT Oliveira, MAL Marques          : LibXC Library


 Your calculation uses the libint2 library for the computation of 2-el integrals
 For citations please refer to: http://libint.valeyev.net

 Your ORCA version has been built with support for libXC version: 4.2.3
 For citations please refer to: https://tddft.org/programs/libxc/

 This ORCA versions uses:
   CBLAS   interface :  Fast vector & matrix operations
   LAPACKE interface :  Fast linear algebra routines
   SCALAPACK package :  Parallel linear algebra routines




***************************************
The coordinates will be read from file: 55.xyz
***************************************


Your calculation utilizes the atom-pairwise dispersion correction
with the Becke-Johnson damping scheme (D3BJ)
Cite in your paper:
S.Grimme, S.Ehrlich, L.Goerigk, J Comput Chem, (2011), 32, 1456–1465 
S.Grimme, J.Antony, S.Ehrlich and H.Krieg, J.Chem.Phys., 132, (2010), 154104 
   

----- Orbital basis set information -----
Your calculation utilizes the basis: def2-TZVP
   F. Weigend and R. Ahlrichs, Phys. Chem. Chem. Phys. 7, 3297 (2005).

----- AuxJ basis set information -----
Your calculation utilizes the auxiliary basis: def2/J
   F. Weigend, Phys. Chem. Chem. Phys. 8, 1057 (2006).

================================================================================
                                        WARNINGS
                       Please study these warnings very carefully!
================================================================================


WARNING: Geometry Optimization
  ===> : Switching off AutoStart
         For restart on a previous wavefunction, please use MOREAD

INFO   : the flag for use of LIBINT has been found!

================================================================================
                                       INPUT FILE
================================================================================
NAME = 55.inp
|  1> !RI BP86 def2-tzvp def2/J D3BJ TIGHTSCF TightOpt Grid5 FinalGrid6 freq
|  2> %maxcore 4000
|  3> %pal nprocs 24
|  4> end
|  5> * xyzfile 0 1 55.xyz 
|  6> 
|  7>                          ****END OF INPUT****
================================================================================

                       *****************************
                       * Geometry Optimization Run *
                       *****************************

Geometry optimization settings:
Update method            Update   .... BFGS
Choice of coordinates    CoordSys .... Z-matrix Internals
Initial Hessian          InHess   .... Almoef's Model

Convergence Tolerances:
Energy Change            TolE     ....  1.0000e-06 Eh
Max. Gradient            TolMAXG  ....  1.0000e-04 Eh/bohr
RMS Gradient             TolRMSG  ....  3.0000e-05 Eh/bohr
Max. Displacement        TolMAXD  ....  1.0000e-03 bohr
RMS Displacement         TolRMSD  ....  6.0000e-04 bohr
Strict Convergence                ....  False
------------------------------------------------------------------------------
                        ORCA OPTIMIZATION COORDINATE SETUP
------------------------------------------------------------------------------

The optimization will be done in new redundant internal coordinates
Making redundant internal coordinates   ...  (new redundants) done
Evaluating the initial hessian          ...  (Almloef) done
Evaluating the coordinates              ...  done
Calculating the B-matrix                .... done
Calculating the G-matrix                .... done
Diagonalizing the G-matrix              .... done
Small eigenvalue found = 1.189e-03
Small eigenvalue found = 1.901e-03
Small eigenvalue found = 2.656e-03
Small eigenvalue found = 4.952e-03
Small eigenvalue found = 6.640e-03
Small eigenvalue found = 8.519e-03
Small eigenvalue found = 8.763e-03
Small eigenvalue found = 9.835e-03
Small eigenvalue found = 1.138e-02
Small eigenvalue found = 1.302e-02
Small eigenvalue found = 1.506e-02
Small eigenvalue found = 1.596e-02
Small eigenvalue found = 1.864e-02
Small eigenvalue found = 2.112e-02
Small eigenvalue found = 2.360e-02
Small eigenvalue found = 2.375e-02
Small eigenvalue found = 2.694e-02
The first mode is                       ....  329
The number of degrees of freedom        ....  339

    -----------------------------------------------------------------
                    Redundant Internal Coordinates


    -----------------------------------------------------------------
         Definition                    Initial Value    Approx d2E/dq
    -----------------------------------------------------------------
      1. B(C   1,O   0)                  1.2275         1.016462   
      2. B(C   2,C   1)                  1.5368         0.364405   
      3. B(C   3,C   2)                  1.5421         0.357367   
      4. B(C   4,C   3)                  1.5349         0.366880   
      5. B(C   5,C   4)                  1.5313         0.371794   
      6. B(N   6,C   2)                  1.4776         0.405672   
      7. B(N   6,C   5)                  1.4760         0.407945   
      8. B(C   7,N   6)                  1.3595         0.625888   
      9. B(O   8,C   7)                  1.2425         0.962147   
     10. B(N   9,C   1)                  1.3614         0.621571   
     11. B(C  10,N   9)                  1.4569         0.437627   
     12. B(C  11,C  10)                  1.5473         0.350574   
     13. B(N  12,C  11)                  1.3619         0.620400   
     14. B(C  13,N  12)                  1.4628         0.428263   
     15. B(C  14,C  13)                  1.5325         0.370208   
     16. B(N  15,C  14)                  1.3486         0.651584   
     17. B(C  16,N  15)                  1.4608         0.431496   
     18. B(C  17,C  16)                  1.5337         0.368572   
     19. B(C  18,C  17)                  1.5571         0.338146   
     20. B(C  19,C  18)                  1.5518         0.344859   
     21. B(N  20,C  19)                  1.3639         0.616018   
     22. B(C  21,N  20)                  1.4554         0.440136   
     23. B(C  22,C  21)                  1.5391         0.361279   
     24. B(N  23,C  22)                  1.3604         0.623797   
     25. B(C  24,C   7)                  1.5231         0.383128   
     26. B(C  24,N  23)                  1.4506         0.447921   
     27. B(C  25,C  24)                  1.5438         0.355071   
     28. B(O  26,C  22)                  1.2321         0.999628   
     29. B(C  27,C  21)                  1.5391         0.361283   
     30. B(C  28,C  27)                  1.5380         0.362790   
     31. B(C  29,C  28)                  1.5314         0.371622   
     32. B(C  30,C  28)                  1.5322         0.370559   
     33. B(O  31,C  19)                  1.2276         1.016067   
     34. B(C  32,C  18)                  1.5332         0.369177   
     35. B(C  33,C  32)                  1.5122         0.398804   
     36. B(C  34,C  33)                  1.5457         0.352573   
     37. B(C  35,C  34)                  1.5299         0.373688   
     38. B(C  36,C  35)                  1.5332         0.369161   
     39. B(C  37,C  36)                  1.5361         0.365254   
     40. B(C  38,C  37)                  1.5316         0.371412   
     41. B(C  39,C  38)                  1.5292         0.374630   
     42. B(C  40,C  39)                  1.5358         0.365728   
     43. B(C  41,C  40)                  1.5315         0.371501   
     44. B(O  42,C  32)                  1.2266         1.019885   
     45. B(O  43,C  17)                  1.4115         0.517158   
     46. B(O  44,C  14)                  1.2417         0.964947   
     47. B(C  45,C  13)                  1.5353         0.366417   
     48. B(C  46,C  45)                  1.5281         0.376160   
     49. B(O  47,C  11)                  1.2291         1.010578   
     50. B(C  48,C  10)                  1.5483         0.349240   
     51. B(C  49,C  48)                  1.5343         0.367699   
     52. B(C  50,C  48)                  1.5310         0.372191   
     53. B(H  51,C   2)                  1.0987         0.348733   
     54. B(H  52,C   3)                  1.0995         0.347698   
     55. B(H  53,C   3)                  1.0959         0.352438   
     56. B(H  54,C   4)                  1.1003         0.346703   
     57. B(H  55,C   4)                  1.0968         0.351205   
     58. B(H  56,C   5)                  1.0977         0.350087   
     59. B(H  57,C   5)                  1.1025         0.343959   
     60. B(H  58,N   9)                  1.0168         0.422050   
     61. B(H  59,C  10)                  1.0995         0.347712   
     62. B(H  60,N  12)                  1.0222         0.413744   
     63. B(H  61,C  13)                  1.1056         0.340098   
     64. B(H  62,N  15)                  1.0152         0.424586   
     65. B(H  63,H  51)                  4.7739         0.000000   
     66. B(H  63,C  16)                  1.0976         0.350144   
     67. B(H  64,C  16)                  1.0956         0.352710   
     68. B(H  65,C  17)                  1.1123         0.331753   
     69. B(H  66,C  18)                  1.1005         0.346506   
     70. B(H  67,N  20)                  1.0239         0.411205   
     71. B(H  68,C  21)                  1.0983         0.349242   
     72. B(H  69,O  44)                  2.1229         0.007254   
     73. B(H  69,N  23)                  1.0233         0.412080   
     74. B(H  70,C  24)                  1.1009         0.345959   
     75. B(H  71,C  25)                  1.0961         0.352131   
     76. B(H  72,C  25)                  1.0990         0.348356   
     77. B(H  73,C  25)                  1.0978         0.349953   
     78. B(H  74,C  27)                  1.1012         0.345551   
     79. B(H  75,C  27)                  1.1036         0.342523   
     80. B(H  76,C  28)                  1.1045         0.341463   
     81. B(H  77,C  29)                  1.0985         0.348996   
     82. B(H  78,C  29)                  1.0995         0.347794   
     83. B(H  79,C  29)                  1.1014         0.345272   
     84. B(H  80,C  30)                  1.1000         0.347081   
     85. B(H  81,C  30)                  1.1018         0.344877   
     86. B(H  82,C  30)                  1.0998         0.347379   
     87. B(H  83,C  33)                  1.1023         0.344233   
     88. B(H  84,C  33)                  1.0990         0.348392   
     89. B(H  85,H  80)                  4.2896         0.000001   
     90. B(H  85,C  34)                  1.1017         0.344990   
     91. B(H  86,C  34)                  1.1022         0.344286   
     92. B(H  87,C  35)                  1.1031         0.343212   
     93. B(H  88,C  35)                  1.1000         0.347065   
     94. B(H  89,C  36)                  1.1034         0.342750   
     95. B(H  90,C  36)                  1.1026         0.343752   
     96. B(H  91,C  37)                  1.1030         0.343303   
     97. B(H  92,C  37)                  1.1044         0.341530   
     98. B(H  93,C  38)                  1.0999         0.347203   
     99. B(H  94,H  77)                  2.0777         0.001831   
    100. B(H  94,C  38)                  1.1054         0.340336   
    101. B(H  95,C  39)                  1.1040         0.341987   
    102. B(H  96,C  39)                  1.1048         0.341097   
    103. B(H  97,C  40)                  1.1035         0.342628   
    104. B(H  98,C  40)                  1.1027         0.343690   
    105. B(H  99,H  71)                  3.2069         0.000029   
    106. B(H  99,C  41)                  1.0996         0.347603   
    107. B(H 100,O  31)                  2.5468         0.001528   
    108. B(H 100,C  41)                  1.0982         0.349350   
    109. B(H 101,C  41)                  1.1015         0.345142   
    110. B(H 102,H  93)                  4.8352         0.000000   
    111. B(H 102,O  43)                  0.9861         0.472495   
    112. B(H 103,C  45)                  1.0998         0.347304   
    113. B(H 104,C  45)                  1.0972         0.350716   
    114. B(H 105,C  46)                  1.0982         0.349454   
    115. B(H 106,H  67)                  3.8676         0.000003   
    116. B(H 106,C  46)                  1.1011         0.345765   
    117. B(H 107,C  46)                  1.1006         0.346406   
    118. B(H 108,C  48)                  1.1071         0.338120   
    119. B(H 109,C  49)                  1.0988         0.348695   
    120. B(H 110,C  49)                  1.0990         0.348420   
    121. B(H 111,C  49)                  1.1006         0.346285   
    122. B(H 112,C  50)                  1.0960         0.352255   
    123. B(H 113,C  50)                  1.0996         0.347575   
    124. B(H 114,C  50)                  1.0993         0.347990   
    125. A(O   0,C   1,N   9)          123.7276         0.468812   
    126. A(C   2,C   1,N   9)          116.7686         0.392614   
    127. A(O   0,C   1,C   2)          119.4943         0.428366   
    128. A(C   1,C   2,H  51)          104.3219         0.321306   
    129. A(N   6,C   2,H  51)          109.1796         0.325057   
    130. A(C   1,C   2,N   6)          115.9779         0.364663   
    131. A(C   1,C   2,C   3)          112.0580         0.359087   
    132. A(C   3,C   2,H  51)          112.2041         0.320283   
    133. A(C   3,C   2,N   6)          103.3080         0.363449   
    134. A(C   4,C   3,H  53)          114.0404         0.322220   
    135. A(C   4,C   3,H  52)          110.2650         0.321506   
    136. A(C   2,C   3,C   4)          103.6037         0.359502   
    137. A(C   2,C   3,H  53)          111.3322         0.320837   
    138. A(C   2,C   3,H  52)          109.5834         0.320127   
    139. A(H  52,C   3,H  53)          107.9477         0.288272   
    140. A(H  54,C   4,H  55)          107.9966         0.287985   
    141. A(C   3,C   4,H  55)          113.3009         0.322035   
    142. A(C   3,C   4,C   5)          103.0128         0.361936   
    143. A(C   3,C   4,H  54)          110.2948         0.321355   
    144. A(C   5,C   4,H  55)          112.1934         0.322737   
    145. A(C   5,C   4,H  54)          109.9943         0.322056   
    146. A(H  56,C   5,H  57)          108.1290         0.287484   
    147. A(C   4,C   5,N   6)          102.6537         0.366269   
    148. A(C   4,C   5,H  56)          113.3301         0.322569   
    149. A(N   6,C   5,H  57)          110.7242         0.324620   
    150. A(N   6,C   5,H  56)          110.8939         0.325564   
    151. A(C   4,C   5,H  57)          111.0775         0.321637   
    152. A(C   5,N   6,C   7)          127.1787         0.398392   
    153. A(C   2,N   6,C   7)          119.5499         0.398001   
    154. A(C   2,N   6,C   5)          112.2718         0.369469   
    155. A(O   8,C   7,C  24)          120.9723         0.427996   
    156. A(N   6,C   7,O   8)          120.7939         0.464708   
    157. A(N   6,C   7,C  24)          118.1324         0.396558   
    158. A(C   1,N   9,C  10)          122.1762         0.402857   
    159. A(C  10,N   9,H  58)          118.8315         0.336820   
    160. A(C   1,N   9,H  58)          117.8805         0.357304   
    161. A(C  48,C  10,H  59)          110.0571         0.318929   
    162. A(C  11,C  10,H  59)          105.3798         0.319128   
    163. A(N   9,C  10,C  11)          112.6439         0.366989   
    164. A(N   9,C  10,C  48)          109.0533         0.366749   
    165. A(N   9,C  10,H  59)          107.8914         0.328984   
    166. A(C  11,C  10,C  48)          111.6862         0.355342   
    167. A(N  12,C  11,O  47)          124.2177         0.468151   
    168. A(C  10,C  11,O  47)          121.2425         0.424965   
    169. A(C  10,C  11,N  12)          114.4132         0.389838   
    170. A(C  13,N  12,H  60)          116.3800         0.334503   
    171. A(C  11,N  12,C  13)          123.0879         0.401191   
    172. A(C  11,N  12,H  60)          118.3679         0.355986   
    173. A(C  14,C  13,C  45)          110.1385         0.361594   
    174. A(N  12,C  13,H  61)          109.5111         0.326618   
    175. A(C  14,C  13,H  61)          111.0137         0.320819   
    176. A(N  12,C  13,C  14)          104.5501         0.369065   
    177. A(C  45,C  13,H  61)          109.0436         0.320280   
    178. A(N  12,C  13,C  45)          112.5421         0.368413   
    179. A(C  13,C  14,N  15)          117.0900         0.396971   
    180. A(N  15,C  14,O  44)          123.5089         0.468395   
    181. A(C  13,C  14,O  44)          119.3390         0.425596   
    182. A(C  14,N  15,H  62)          116.3651         0.360551   
    183. A(C  16,N  15,H  62)          117.3649         0.336365   
    184. A(C  14,N  15,C  16)          123.8731         0.405214   
    185. A(H  63,C  16,H  64)          107.0924         0.288624   
    186. A(C  17,C  16,H  64)          110.4979         0.322503   
    187. A(N  15,C  16,H  63)          107.6246         0.328597   
    188. A(C  17,C  16,H  63)          106.4306         0.322118   
    189. A(N  15,C  16,C  17)          116.1148         0.369261   
    190. A(N  15,C  16,H  64)          108.6663         0.328993   
    191. A(O  43,C  17,H  65)          111.0075         0.335591   
    192. A(C  18,C  17,H  65)          105.9049         0.314841   
    193. A(C  16,C  17,H  65)          108.1053         0.319288   
    194. A(C  16,C  17,C  18)          113.8145         0.356416   
    195. A(C  18,C  17,O  43)          113.1139         0.375348   
    196. A(C  16,C  17,O  43)          104.8865         0.380987   
    197. A(C  19,C  18,H  66)          108.6112         0.318093   
    198. A(C  17,C  18,H  66)          108.1015         0.317076   
    199. A(C  17,C  18,C  32)          109.9183         0.356516   
    200. A(C  17,C  18,C  19)          113.2137         0.352421   
    201. A(C  19,C  18,C  32)          108.2813         0.357708   
    202. A(C  32,C  18,H  66)          108.6185         0.321654   
    203. A(C  18,C  19,N  20)          113.3178         0.388241   
    204. A(N  20,C  19,O  31)          124.2195         0.468008   
    205. A(C  18,C  19,O  31)          122.4103         0.424128   
    206. A(C  19,N  20,H  67)          115.8677         0.355187   
    207. A(C  19,N  20,C  21)          123.1707         0.402626   
    208. A(C  21,N  20,H  67)          116.6987         0.335683   
    209. A(C  27,C  21,H  68)          111.1876         0.320931   
    210. A(C  22,C  21,H  68)          105.1275         0.320930   
    211. A(N  20,C  21,H  68)          108.3533         0.329534   
    212. A(N  20,C  21,C  22)          114.8979         0.369251   
    213. A(C  22,C  21,C  27)          108.3782         0.359227   
    214. A(N  20,C  21,C  27)          108.8803         0.369251   
    215. A(C  21,C  22,N  23)          116.0001         0.392268   
    216. A(C  21,C  22,O  26)          120.8451         0.426427   
    217. A(N  23,C  22,O  26)          123.0566         0.467685   
    218. A(C  22,N  23,C  24)          120.6544         0.404769   
    219. A(C  24,N  23,H  69)          118.0096         0.336784   
    220. A(C  22,N  23,H  69)          121.3359         0.356073   
    221. A(C  25,C  24,H  70)          108.5489         0.319529   
    222. A(N  23,C  24,H  70)          108.3154         0.329975   
    223. A(C   7,C  24,H  70)          111.5365         0.323531   
    224. A(N  23,C  24,C  25)          111.3881         0.369263   
    225. A(C   7,C  24,N  23)          108.5309         0.374129   
    226. A(C   7,C  24,C  25)          108.5442         0.361770   
    227. A(H  71,C  25,H  73)          109.0906         0.288525   
    228. A(C  24,C  25,H  73)          109.9248         0.320129   
    229. A(H  71,C  25,H  72)          108.7673         0.288318   
    230. A(C  24,C  25,H  72)          111.4131         0.319889   
    231. A(C  24,C  25,H  71)          108.5940         0.320453   
    232. A(H  72,C  25,H  73)          109.0119         0.288039   
    233. A(C  28,C  27,H  75)          110.0855         0.320131   
    234. A(C  21,C  27,C  28)          114.4149         0.359482   
    235. A(H  74,C  27,H  75)          106.6794         0.286712   
    236. A(C  21,C  27,H  75)          107.6103         0.319913   
    237. A(C  28,C  27,H  74)          109.5048         0.320592   
    238. A(C  21,C  27,H  74)          108.2418         0.320374   
    239. A(C  29,C  28,C  30)          110.8689         0.362524   
    240. A(C  27,C  28,C  30)          110.6209         0.361039   
    241. A(C  27,C  28,C  29)          111.0732         0.361215   
    242. A(C  30,C  28,H  76)          107.9447         0.321079   
    243. A(C  29,C  28,H  76)          108.5032         0.321230   
    244. A(C  27,C  28,H  76)          107.6990         0.319969   
    245. A(C  28,C  29,H  79)          110.3167         0.321813   
    246. A(H  78,C  29,H  79)          107.9142         0.287360   
    247. A(H  77,C  29,H  79)          107.5338         0.287515   
    248. A(H  77,C  29,H  78)          107.6481         0.287843   
    249. A(C  28,C  29,H  78)          111.3344         0.322197   
    250. A(C  28,C  29,H  77)          111.9176         0.322379   
    251. A(H  81,C  30,H  82)          107.5811         0.287255   
    252. A(H  80,C  30,H  82)          108.0526         0.287541   
    253. A(C  28,C  30,H  82)          111.1975         0.321983   
    254. A(H  80,C  30,H  81)          107.7744         0.287217   
    255. A(C  28,C  30,H  81)          110.7226         0.321602   
    256. A(C  28,C  30,H  80)          111.3535         0.321938   
    257. A(C  33,C  32,O  42)          121.1775         0.435629   
    258. A(C  18,C  32,O  42)          120.4611         0.429626   
    259. A(C  18,C  32,C  33)          118.3404         0.366695   
    260. A(C  32,C  33,C  34)          112.2449         0.363817   
    261. A(C  34,C  33,H  84)          110.1206         0.319526   
    262. A(H  83,C  33,H  84)          108.6717         0.287302   
    263. A(C  32,C  33,H  84)          107.2384         0.326045   
    264. A(C  34,C  33,H  83)          109.3115         0.318900   
    265. A(C  32,C  33,H  83)          109.1735         0.325402   
    266. A(C  33,C  34,C  35)          113.4369         0.359801   
    267. A(H  85,C  34,H  86)          106.2789         0.286869   
    268. A(C  35,C  34,H  86)          110.3699         0.321955   
    269. A(C  33,C  34,H  86)          107.7930         0.318908   
    270. A(C  35,C  34,H  85)          109.1335         0.322063   
    271. A(C  33,C  34,H  85)          109.5771         0.319015   
    272. A(C  34,C  35,C  36)          112.8346         0.362633   
    273. A(H  87,C  35,H  88)          105.9002         0.286998   
    274. A(C  36,C  35,H  88)          109.3575         0.321736   
    275. A(C  34,C  35,H  88)          109.0236         0.322379   
    276. A(C  36,C  35,H  87)          109.7292         0.321149   
    277. A(C  34,C  35,H  87)          109.7564         0.321790   
    278. A(C  35,C  36,C  37)          113.3254         0.361223   
    279. A(H  89,C  36,H  90)          105.9223         0.286508   
    280. A(C  37,C  36,H  90)          110.2733         0.320673   
    281. A(C  35,C  36,H  90)          109.4708         0.321232   
    282. A(C  37,C  36,H  89)          108.4788         0.320520   
    283. A(C  35,C  36,H  89)          109.0918         0.321078   
    284. A(C  36,C  37,C  38)          112.6417         0.361598   
    285. A(H  91,C  37,H  92)          106.1034         0.286290   
    286. A(C  38,C  37,H  92)          109.6415         0.321210   
    287. A(C  36,C  37,H  92)          109.4604         0.320333   
    288. A(C  38,C  37,H  91)          109.2003         0.321483   
    289. A(C  36,C  37,H  91)          109.5820         0.320605   
    290. A(C  37,C  38,C  39)          114.4841         0.363166   
    291. A(H  93,C  38,H  94)          105.7972         0.286639   
    292. A(C  39,C  38,H  94)          108.2010         0.321480   
    293. A(C  37,C  38,H  94)          108.4531         0.321026   
    294. A(C  39,C  38,H  93)          109.5485         0.322533   
    295. A(C  37,C  38,H  93)          109.9748         0.322078   
    296. A(C  38,C  39,C  40)          113.2637         0.362211   
    297. A(H  95,C  39,H  96)          106.1784         0.286062   
    298. A(C  40,C  39,H  96)          109.4137         0.320335   
    299. A(C  38,C  39,H  96)          109.3024         0.321597   
    300. A(C  40,C  39,H  95)          109.2658         0.320471   
    301. A(C  38,C  39,H  95)          109.1716         0.321735   
    302. A(C  39,C  40,C  41)          113.9650         0.361693   
    303. A(H  97,C  40,H  98)          106.2108         0.286484   
    304. A(C  41,C  40,H  98)          109.4072         0.321555   
    305. A(C  39,C  40,H  98)          108.8658         0.320732   
    306. A(C  41,C  40,H  97)          109.1511         0.321392   
    307. A(C  39,C  40,H  97)          108.9524         0.320569   
    308. A(H 100,C  41,H 101)          107.4642         0.287544   
    309. A(H  99,C  41,H 101)          107.8019         0.287319   
    310. A(C  40,C  41,H 101)          110.9029         0.321777   
    311. A(H  99,C  41,H 100)          107.5667         0.287863   
    312. A(C  40,C  41,H 100)          112.0981         0.322416   
    313. A(C  40,C  41,H  99)          110.8173         0.322151   
    314. A(C  17,O  43,H 102)          105.3419         0.353027   
    315. A(C  13,C  45,C  46)          111.9564         0.362579   
    316. A(C  46,C  45,H 104)          110.6962         0.323282   
    317. A(C  13,C  45,H 104)          107.6268         0.321895   
    318. A(C  46,C  45,H 103)          110.7868         0.322764   
    319. A(C  13,C  45,H 103)          107.4858         0.321380   
    320. A(H 103,C  45,H 104)          108.1252         0.288000   
    321. A(H 106,C  46,H 107)          107.7828         0.287245   
    322. A(H 105,C  46,H 107)          107.5286         0.287722   
    323. A(C  45,C  46,H 107)          111.3017         0.322627   
    324. A(H 105,C  46,H 106)          107.4753         0.287638   
    325. A(C  45,C  46,H 106)          111.6558         0.322529   
    326. A(C  45,C  46,H 105)          110.9022         0.323091   
    327. A(C  50,C  48,H 108)          107.9243         0.320793   
    328. A(C  49,C  48,H 108)          108.7036         0.320157   
    329. A(C  10,C  48,H 108)          106.6363         0.317478   
    330. A(C  49,C  48,C  50)          110.4396         0.362139   
    331. A(C  10,C  48,C  50)          112.7687         0.358974   
    332. A(C  10,C  48,C  49)          110.1952         0.358233   
    333. A(H 110,C  49,H 111)          107.8570         0.287573   
    334. A(H 109,C  49,H 111)          107.6862         0.287608   
    335. A(C  48,C  49,H 111)          110.3005         0.321409   
    336. A(H 109,C  49,H 110)          108.0202         0.287885   
    337. A(C  48,C  49,H 110)          110.4851         0.321733   
    338. A(C  48,C  49,H 109)          112.3352         0.321774   
    339. A(H 113,C  50,H 114)          108.1680         0.287684   
    340. A(H 112,C  50,H 114)          108.4475         0.288287   
    341. A(C  48,C  50,H 114)          109.6579         0.322308   
    342. A(H 112,C  50,H 113)          107.3287         0.288233   
    343. A(C  48,C  50,H 113)          110.8023         0.322245   
    344. A(C  48,C  50,H 112)          112.3074         0.322952   
    345. D(H  51,C   2,C   1,N   9)   -134.1040         0.009966   
    346. D(C   3,C   2,C   1,N   9)    104.2760         0.009966   
    347. D(N   6,C   2,C   1,N   9)    -13.9998         0.009966   
    348. D(N   6,C   2,C   1,O   0)    167.0782         0.009966   
    349. D(C   3,C   2,C   1,O   0)    -74.6460         0.009966   
    350. D(H  51,C   2,C   1,O   0)     46.9739         0.009966   
    351. D(C   4,C   3,C   2,N   6)     27.3315         0.010257   
    352. D(H  53,C   3,C   2,H  51)    -92.2162         0.010257   
    353. D(H  53,C   3,C   2,C   1)     24.7637         0.010257   
    354. D(C   4,C   3,C   2,H  51)    144.7951         0.010257   
    355. D(H  53,C   3,C   2,N   6)    150.3202         0.010257   
    356. D(H  52,C   3,C   2,H  51)     27.1282         0.010257   
    357. D(C   4,C   3,C   2,C   1)    -98.2250         0.010257   
    358. D(H  52,C   3,C   2,C   1)    144.1081         0.010257   
    359. D(H  52,C   3,C   2,N   6)    -90.3354         0.010257   
    360. D(H  55,C   4,C   3,H  53)     78.5814         0.010771   
    361. D(H  55,C   4,C   3,H  52)    -43.0450         0.010771   
    362. D(H  54,C   4,C   3,H  52)   -164.2388         0.010771   
    363. D(H  55,C   4,C   3,C   2)   -160.2358         0.010771   
    364. D(H  54,C   4,C   3,H  53)    -42.6123         0.010771   
    365. D(C   5,C   4,C   3,C   2)    -38.7928         0.010771   
    366. D(H  54,C   4,C   3,C   2)     78.5704         0.010771   
    367. D(C   5,C   4,C   3,H  53)   -159.9755         0.010771   
    368. D(C   5,C   4,C   3,H  52)     78.3980         0.010771   
    369. D(N   6,C   5,C   4,C   3)     34.6959         0.011044   
    370. D(H  57,C   5,C   4,C   3)    -83.6773         0.011044   
    371. D(H  56,C   5,C   4,H  55)    -83.4500         0.011044   
    372. D(H  56,C   5,C   4,C   3)    154.3586         0.011044   
    373. D(H  57,C   5,C   4,H  54)    158.7474         0.011044   
    374. D(H  56,C   5,C   4,H  54)     36.7833         0.011044   
    375. D(H  57,C   5,C   4,H  55)     38.5141         0.011044   
    376. D(N   6,C   5,C   4,H  54)    -82.8793         0.011044   
    377. D(N   6,C   5,C   4,H  55)    156.8874         0.011044   
    378. D(C   5,N   6,C   2,C   3)     -5.6314         0.014044   
    379. D(C   7,N   6,C   5,H  57)    -68.0973         0.014199   
    380. D(C   7,N   6,C   5,H  56)     51.9379         0.014199   
    381. D(C   7,N   6,C   5,C   4)    173.2809         0.014199   
    382. D(C   2,N   6,C   5,H  57)    100.2872         0.014199   
    383. D(C   2,N   6,C   5,H  56)   -139.6776         0.014199   
    384. D(C   7,N   6,C   2,H  51)     44.1755         0.014044   
    385. D(C   2,N   6,C   5,C   4)    -18.3346         0.014199   
    386. D(C   7,N   6,C   2,C   3)    163.7420         0.014044   
    387. D(C   5,N   6,C   2,C   1)    117.3615         0.014044   
    388. D(C   7,N   6,C   2,C   1)    -73.2651         0.014044   
    389. D(C   5,N   6,C   2,H  51)   -125.1980         0.014044   
    390. D(C  24,C   7,N   6,C   5)      5.7739         0.031768   
    391. D(C  24,C   7,N   6,C   2)   -161.8586         0.031768   
    392. D(O   8,C   7,N   6,C   5)   -177.8528         0.031768   
    393. D(O   8,C   7,N   6,C   2)     14.5146         0.031768   
    394. D(H  58,N   9,C   1,O   0)   -176.3383         0.031297   
    395. D(C  10,N   9,C   1,C   2)    172.5863         0.031297   
    396. D(H  58,N   9,C   1,C   2)      4.7899         0.031297   
    397. D(C  10,N   9,C   1,O   0)     -8.5418         0.031297   
    398. D(H  59,C  10,N   9,C   1)     39.8253         0.016330   
    399. D(C  48,C  10,N   9,H  58)    -32.9672         0.016330   
    400. D(C  48,C  10,N   9,C   1)    159.3479         0.016330   
    401. D(C  11,C  10,N   9,C   1)    -76.0645         0.016330   
    402. D(H  59,C  10,N   9,H  58)   -152.4898         0.016330   
    403. D(C  11,C  10,N   9,H  58)     91.6204         0.016330   
    404. D(O  47,C  11,C  10,N   9)    153.5239         0.009284   
    405. D(N  12,C  11,C  10,H  59)   -147.7865         0.009284   
    406. D(N  12,C  11,C  10,C  48)     92.7300         0.009284   
    407. D(N  12,C  11,C  10,N   9)    -30.4005         0.009284   
    408. D(O  47,C  11,C  10,H  59)     36.1379         0.009284   
    409. D(O  47,C  11,C  10,C  48)    -83.3457         0.009284   
    410. D(H  60,N  12,C  11,O  47)   -164.1970         0.031170   
    411. D(H  60,N  12,C  11,C  10)     19.8608         0.031170   
    412. D(C  13,N  12,C  11,O  47)     -1.5396         0.031170   
    413. D(C  13,N  12,C  11,C  10)   -177.4817         0.031170   
    414. D(H  61,C  13,N  12,C  11)    -56.1748         0.015637   
    415. D(H  61,C  13,N  12,H  60)    106.8010         0.015637   
    416. D(C  45,C  13,N  12,H  60)   -131.7407         0.015637   
    417. D(C  45,C  13,N  12,C  11)     65.2835         0.015637   
    418. D(C  14,C  13,N  12,C  11)   -175.1880         0.015637   
    419. D(C  14,C  13,N  12,H  60)    -12.2122         0.015637   
    420. D(O  44,C  14,C  13,C  45)     54.0891         0.010262   
    421. D(O  44,C  14,C  13,N  12)    -67.0446         0.010262   
    422. D(N  15,C  14,C  13,H  61)     -7.8020         0.010262   
    423. D(N  15,C  14,C  13,C  45)   -128.6767         0.010262   
    424. D(O  44,C  14,C  13,H  61)    174.9638         0.010262   
    425. D(N  15,C  14,C  13,N  12)    110.1897         0.010262   
    426. D(H  62,N  15,C  14,O  44)    176.1660         0.034663   
    427. D(H  62,N  15,C  14,C  13)     -0.9423         0.034663   
    428. D(C  16,N  15,C  14,O  44)     14.2478         0.034663   
    429. D(C  16,N  15,C  14,C  13)   -162.8605         0.034663   
    430. D(H  64,C  16,N  15,H  62)   -136.0948         0.015874   
    431. D(H  64,C  16,N  15,C  14)     25.6572         0.015874   
    432. D(H  63,C  16,N  15,H  62)    -20.4471         0.015874   
    433. D(H  63,C  16,N  15,C  14)    141.3049         0.015874   
    434. D(C  17,C  16,N  15,C  14)    -99.5998         0.015874   
    435. D(C  17,C  16,N  15,H  62)     98.6482         0.015874   
    436. D(H  65,C  17,C  16,H  64)   -165.4266         0.010865   
    437. D(H  65,C  17,C  16,H  63)     78.6363         0.010865   
    438. D(H  65,C  17,C  16,N  15)    -41.1075         0.010865   
    439. D(O  43,C  17,C  16,H  64)     76.0723         0.010865   
    440. D(O  43,C  17,C  16,H  63)    -39.8648         0.010865   
    441. D(O  43,C  17,C  16,N  15)   -159.6086         0.010865   
    442. D(C  18,C  17,C  16,H  64)    -48.0748         0.010865   
    443. D(C  18,C  17,C  16,H  63)   -164.0120         0.010865   
    444. D(C  18,C  17,C  16,N  15)     76.2442         0.010865   
    445. D(H  66,C  18,C  17,H  65)     58.6738         0.009267   
    446. D(H  66,C  18,C  17,O  43)   -179.5289         0.009267   
    447. D(H  66,C  18,C  17,C  16)    -59.9445         0.009267   
    448. D(C  32,C  18,C  17,O  43)     62.0657         0.009267   
    449. D(C  32,C  18,C  17,C  16)   -178.3500         0.009267   
    450. D(C  32,C  18,C  17,H  65)    -59.7317         0.009267   
    451. D(C  19,C  18,C  17,H  65)    179.0406         0.009267   
    452. D(C  19,C  18,C  17,O  43)    -59.1621         0.009267   
    453. D(C  19,C  18,C  17,C  16)     60.4223         0.009267   
    454. D(O  31,C  19,C  18,H  66)   -171.4469         0.009011   
    455. D(O  31,C  19,C  18,C  32)    -53.6694         0.009011   
    456. D(O  31,C  19,C  18,C  17)     68.4766         0.009011   
    457. D(N  20,C  19,C  18,H  66)      6.0214         0.009011   
    458. D(N  20,C  19,C  18,C  17)   -114.0550         0.009011   
    459. D(N  20,C  19,C  18,C  32)    123.7989         0.009011   
    460. D(H  67,N  20,C  19,O  31)   -161.6573         0.030698   
    461. D(H  67,N  20,C  19,C  18)     20.9275         0.030698   
    462. D(C  21,N  20,C  19,O  31)     -5.6664         0.030698   
    463. D(C  21,N  20,C  19,C  18)    176.9184         0.030698   
    464. D(H  68,C  21,N  20,H  67)   -160.9021         0.016519   
    465. D(H  68,C  21,N  20,C  19)     43.2905         0.016519   
    466. D(C  27,C  21,N  20,H  67)    -39.8444         0.016519   
    467. D(C  27,C  21,N  20,C  19)    164.3483         0.016519   
    468. D(C  22,C  21,N  20,H  67)     81.8973         0.016519   
    469. D(C  22,C  21,N  20,C  19)    -73.9100         0.016519   
    470. D(N  23,C  22,C  21,C  27)     92.6141         0.009809   
    471. D(N  23,C  22,C  21,N  20)    -29.3998         0.009809   
    472. D(O  26,C  22,C  21,H  68)     35.0769         0.009809   
    473. D(O  26,C  22,C  21,C  27)    -83.8919         0.009809   
    474. D(O  26,C  22,C  21,N  20)    154.0942         0.009809   
    475. D(N  23,C  22,C  21,H  68)   -148.4171         0.009809   
    476. D(H  69,N  23,C  22,O  26)    176.0476         0.031539   
    477. D(H  69,N  23,C  22,C  21)     -0.3732         0.031539   
    478. D(C  24,N  23,C  22,O  26)     -3.8926         0.031539   
    479. D(C  24,N  23,C  22,C  21)    179.6866         0.031539   
    480. D(H  70,C  24,N  23,H  69)   -133.5978         0.017114   
    481. D(H  70,C  24,N  23,C  22)     46.3444         0.017114   
    482. D(C  25,C  24,N  23,H  69)    107.0933         0.017114   
    483. D(C  25,C  24,N  23,C  22)    -72.9645         0.017114   
    484. D(C   7,C  24,N  23,H  69)    -12.3471         0.017114   
    485. D(C   7,C  24,N  23,C  22)    167.5951         0.017114   
    486. D(H  70,C  24,C   7,O   8)    148.7107         0.010942   
    487. D(H  70,C  24,C   7,N   6)    -34.9228         0.010942   
    488. D(C  25,C  24,C   7,O   8)    -91.7444         0.010942   
    489. D(C  25,C  24,C   7,N   6)     84.6221         0.010942   
    490. D(N  23,C  24,C   7,O   8)     29.4626         0.010942   
    491. D(N  23,C  24,C   7,N   6)   -154.1709         0.010942   
    492. D(H  73,C  25,C  24,H  70)   -179.7774         0.010135   
    493. D(H  73,C  25,C  24,N  23)    -60.6075         0.010135   
    494. D(H  73,C  25,C  24,C   7)     58.8250         0.010135   
    495. D(H  72,C  25,C  24,H  70)     59.2686         0.010135   
    496. D(H  72,C  25,C  24,N  23)    178.4385         0.010135   
    497. D(H  72,C  25,C  24,C   7)    -62.1291         0.010135   
    498. D(H  71,C  25,C  24,H  70)    -60.5029         0.010135   
    499. D(H  71,C  25,C  24,N  23)     58.6669         0.010135   
    500. D(H  71,C  25,C  24,C   7)    178.0994         0.010135   
    501. D(H  75,C  27,C  21,H  68)    171.5590         0.010467   
    502. D(H  75,C  27,C  21,C  22)    -73.3717         0.010467   
    503. D(H  75,C  27,C  21,N  20)     52.2532         0.010467   
    504. D(H  74,C  27,C  21,H  68)    -73.5002         0.010467   
    505. D(H  74,C  27,C  21,C  22)     41.5690         0.010467   
    506. D(H  74,C  27,C  21,N  20)    167.1939         0.010467   
    507. D(C  28,C  27,C  21,H  68)     48.8905         0.010467   
    508. D(C  28,C  27,C  21,C  22)    163.9597         0.010467   
    509. D(C  28,C  27,C  21,N  20)    -70.4154         0.010467   
    510. D(H  76,C  28,C  27,H  75)    -81.8665         0.010548   
    511. D(H  76,C  28,C  27,H  74)    161.1503         0.010548   
    512. D(H  76,C  28,C  27,C  21)     39.4493         0.010548   
    513. D(C  30,C  28,C  27,H  75)     35.8844         0.010548   
    514. D(C  30,C  28,C  27,H  74)    -81.0987         0.010548   
    515. D(C  30,C  28,C  27,C  21)    157.2002         0.010548   
    516. D(C  29,C  28,C  27,H  75)    159.4501         0.010548   
    517. D(C  29,C  28,C  27,H  74)     42.4670         0.010548   
    518. D(C  29,C  28,C  27,C  21)    -79.2341         0.010548   
    519. D(H  79,C  29,C  28,C  30)     57.2684         0.011034   
    520. D(H  79,C  29,C  28,C  27)    -66.1553         0.011034   
    521. D(H  78,C  29,C  28,H  76)     55.8625         0.011034   
    522. D(H  78,C  29,C  28,C  30)    -62.5158         0.011034   
    523. D(H  78,C  29,C  28,C  27)    174.0605         0.011034   
    524. D(H  77,C  29,C  28,H  76)    -64.6670         0.011034   
    525. D(H  77,C  29,C  28,C  30)    176.9548         0.011034   
    526. D(H  79,C  29,C  28,H  76)    175.6467         0.011034   
    527. D(H  77,C  29,C  28,C  27)     53.5310         0.011034   
    528. D(H  82,C  30,C  28,H  76)    -62.8517         0.010975   
    529. D(H  82,C  30,C  28,C  29)     55.8646         0.010975   
    530. D(H  82,C  30,C  28,C  27)    179.5480         0.010975   
    531. D(H  81,C  30,C  28,H  76)    177.6033         0.010975   
    532. D(H  81,C  30,C  28,C  29)    -63.6804         0.010975   
    533. D(H  81,C  30,C  28,C  27)     60.0030         0.010975   
    534. D(H  80,C  30,C  28,H  76)     57.7124         0.010975   
    535. D(H  80,C  30,C  28,C  29)    176.4286         0.010975   
    536. D(H  80,C  30,C  28,C  27)    -59.8879         0.010975   
    537. D(O  42,C  32,C  18,H  66)   -153.9368         0.010209   
    538. D(O  42,C  32,C  18,C  19)     88.2903         0.010209   
    539. D(O  42,C  32,C  18,C  17)    -35.8508         0.010209   
    540. D(C  33,C  32,C  18,H  66)     27.7103         0.010209   
    541. D(C  33,C  32,C  18,C  19)    -90.0626         0.010209   
    542. D(C  33,C  32,C  18,C  17)    145.7963         0.010209   
    543. D(H  84,C  33,C  32,O  42)     13.6750         0.011807   
    544. D(H  84,C  33,C  32,C  18)   -167.9844         0.011807   
    545. D(H  83,C  33,C  32,O  42)    131.2417         0.011807   
    546. D(H  83,C  33,C  32,C  18)    -50.4177         0.011807   
    547. D(C  34,C  33,C  32,O  42)   -107.3925         0.011807   
    548. D(C  34,C  33,C  32,C  18)     70.9480         0.011807   
    549. D(H  86,C  34,C  33,H  84)     59.5377         0.010004   
    550. D(H  86,C  34,C  33,H  83)    -59.7805         0.010004   
    551. D(H  86,C  34,C  33,C  32)    178.9329         0.010004   
    552. D(H  85,C  34,C  33,H  84)    174.7891         0.010004   
    553. D(H  85,C  34,C  33,H  83)     55.4708         0.010004   
    554. D(H  85,C  34,C  33,C  32)    -65.8158         0.010004   
    555. D(C  35,C  34,C  33,H  84)    -62.9802         0.010004   
    556. D(C  35,C  34,C  33,H  83)    177.7016         0.010004   
    557. D(C  35,C  34,C  33,C  32)     56.4150         0.010004   
    558. D(H  88,C  35,C  34,H  86)    179.4840         0.011150   
    559. D(H  88,C  35,C  34,H  85)     63.0406         0.011150   
    560. D(H  88,C  35,C  34,C  33)    -59.4361         0.011150   
    561. D(H  87,C  35,C  34,H  86)    -64.9374         0.011150   
    562. D(H  87,C  35,C  34,H  85)    178.6192         0.011150   
    563. D(H  87,C  35,C  34,C  33)     56.1425         0.011150   
    564. D(C  36,C  35,C  34,H  86)     57.7750         0.011150   
    565. D(C  36,C  35,C  34,H  85)    -58.6683         0.011150   
    566. D(C  36,C  35,C  34,C  33)    178.8549         0.011150   
    567. D(H  90,C  36,C  35,H  87)     47.4198         0.010897   
    568. D(H  90,C  36,C  35,C  34)    -75.3078         0.010897   
    569. D(H  89,C  36,C  35,H  88)    -81.3427         0.010897   
    570. D(H  89,C  36,C  35,H  87)    162.9051         0.010897   
    571. D(H  89,C  36,C  35,C  34)     40.1775         0.010897   
    572. D(C  37,C  36,C  35,H  88)     39.6214         0.010897   
    573. D(C  37,C  36,C  35,H  87)    -76.1308         0.010897   
    574. D(H  90,C  36,C  35,H  88)    163.1720         0.010897   
    575. D(C  37,C  36,C  35,C  34)    161.1416         0.010897   
    576. D(H  92,C  37,C  36,H  90)    -74.1529         0.010682   
    577. D(H  92,C  37,C  36,H  89)    170.2659         0.010682   
    578. D(H  92,C  37,C  36,C  35)     48.9566         0.010682   
    579. D(H  91,C  37,C  36,H  90)     41.8191         0.010682   
    580. D(H  91,C  37,C  36,H  89)    -73.7621         0.010682   
    581. D(H  91,C  37,C  36,C  35)    164.9286         0.010682   
    582. D(C  38,C  37,C  36,H  90)    163.5944         0.010682   
    583. D(C  38,C  37,C  36,H  89)     48.0132         0.010682   
    584. D(C  38,C  37,C  36,C  35)    -73.2961         0.010682   
    585. D(H  94,C  38,C  37,H  92)    176.2373         0.011022   
    586. D(H  94,C  38,C  37,H  91)     60.3792         0.011022   
    587. D(H  94,C  38,C  37,C  36)    -61.6121         0.011022   
    588. D(H  93,C  38,C  37,H  92)    -68.5079         0.011022   
    589. D(H  93,C  38,C  37,H  91)    175.6340         0.011022   
    590. D(H  93,C  38,C  37,C  36)     53.6427         0.011022   
    591. D(C  39,C  38,C  37,H  92)     55.3216         0.011022   
    592. D(C  39,C  38,C  37,H  91)    -60.5365         0.011022   
    593. D(C  39,C  38,C  37,C  36)    177.4722         0.011022   
    594. D(H  95,C  39,C  38,H  94)    -67.3857         0.011203   
    595. D(H  95,C  39,C  38,H  93)    177.7261         0.011203   
    596. D(H  95,C  39,C  38,C  37)     53.6691         0.011203   
    597. D(C  40,C  39,C  38,H  94)     54.6004         0.011203   
    598. D(C  40,C  39,C  38,H  93)    -60.2878         0.011203   
    599. D(C  40,C  39,C  38,C  37)    175.6552         0.011203   
    600. D(H  96,C  39,C  38,H  94)    176.8716         0.011203   
    601. D(H  96,C  39,C  38,H  93)     61.9834         0.011203   
    602. D(H  96,C  39,C  38,C  37)    -62.0736         0.011203   
    603. D(H  98,C  40,C  39,H  95)    -50.1703         0.010708   
    604. D(H  98,C  40,C  39,C  38)   -172.1037         0.010708   
    605. D(H  97,C  40,C  39,H  96)   -178.8914         0.010708   
    606. D(H  97,C  40,C  39,H  95)     65.2512         0.010708   
    607. D(H  97,C  40,C  39,C  38)    -56.6822         0.010708   
    608. D(C  41,C  40,C  39,H  96)    -56.7354         0.010708   
    609. D(C  41,C  40,C  39,H  95)   -172.5928         0.010708   
    610. D(H  98,C  40,C  39,H  96)     65.6872         0.010708   
    611. D(C  41,C  40,C  39,C  38)     65.4738         0.010708   
    612. D(H 101,C  41,C  40,H  98)    -63.5749         0.011027   
    613. D(H 101,C  41,C  40,H  97)   -179.4032         0.011027   
    614. D(H 101,C  41,C  40,C  39)     58.5502         0.011027   
    615. D(H 100,C  41,C  40,H  98)    176.3066         0.011027   
    616. D(H 100,C  41,C  40,H  97)     60.4784         0.011027   
    617. D(H 100,C  41,C  40,C  39)    -61.5683         0.011027   
    618. D(H  99,C  41,C  40,H  98)     56.1168         0.011027   
    619. D(H  99,C  41,C  40,H  97)    -59.7115         0.011027   
    620. D(H  99,C  41,C  40,C  39)    178.2418         0.011027   
    621. D(H 102,O  43,C  17,H  65)     77.9509         0.021195   
    622. D(H 102,O  43,C  17,C  18)    -40.9359         0.021195   
    623. D(H 102,O  43,C  17,C  16)   -165.5277         0.021195   
    624. D(H 104,C  45,C  13,H  61)     65.0974         0.010746   
    625. D(H 104,C  45,C  13,C  14)   -172.8541         0.010746   
    626. D(H 104,C  45,C  13,N  12)    -56.6268         0.010746   
    627. D(H 103,C  45,C  13,H  61)   -178.6501         0.010746   
    628. D(H 103,C  45,C  13,C  14)    -56.6016         0.010746   
    629. D(H 103,C  45,C  13,N  12)     59.6257         0.010746   
    630. D(C  46,C  45,C  13,H  61)    -56.7673         0.010746   
    631. D(C  46,C  45,C  13,C  14)     65.2812         0.010746   
    632. D(C  46,C  45,C  13,N  12)   -178.4915         0.010746   
    633. D(H 107,C  46,C  45,H 104)    -60.4573         0.011290   
    634. D(H 107,C  46,C  45,H 103)    179.6009         0.011290   
    635. D(H 107,C  46,C  45,C  13)     59.6303         0.011290   
    636. D(H 106,C  46,C  45,H 104)    179.0440         0.011290   
    637. D(H 106,C  46,C  45,H 103)     59.1023         0.011290   
    638. D(H 106,C  46,C  45,C  13)    -60.8683         0.011290   
    639. D(H 105,C  46,C  45,H 104)     59.2093         0.011290   
    640. D(H 105,C  46,C  45,H 103)    -60.7325         0.011290   
    641. D(H 105,C  46,C  45,C  13)    179.2969         0.011290   
    642. D(H 108,C  48,C  10,H  59)    174.1438         0.009830   
    643. D(H 108,C  48,C  10,C  11)    -69.1744         0.009830   
    644. D(H 108,C  48,C  10,N   9)     55.9732         0.009830   
    645. D(C  50,C  48,C  10,H  59)    -67.5772         0.009830   
    646. D(C  50,C  48,C  10,C  11)     49.1045         0.009830   
    647. D(C  50,C  48,C  10,N   9)    174.2522         0.009830   
    648. D(C  49,C  48,C  10,H  59)     56.3355         0.009830   
    649. D(C  49,C  48,C  10,C  11)    173.0172         0.009830   
    650. D(C  49,C  48,C  10,N   9)    -61.8352         0.009830   
    651. D(H 111,C  49,C  48,C  50)     60.4647         0.010817   
    652. D(H 111,C  49,C  48,C  10)    -64.7860         0.010817   
    653. D(H 110,C  49,C  48,H 108)     59.5309         0.010817   
    654. D(H 110,C  49,C  48,C  50)    -58.6934         0.010817   
    655. D(H 110,C  49,C  48,C  10)    176.0559         0.010817   
    656. D(H 109,C  49,C  48,H 108)    -61.1668         0.010817   
    657. D(H 109,C  49,C  48,C  50)   -179.3911         0.010817   
    658. D(H 111,C  49,C  48,H 108)    178.6890         0.010817   
    659. D(H 109,C  49,C  48,C  10)     55.3582         0.010817   
    660. D(H 114,C  50,C  48,H 108)    -63.9726         0.011066   
    661. D(H 114,C  50,C  48,C  49)     54.7275         0.011066   
    662. D(H 114,C  50,C  48,C  10)    178.5052         0.011066   
    663. D(H 113,C  50,C  48,H 108)    176.6932         0.011066   
    664. D(H 113,C  50,C  48,C  49)    -64.6068         0.011066   
    665. D(H 113,C  50,C  48,C  10)     59.1709         0.011066   
    666. D(H 112,C  50,C  48,H 108)     56.6754         0.011066   
    667. D(H 112,C  50,C  48,C  49)    175.3755         0.011066   
    668. D(H 112,C  50,C  48,C  10)    -60.8468         0.011066   
    -----------------------------------------------------------------

Number of atoms                         .... 115
Number of degrees of freedom            .... 668

         *************************************************************
         *                GEOMETRY OPTIMIZATION CYCLE   1            *
         *************************************************************
---------------------------------
CARTESIAN COORDINATES (ANGSTROEM)
---------------------------------
  O      6.637703   -0.323108    1.186835
  C      5.558883   -0.062725    1.711402
  C      5.137240    1.404669    1.886385
  C      5.909569    2.097011    3.027508
  C      4.939645    2.025850    4.215013
  C      3.577678    2.281998    3.563618
  N      3.722373    1.633064    2.245799
  C      2.754918    1.453919    1.307585
  O      2.999821    0.852895    0.248086
  N      4.698716   -1.007976    2.180494
  C      4.901332   -2.430191    1.937853
  C      4.530859   -2.846981    0.494534
  N      3.539392   -2.102756   -0.069341
  C      3.003927   -2.366558   -1.404819
  C      2.016422   -1.222067   -1.656653
  N      2.361552   -0.306083   -2.584288
  C      1.740768    1.011309   -2.698021
  C      0.662151    1.158320   -3.778352
  C     -0.703951    0.517360   -3.394206
  C     -1.333029    1.136996   -2.118154
  N     -1.406644    0.263150   -1.073613
  C     -1.898940    0.636821    0.244002
  C     -0.934021    1.501139    1.075115
  N      0.391808    1.315688    0.833106
  C      1.389667    2.082351    1.554721
  C      1.429694    3.548650    1.073297
  O     -1.358093    2.259469    1.948672
  C     -2.212355   -0.642707    1.039884
  C     -3.441361   -1.418878    0.537425
  C     -4.739592   -0.774570    1.032131
  C     -3.363654   -2.888100    0.965215
  O     -1.761349    2.287079   -2.087621
  C     -1.699881    0.679191   -4.548635
  C     -2.708340   -0.422279   -4.786445
  C     -3.790051   -0.473434   -3.683437
  C     -4.541908    0.847228   -3.506768
  C     -5.629979    0.772905   -2.429091
  C     -6.071588    2.151282   -1.914546
  C     -5.023631    2.806434   -1.009947
  C     -5.394158    4.207757   -0.522552
  C     -4.375716    4.795356    0.465435
  C     -2.996364    5.058400   -0.145901
  O     -1.692803    1.693441   -5.238434
  O      0.575115    2.546691   -4.017301
  O      0.980817   -1.151058   -0.975286
  C      2.280468   -3.717839   -1.492504
  C      1.758866   -3.996304   -2.901598
  O      5.053385   -3.821838   -0.041493
  C      4.105178   -3.240849    2.989669
  C      4.619857   -2.927252    4.400656
  C      4.144376   -4.749027    2.729178
  H      5.340135    1.864139    0.909180
  H      6.104906    3.144855    2.757587
  H      6.874132    1.609629    3.209094
  H      4.959034    1.021472    4.663962
  H      5.165206    2.753963    5.003659
  H      2.739382    1.847975    4.123777
  H      3.390337    3.362284    3.448060
  H      3.803312   -0.695855    2.547497
  H      5.976343   -2.639653    2.035026
  H      3.337208   -1.182672    0.327470
  H      3.827056   -2.349525   -2.142670
  H      3.260984   -0.438649   -3.035944
  H      2.531116    1.730625   -2.948479
  H      1.343591    1.297601   -1.717854
  H      1.007442    0.618137   -4.687324
  H     -0.540501   -0.556738   -3.219156
  H     -0.772517   -0.539536   -1.117167
  H     -2.798065    1.254283    0.114951
  H      0.716404    0.634907    0.141506
  H      1.127489    2.071816    2.623900
  H      0.437796    3.991640    1.219293
  H      2.166234    4.136630    1.638670
  H      1.685775    3.585270    0.006431
  H     -2.359191   -0.364891    2.095326
  H     -1.316641   -1.286407    1.003437
  H     -3.431688   -1.384913   -0.566476
  H     -4.788780    0.293742    0.781037
  H     -5.621175   -1.261563    0.591142
  H     -4.816698   -0.861906    2.127399
  H     -2.464616   -3.376060    0.560643
  H     -3.327249   -2.973073    2.063087
  H     -4.242430   -3.450551    0.617449
  H     -2.183651   -1.390781   -4.827646
  H     -3.173673   -0.232365   -5.763786
  H     -3.326659   -0.756173   -2.724792
  H     -4.492538   -1.283771   -3.937928
  H     -4.989595    1.152819   -4.467478
  H     -3.822523    1.637101   -3.244722
  H     -5.252378    0.185244   -1.574891
  H     -6.497129    0.215273   -2.820153
  H     -7.019340    2.052260   -1.359050
  H     -6.287007    2.812574   -2.772460
  H     -4.051928    2.840595   -1.524211
  H     -4.873163    2.161599   -0.124859
  H     -6.388437    4.174008   -0.043812
  H     -5.493794    4.882262   -1.391808
  H     -4.267276    4.106324    1.320580
  H     -4.779480    5.735399    0.876815
  H     -2.319217    5.506369    0.595684
  H     -2.524134    4.136899   -0.511946
  H     -3.069962    5.753020   -0.997662
  H     -0.262307    2.672476   -4.522482
  H      1.453915   -3.697844   -0.767192
  H      2.989374   -4.495088   -1.180804
  H      1.255967   -4.971471   -2.947623
  H      1.032544   -3.234172   -3.223996
  H      2.578670   -4.011158   -3.635708
  H      3.051535   -2.909314    2.914254
  H      4.595066   -1.851871    4.624744
  H      4.012644   -3.445937    5.155644
  H      5.660438   -3.268136    4.512091
  H      3.707578   -5.015275    1.759886
  H      5.179703   -5.119521    2.734734
  H      3.587820   -5.275117    3.517823

----------------------------
CARTESIAN COORDINATES (A.U.)
----------------------------
  NO LB      ZA    FRAG     MASS         X           Y           Z
   0 O     8.0000    0    15.999   12.543441   -0.610587    2.242794
   1 C     6.0000    0    12.011   10.504767   -0.118533    3.234081
   2 C     6.0000    0    12.011    9.707976    2.654439    3.564751
   3 C     6.0000    0    12.011   11.167467    3.962777    5.721160
   4 C     6.0000    0    12.011    9.334577    3.828301    7.965221
   5 C     6.0000    0    12.011    6.760832    4.312351    6.734263
   6 N     7.0000    0    14.007    7.034266    3.086045    4.243946
   7 C     6.0000    0    12.011    5.206041    2.747508    2.470977
   8 O     8.0000    0    15.999    5.668841    1.611737    0.468815
   9 N     7.0000    0    14.007    8.879287   -1.904798    4.120537
  10 C     6.0000    0    12.011    9.262175   -4.592396    3.662011
  11 C     6.0000    0    12.011    8.562084   -5.380014    0.934534
  12 N     7.0000    0    14.007    6.688482   -3.973634   -0.131035
  13 C     6.0000    0    12.011    5.676600   -4.472146   -2.654723
  14 C     6.0000    0    12.011    3.810485   -2.309372   -3.130621
  15 N     7.0000    0    14.007    4.462686   -0.578413   -4.883597
  16 C     6.0000    0    12.011    3.289574    1.911098   -5.098520
  17 C     6.0000    0    12.011    1.251284    2.188908   -7.140051
  18 C     6.0000    0    12.011   -1.330274    0.977669   -6.414119
  19 C     6.0000    0    12.011   -2.519059    2.148611   -4.002730
  20 N     7.0000    0    14.007   -2.658173    0.497282   -2.028834
  21 C     6.0000    0    12.011   -3.588476    1.203418    0.461097
  22 C     6.0000    0    12.011   -1.765045    2.836741    2.031672
  23 N     7.0000    0    14.007    0.740411    2.486289    1.574341
  24 C     6.0000    0    12.011    2.626090    3.935073    2.937996
  25 C     6.0000    0    12.011    2.701729    6.705977    2.028237
  26 O     8.0000    0    15.999   -2.566424    4.269777    3.682456
  27 C     6.0000    0    12.011   -4.180745   -1.214541    1.965097
  28 C     6.0000    0    12.011   -6.503231   -2.681290    1.015586
  29 C     6.0000    0    12.011   -8.956530   -1.463725    1.950445
  30 C     6.0000    0    12.011   -6.356385   -5.457718    1.823991
  31 O     8.0000    0    15.999   -3.328467    4.321954   -3.945032
  32 C     6.0000    0    12.011   -3.212310    1.283485   -8.595674
  33 C     6.0000    0    12.011   -5.118022   -0.797992   -9.045071
  34 C     6.0000    0    12.011   -7.162159   -0.894660   -6.960686
  35 C     6.0000    0    12.011   -8.582962    1.601029   -6.626831
  36 C     6.0000    0    12.011  -10.639118    1.460578   -4.590317
  37 C     6.0000    0    12.011  -11.473639    4.065334   -3.617968
  38 C     6.0000    0    12.011   -9.493286    5.303392   -1.908523
  39 C     6.0000    0    12.011  -10.193481    7.951509   -0.987481
  40 C     6.0000    0    12.011   -8.268905    9.061910    0.879545
  41 C     6.0000    0    12.011   -5.662307    9.558991   -0.275714
  42 O     8.0000    0    15.999   -3.198934    3.200139   -9.899206
  43 O     8.0000    0    15.999    1.086809    4.812548   -7.591599
  44 O     8.0000    0    15.999    1.853475   -2.175185   -1.843024
  45 C     6.0000    0    12.011    4.309460   -7.025697   -2.820423
  46 C     6.0000    0    12.011    3.323774   -7.551920   -5.483225
  47 O     8.0000    0    15.999    9.549513   -7.222227   -0.078410
  48 C     6.0000    0    12.011    7.757663   -6.124318    5.649655
  49 C     6.0000    0    12.011    8.730265   -5.531706    8.316035
  50 C     6.0000    0    12.011    7.831735   -8.974360    5.157398
  51 H     1.0000    0     1.008   10.091393    3.522713    1.718101
  52 H     1.0000    0     1.008   11.536600    5.942914    5.211085
  53 H     1.0000    0     1.008   12.990227    3.041758    6.064309
  54 H     1.0000    0     1.008    9.371216    1.930302    8.813611
  55 H     1.0000    0     1.008    9.760825    5.204237    9.455545
  56 H     1.0000    0     1.008    5.176682    3.492166    7.792809
  57 H     1.0000    0     1.008    6.406808    6.353797    6.515889
  58 H     1.0000    0     1.008    7.187218   -1.314975    4.814072
  59 H     1.0000    0     1.008   11.293651   -4.988220    3.845641
  60 H     1.0000    0     1.008    6.306409   -2.234927    0.618829
  61 H     1.0000    0     1.008    7.232087   -4.439959   -4.049060
  62 H     1.0000    0     1.008    6.162367   -0.828927   -5.737102
  63 H     1.0000    0     1.008    4.783116    3.270408   -5.571818
  64 H     1.0000    0     1.008    2.539020    2.452110   -3.246274
  65 H     1.0000    0     1.008    1.903789    1.168110   -8.857759
  66 H     1.0000    0     1.008   -1.021399   -1.052082   -6.083323
  67 H     1.0000    0     1.008   -1.459845   -1.019575   -2.111140
  68 H     1.0000    0     1.008   -5.287576    2.370250    0.217225
  69 H     1.0000    0     1.008    1.353807    1.199801    0.267407
  70 H     1.0000    0     1.008    2.130646    3.915166    4.958452
  71 H     1.0000    0     1.008    0.827314    7.543107    2.304130
  72 H     1.0000    0     1.008    4.093588    7.817097    3.096637
  73 H     1.0000    0     1.008    3.185653    6.775178    0.012152
  74 H     1.0000    0     1.008   -4.458225   -0.689544    3.959592
  75 H     1.0000    0     1.008   -2.488091   -2.430957    1.896222
  76 H     1.0000    0     1.008   -6.484950   -2.617106   -1.070485
  77 H     1.0000    0     1.008   -9.049482    0.555092    1.475945
  78 H     1.0000    0     1.008  -10.622482   -2.384008    1.117096
  79 H     1.0000    0     1.008   -9.102240   -1.628766    4.020202
  80 H     1.0000    0     1.008   -4.657449   -6.379829    1.059462
  81 H     1.0000    0     1.008   -6.287589   -5.618293    3.898670
  82 H     1.0000    0     1.008   -8.017031   -6.520596    1.166810
  83 H     1.0000    0     1.008   -4.126502   -2.628195   -9.122929
  84 H     1.0000    0     1.008   -5.997372   -0.439106  -10.891976
  85 H     1.0000    0     1.008   -6.286474   -1.428960   -5.149111
  86 H     1.0000    0     1.008   -8.489667   -2.425975   -7.441605
  87 H     1.0000    0     1.008   -9.428968    2.178512   -8.442310
  88 H     1.0000    0     1.008   -7.223522    3.093672   -6.131636
  89 H     1.0000    0     1.008   -9.925556    0.350060   -2.976114
  90 H     1.0000    0     1.008  -12.277794    0.406807   -5.329317
  91 H     1.0000    0     1.008  -13.264631    3.878210   -2.568231
  92 H     1.0000    0     1.008  -11.880721    5.314996   -5.239189
  93 H     1.0000    0     1.008   -7.657033    5.367947   -2.880341
  94 H     1.0000    0     1.008   -9.208943    4.084831   -0.235949
  95 H     1.0000    0     1.008  -12.072396    7.887732   -0.082792
  96 H     1.0000    0     1.008  -10.381766    9.226139   -2.630136
  97 H     1.0000    0     1.008   -8.063983    7.759827    2.495535
  98 H     1.0000    0     1.008   -9.031909   10.838334    1.656940
  99 H     1.0000    0     1.008   -4.382685   10.405530    1.125680
 100 H     1.0000    0     1.008   -4.769923    7.817607   -0.967438
 101 H     1.0000    0     1.008   -5.801387   10.871632   -1.885308
 102 H     1.0000    0     1.008   -0.495689    5.050249   -8.546252
 103 H     1.0000    0     1.008    2.747500   -6.987913   -1.449783
 104 H     1.0000    0     1.008    5.649098   -8.494486   -2.231396
 105 H     1.0000    0     1.008    2.373433   -9.394718   -5.570200
 106 H     1.0000    0     1.008    1.951226   -6.111699   -6.092469
 107 H     1.0000    0     1.008    4.872981   -7.579991   -6.870492
 108 H     1.0000    0     1.008    5.766565   -5.497807    5.507141
 109 H     1.0000    0     1.008    8.683417   -3.499528    8.739499
 110 H     1.0000    0     1.008    7.582799   -6.511877    9.742756
 111 H     1.0000    0     1.008   10.696678   -6.175881    8.526617
 112 H     1.0000    0     1.008    7.006306   -9.477497    3.325703
 113 H     1.0000    0     1.008    9.788221   -9.674492    5.167898
 114 H     1.0000    0     1.008    6.779997   -9.968527    6.647722

--------------------------------
INTERNAL COORDINATES (ANGSTROEM)
--------------------------------
 O      0   0   0     0.000000000000     0.00000000     0.00000000
 C      1   0   0     1.227526685628     0.00000000     0.00000000
 C      2   1   0     1.536764960052   119.49426254     0.00000000
 C      3   2   1     1.542073770365   112.05798307   285.35399260
 C      4   3   2     1.534922172334   103.60368518   261.77499197
 C      5   4   3     1.531300799397   103.01275002   321.20720545
 N      6   5   4     1.476041371754   102.65369005    34.69593058
 C      7   6   5     1.359525058137   127.17873647   173.28090762
 O      8   7   6     1.242475448139   120.79387145   182.14715095
 N      2   1   3     1.361408768377   123.72762878   181.15721407
 C     10   2   1     1.456922925547   122.17621408   351.45819857
 C     11  10   2     1.547298306479   112.64392883   283.93550609
 N     12  11  10     1.361922370214   114.41320859   329.59949870
 C     13  12  11     1.462810928674   123.08790763   182.51826462
 C     14  13  12     1.532464222907   104.55008570   184.81199225
 N     15  14  13     1.348572636457   117.09004265   110.18965296
 C     16  15  14     1.460763710849   123.87314544   197.13954478
 C     17  16  15     1.533669600428   116.11478803   260.40019579
 C     18  17  16     1.557123223320   113.81453504    76.24422809
 C     19  18  17     1.551772090983   113.21372038    60.42226969
 N     20  19  18     1.363851766332   113.31783918   245.94497377
 C     21  20  19     1.455366878613   123.17073825   176.91838231
 C     22  21  20     1.539110103917   114.89787072   286.09001489
 N     23  22  21     1.360435682757   116.00011599   330.60024432
 C     24  23  22     1.450593814554   120.65439846   179.68656005
 C     25  24  23     1.543828112137   111.38806378   287.03547764
 O     23  22  21     1.232072695308   120.84513940   154.09417940
 C     22  21  20     1.539107447914   108.88032403   164.34831383
 C     28  22  21     1.537973744601   114.41490735   289.58464738
 C     29  28  22     1.531426915724   111.07321083   280.76591436
 C     29  28  22     1.532206641585   110.62089995   157.20021008
 O     20  19  18     1.227632610453   122.41025609    68.47663927
 C     19  18  17     1.533223171238   109.91831388   181.64999044
 C     33  19  18     1.512210240353   118.34039938   145.79634167
 C     34  33  19     1.545749959185   112.24493408    70.94803207
 C     35  34  33     1.529917768295   113.43690041    56.41503414
 C     36  35  34     1.533235107887   112.83456994   178.85492938
 C     37  36  35     1.536131191230   113.32544206   161.14155476
 C     38  37  36     1.531580555507   112.64169608   286.70392456
 C     39  38  37     1.529232092536   114.48412758   177.47218827
 C     40  39  38     1.535778229486   113.26369336   175.65518143
 C     41  40  39     1.531514964120   113.96504788    65.47379639
 O     33  19  18     1.226611736996   120.46110838   324.14924404
 O     18  17  16     1.411468679185   104.88648400   200.39139456
 O     15  14  13     1.241684389378   119.33895774   292.95544098
 C     14  13  12     1.535266487622   112.54213406    65.28354573
 C     46  14  13     1.528122359652   111.95637979   181.50852144
 O     12  11  10     1.229107020838   121.24246854   153.52387593
 C     11  10   2     1.548336087537   109.05331362   159.34785374
 C     49  11  10     1.534315231621   110.19519946   298.16482942
 C     49  11  10     1.531010113142   112.76874777   174.25217540
 H      3   2   1     1.098731117084   104.32187768    46.97391469
 H      4   3   2     1.099540448362   109.58335763   144.10810666
 H      4   3   2     1.095854550183   111.33215655    24.76367435
 H      5   4   3     1.100320313080   110.29475083    78.57043845
 H      5   4   3     1.096808737538   113.30086839   199.76418509
 H      6   5   4     1.097676718818   113.33009381   154.35857846
 H      6   5   4     1.102483197822   111.07752193   276.32265455
 H     10   2   1     1.016788951757   117.88050743   183.66173143
 H     11  10   2     1.099529568948   107.89139880    39.82525686
 H     13  12  11     1.022199604186   118.36785984    19.86078098
 H     14  13  12     1.105556378858   109.51112509   303.82519065
 H     16  15  14     1.015157810480   116.36508405   359.05774110
 H     17  16  15     1.097631679563   107.62463267   141.30488407
 H     17  16  15     1.095644686548   108.66630347    25.65721041
 H     18  17  16     1.112318955382   108.10529856   318.89246663
 H     19  18  17     1.100474929071   108.10150935   300.05546809
 H     21  20  19     1.023875159640   115.86770451    20.92746293
 H     22  21  20     1.098334411517   108.35330569    43.29053014
 H     24  23  22     1.023295985785   121.33593762   359.62679502
 H     25  24  23     1.100905226040   108.31541910    46.34436173
 H     26  25  24     1.096091591864   108.59399099    58.66693598
 H     26  25  24     1.099025941064   111.41313411   178.43845948
 H     26  25  24     1.097780424528   109.92482781   299.39250695
 H     28  22  21     1.101226326437   108.24183395   167.19389487
 H     28  22  21     1.103622018305   107.61030939    52.25316523
 H     29  28  22     1.104465695346   107.69899458    39.44927264
 H     30  29  28     1.098525917641   111.91758567    53.53102883
 H     30  29  28     1.099465285420   111.33436696   174.06047471
 H     30  29  28     1.101446623590   110.31668552   293.84468343
 H     31  29  28     1.100023941026   111.35345467   300.11208752
 H     31  29  28     1.101757626956   110.72261039    60.00302156
 H     31  29  28     1.099790326140   111.19750681   179.54800802
 H     34  33  19     1.102266978721   109.17347054   309.58225359
 H     34  33  19     1.098997658522   107.23840053   192.01559331
 H     35  34  33     1.101668525613   109.57708113   294.18424963
 H     35  34  33     1.102224867679   107.79298252   178.93288171
 H     36  35  34     1.103074832764   109.75642727    56.14247708
 H     36  35  34     1.100036589944   109.02359796   300.56388647
 H     37  36  35     1.103442157835   109.09184921    40.17747864
 H     37  36  35     1.102647479102   109.47079881   284.69219033
 H     38  37  36     1.103003186124   109.58204594   164.92861732
 H     38  37  36     1.104412876242   109.46044745    48.95661920
 H     39  38  37     1.099928158382   109.97482146    53.64270314
 H     39  38  37     1.105365704244   108.45314927   298.38790836
 H     40  39  38     1.104048335086   109.17155989    53.66910559
 H     40  39  38     1.104757871298   109.30237778   297.92636380
 H     41  40  39     1.103539017971   108.95238789   303.31777624
 H     41  40  39     1.102696552926   108.86578648   187.89631165
 H     42  41  40     1.099614991331   110.81725074   178.24184239
 H     42  41  40     1.098249873839   112.09809657   298.43170878
 H     42  41  40     1.101548711398   110.90290308    58.55016731
 H     44  18  17     0.986055454810   105.34187716   194.47230228
 H     46  14  13     1.099848829839   107.48579146    59.62570070
 H     46  14  13     1.097187835471   107.62682419   303.37315540
 H     47  46  14     1.098169005760   110.90224349   179.29691558
 H     47  46  14     1.101057881418   111.65582339   299.13165095
 H     47  46  14     1.100553467541   111.30167607    59.63032268
 H     49  11  10     1.107144069546   106.63633983    55.97319319
 H     50  49  11     1.098761206400   112.33515740    55.35820181
 H     50  49  11     1.098975755441   110.48513794   176.05590143
 H     50  49  11     1.100648955217   110.30051283   295.21399192
 H     51  49  11     1.095995520897   112.30738413   299.15319841
 H     51  49  11     1.099636378639   110.80231335    59.17092035
 H     51  49  11     1.099312076851   109.65793610   178.50519600

---------------------------
INTERNAL COORDINATES (A.U.)
---------------------------
 O      0   0   0     0.000000000000     0.00000000     0.00000000
 C      1   0   0     2.319689257917     0.00000000     0.00000000
 C      2   1   0     2.904064906705   119.49426254     0.00000000
 C      3   2   1     2.914097104294   112.05798307   285.35399260
 C      4   3   2     2.900582542594   103.60368518   261.77499197
 C      5   4   3     2.893739139516   103.01275002   321.20720545
 N      6   5   4     2.789313954952   102.65369005    34.69593058
 C      7   6   5     2.569130032083   127.17873647   173.28090762
 O      8   7   6     2.347938325104   120.79387145   182.14715095
 N      2   1   3     2.572689728551   123.72762878   181.15721407
 C     10   2   1     2.753185327515   122.17621408   351.45819857
 C     11  10   2     2.923970046726   112.64392883   283.93550609
 N     12  11  10     2.573660295365   114.41320859   329.59949870
 C     13  12  11     2.764312040901   123.08790763   182.51826462
 C     14  13  12     2.895937691326   104.55008570   184.81199225
 N     15  14  13     2.548432954604   117.09004265   110.18965296
 C     16  15  14     2.760443359875   123.87314544   197.13954478
 C     17  16  15     2.898215524730   116.11478803   260.40019579
 C     18  17  16     2.942536448843   113.81453504    76.24422809
 C     19  18  17     2.932424274220   113.21372038    60.42226969
 N     20  19  18     2.577306325633   113.31783918   245.94497377
 C     21  20  19     2.750244824959   123.17073825   176.91838231
 C     22  21  20     2.908496586354   114.89787072   286.09001489
 N     23  22  21     2.570850863225   116.00011599   330.60024432
 C     24  23  22     2.741225041067   120.65439846   179.68656005
 C     25  24  23     2.917412329788   111.38806378   287.03547764
 O     23  22  21     2.328279971214   120.84513940   154.09417940
 C     22  21  20     2.908491567236   108.88032403   164.34831383
 C     28  22  21     2.906349178457   114.41490735   289.58464738
 C     29  28  22     2.893977464835   111.07321083   280.76591436
 C     29  28  22     2.895450933171   110.62089995   157.20021008
 O     20  19  18     2.319889426826   122.41025609    68.47663927
 C     19  18  17     2.897371895822   109.91831388   181.64999044
 C     33  19  18     2.857663211179   118.34039938   145.79634167
 C     34  33  19     2.921044094380   112.24493408    70.94803207
 C     35  34  33     2.891125589497   113.43690041    56.41503414
 C     36  35  34     2.897394452819   112.83456994   178.85492938
 C     37  36  35     2.902867257198   113.32544206   161.14155476
 C     38  37  36     2.894267801946   112.64169608   286.70392456
 C     39  38  37     2.889829850096   114.48412758   177.47218827
 C     40  39  38     2.902200256167   113.26369336   175.65518143
 C     41  40  39     2.894143852189   113.96504788    65.47379639
 O     33  19  18     2.317960255577   120.46110838   324.14924404
 O     18  17  16     2.667289250267   104.88648400   200.39139456
 O     15  14  13     2.346443440690   119.33895774   292.95544098
 C     14  13  12     2.901233204193   112.54213406    65.28354573
 C     46  14  13     2.887732758864   111.95637979   181.50852144
 O     12  11  10     2.322675658664   121.24246854   153.52387593
 C     11  10   2     2.925931168713   109.05331362   159.34785374
 C     49  11  10     2.899435590867   110.19519946   298.16482942
 C     49  11  10     2.893189822103   112.76874777   174.25217540
 H      3   2   1     2.076300906107   104.32187768    46.97391469
 H      4   3   2     2.077830320573   109.58335763   144.10810666
 H      4   3   2     2.070864982457   111.33215655    24.76367435
 H      5   4   3     2.079304051312   110.29475083    78.57043845
 H      5   4   3     2.072668135239   113.30086839   199.76418509
[...]
freq.      84.09  E(vib)   ...       0.48 
freq.      87.10  E(vib)   ...       0.48 
freq.      90.22  E(vib)   ...       0.47 
freq.      99.70  E(vib)   ...       0.46 
freq.     110.12  E(vib)   ...       0.45 
freq.     111.72  E(vib)   ...       0.45 
freq.     115.85  E(vib)   ...       0.44 
freq.     117.08  E(vib)   ...       0.44 
freq.     121.44  E(vib)   ...       0.44 
freq.     126.86  E(vib)   ...       0.43 
freq.     128.90  E(vib)   ...       0.43 
freq.     141.27  E(vib)   ...       0.41 
freq.     143.42  E(vib)   ...       0.41 
freq.     153.75  E(vib)   ...       0.40 
freq.     158.84  E(vib)   ...       0.39 
freq.     163.86  E(vib)   ...       0.39 
freq.     164.91  E(vib)   ...       0.39 
freq.     169.71  E(vib)   ...       0.38 
freq.     179.50  E(vib)   ...       0.37 
freq.     183.94  E(vib)   ...       0.37 
freq.     189.57  E(vib)   ...       0.36 
freq.     196.29  E(vib)   ...       0.36 
freq.     201.70  E(vib)   ...       0.35 
freq.     204.13  E(vib)   ...       0.35 
freq.     211.08  E(vib)   ...       0.34 
freq.     216.97  E(vib)   ...       0.34 
freq.     221.34  E(vib)   ...       0.33 
freq.     225.17  E(vib)   ...       0.33 
freq.     228.51  E(vib)   ...       0.32 
freq.     237.06  E(vib)   ...       0.32 
freq.     238.94  E(vib)   ...       0.32 
freq.     241.03  E(vib)   ...       0.31 
freq.     251.04  E(vib)   ...       0.30 
freq.     254.06  E(vib)   ...       0.30 
freq.     255.32  E(vib)   ...       0.30 
freq.     262.51  E(vib)   ...       0.29 
freq.     268.98  E(vib)   ...       0.29 
freq.     283.95  E(vib)   ...       0.28 
freq.     287.15  E(vib)   ...       0.27 
freq.     290.82  E(vib)   ...       0.27 
freq.     299.12  E(vib)   ...       0.26 
freq.     306.68  E(vib)   ...       0.26 
freq.     319.62  E(vib)   ...       0.25 
freq.     325.25  E(vib)   ...       0.24 
freq.     328.63  E(vib)   ...       0.24 
freq.     339.97  E(vib)   ...       0.23 
freq.     345.36  E(vib)   ...       0.23 
freq.     349.80  E(vib)   ...       0.23 
freq.     356.29  E(vib)   ...       0.22 
freq.     368.55  E(vib)   ...       0.21 
freq.     379.69  E(vib)   ...       0.21 
freq.     386.06  E(vib)   ...       0.20 
freq.     388.67  E(vib)   ...       0.20 
freq.     405.55  E(vib)   ...       0.19 
freq.     415.91  E(vib)   ...       0.18 
freq.     417.09  E(vib)   ...       0.18 
freq.     424.82  E(vib)   ...       0.18 
freq.     440.21  E(vib)   ...       0.17 
freq.     446.26  E(vib)   ...       0.17 
freq.     456.53  E(vib)   ...       0.16 
freq.     466.00  E(vib)   ...       0.16 
freq.     469.91  E(vib)   ...       0.16 
freq.     485.33  E(vib)   ...       0.15 
freq.     494.96  E(vib)   ...       0.14 
freq.     520.82  E(vib)   ...       0.13 
freq.     527.88  E(vib)   ...       0.13 
freq.     540.27  E(vib)   ...       0.12 
freq.     551.78  E(vib)   ...       0.12 
freq.     561.34  E(vib)   ...       0.11 
freq.     569.07  E(vib)   ...       0.11 
freq.     576.39  E(vib)   ...       0.11 
freq.     593.22  E(vib)   ...       0.10 
freq.     606.58  E(vib)   ...       0.10 
freq.     609.40  E(vib)   ...       0.10 
freq.     619.60  E(vib)   ...       0.09 
freq.     627.35  E(vib)   ...       0.09 
freq.     646.12  E(vib)   ...       0.09 
freq.     663.26  E(vib)   ...       0.08 
freq.     677.56  E(vib)   ...       0.08 
freq.     684.35  E(vib)   ...       0.07 
freq.     704.02  E(vib)   ...       0.07 
freq.     710.80  E(vib)   ...       0.07 
freq.     720.59  E(vib)   ...       0.07 
freq.     723.70  E(vib)   ...       0.06 
freq.     729.16  E(vib)   ...       0.06 
freq.     734.71  E(vib)   ...       0.06 
freq.     741.41  E(vib)   ...       0.06 
freq.     749.45  E(vib)   ...       0.06 
freq.     752.17  E(vib)   ...       0.06 
freq.     754.06  E(vib)   ...       0.06 
freq.     765.95  E(vib)   ...       0.06 
freq.     795.56  E(vib)   ...       0.05 
freq.     802.40  E(vib)   ...       0.05 
freq.     804.37  E(vib)   ...       0.05 
freq.     813.17  E(vib)   ...       0.05 
freq.     817.62  E(vib)   ...       0.05 
freq.     824.50  E(vib)   ...       0.04 
freq.     832.25  E(vib)   ...       0.04 
freq.     852.43  E(vib)   ...       0.04 
freq.     858.31  E(vib)   ...       0.04 
freq.     860.73  E(vib)   ...       0.04 
freq.     865.87  E(vib)   ...       0.04 
freq.     869.97  E(vib)   ...       0.04 
freq.     871.53  E(vib)   ...       0.04 
freq.     877.86  E(vib)   ...       0.04 
freq.     879.60  E(vib)   ...       0.04 
freq.     891.96  E(vib)   ...       0.03 
freq.     898.52  E(vib)   ...       0.03 
freq.     905.37  E(vib)   ...       0.03 
freq.     908.62  E(vib)   ...       0.03 
freq.     911.38  E(vib)   ...       0.03 
freq.     915.81  E(vib)   ...       0.03 
freq.     921.10  E(vib)   ...       0.03 
freq.     924.56  E(vib)   ...       0.03 
freq.     937.33  E(vib)   ...       0.03 
freq.     940.16  E(vib)   ...       0.03 
freq.     943.04  E(vib)   ...       0.03 
freq.     946.96  E(vib)   ...       0.03 
freq.     958.63  E(vib)   ...       0.03 
freq.     961.57  E(vib)   ...       0.03 
freq.     966.88  E(vib)   ...       0.03 
freq.     974.31  E(vib)   ...       0.03 
freq.     976.44  E(vib)   ...       0.03 
freq.     978.10  E(vib)   ...       0.03 
freq.     988.61  E(vib)   ...       0.02 
freq.     999.32  E(vib)   ...       0.02 
freq.    1007.99  E(vib)   ...       0.02 
freq.    1009.56  E(vib)   ...       0.02 
freq.    1022.11  E(vib)   ...       0.02 
freq.    1026.59  E(vib)   ...       0.02 
freq.    1032.37  E(vib)   ...       0.02 
freq.    1033.40  E(vib)   ...       0.02 
freq.    1043.03  E(vib)   ...       0.02 
freq.    1051.79  E(vib)   ...       0.02 
freq.    1055.45  E(vib)   ...       0.02 
freq.    1061.59  E(vib)   ...       0.02 
freq.    1062.72  E(vib)   ...       0.02 
freq.    1066.04  E(vib)   ...       0.02 
freq.    1067.20  E(vib)   ...       0.02 
freq.    1067.44  E(vib)   ...       0.02 
freq.    1070.21  E(vib)   ...       0.02 
freq.    1083.10  E(vib)   ...       0.02 
freq.    1092.75  E(vib)   ...       0.02 
freq.    1094.21  E(vib)   ...       0.02 
freq.    1100.10  E(vib)   ...       0.02 
freq.    1109.30  E(vib)   ...       0.02 
freq.    1111.10  E(vib)   ...       0.01 
freq.    1113.76  E(vib)   ...       0.01 
freq.    1130.00  E(vib)   ...       0.01 
freq.    1136.16  E(vib)   ...       0.01 
freq.    1140.51  E(vib)   ...       0.01 
freq.    1144.39  E(vib)   ...       0.01 
freq.    1147.00  E(vib)   ...       0.01 
freq.    1153.49  E(vib)   ...       0.01 
freq.    1155.08  E(vib)   ...       0.01 
freq.    1155.35  E(vib)   ...       0.01 
freq.    1158.84  E(vib)   ...       0.01 
freq.    1159.96  E(vib)   ...       0.01 
freq.    1169.15  E(vib)   ...       0.01 
freq.    1186.07  E(vib)   ...       0.01 
freq.    1192.65  E(vib)   ...       0.01 
freq.    1193.38  E(vib)   ...       0.01 
freq.    1199.00  E(vib)   ...       0.01 
freq.    1202.53  E(vib)   ...       0.01 
freq.    1213.00  E(vib)   ...       0.01 
freq.    1221.99  E(vib)   ...       0.01 
freq.    1225.82  E(vib)   ...       0.01 
freq.    1229.34  E(vib)   ...       0.01 
freq.    1235.06  E(vib)   ...       0.01 
freq.    1241.34  E(vib)   ...       0.01 
freq.    1241.83  E(vib)   ...       0.01 
freq.    1244.52  E(vib)   ...       0.01 
freq.    1250.24  E(vib)   ...       0.01 
freq.    1250.87  E(vib)   ...       0.01 
freq.    1255.64  E(vib)   ...       0.01 
freq.    1259.66  E(vib)   ...       0.01 
freq.    1263.41  E(vib)   ...       0.01 
freq.    1266.16  E(vib)   ...       0.01 
freq.    1268.72  E(vib)   ...       0.01 
freq.    1272.03  E(vib)   ...       0.01 
freq.    1276.18  E(vib)   ...       0.01 
freq.    1283.09  E(vib)   ...       0.01 
freq.    1283.88  E(vib)   ...       0.01 
freq.    1291.34  E(vib)   ...       0.01 
freq.    1293.22  E(vib)   ...       0.01 
freq.    1298.33  E(vib)   ...       0.01 
freq.    1303.12  E(vib)   ...       0.01 
freq.    1304.63  E(vib)   ...       0.01 
freq.    1305.18  E(vib)   ...       0.01 
freq.    1305.68  E(vib)   ...       0.01 
freq.    1309.30  E(vib)   ...       0.01 
freq.    1309.38  E(vib)   ...       0.01 
freq.    1313.96  E(vib)   ...       0.01 
freq.    1319.11  E(vib)   ...       0.01 
freq.    1320.45  E(vib)   ...       0.01 
freq.    1321.82  E(vib)   ...       0.01 
freq.    1322.99  E(vib)   ...       0.01 
freq.    1325.30  E(vib)   ...       0.01 
freq.    1326.11  E(vib)   ...       0.01 
freq.    1328.83  E(vib)   ...       0.01 
freq.    1332.55  E(vib)   ...       0.01 
freq.    1337.12  E(vib)   ...       0.01 
freq.    1337.32  E(vib)   ...       0.01 
freq.    1342.44  E(vib)   ...       0.01 
freq.    1346.12  E(vib)   ...       0.01 
freq.    1351.21  E(vib)   ...       0.01 
freq.    1353.68  E(vib)   ...       0.01 
freq.    1356.35  E(vib)   ...       0.01 
freq.    1365.20  E(vib)   ...       0.01 
freq.    1365.26  E(vib)   ...       0.01 
freq.    1370.87  E(vib)   ...       0.01 
freq.    1372.26  E(vib)   ...       0.01 
freq.    1378.07  E(vib)   ...       0.01 
freq.    1407.53  E(vib)   ...       0.00 
freq.    1410.30  E(vib)   ...       0.00 
freq.    1424.08  E(vib)   ...       0.00 
freq.    1427.20  E(vib)   ...       0.00 
freq.    1430.53  E(vib)   ...       0.00 
freq.    1433.45  E(vib)   ...       0.00 
freq.    1434.46  E(vib)   ...       0.00 
freq.    1434.88  E(vib)   ...       0.00 
freq.    1437.05  E(vib)   ...       0.00 
freq.    1437.86  E(vib)   ...       0.00 
freq.    1438.96  E(vib)   ...       0.00 
freq.    1439.65  E(vib)   ...       0.00 
freq.    1440.28  E(vib)   ...       0.00 
freq.    1441.08  E(vib)   ...       0.00 
freq.    1441.83  E(vib)   ...       0.00 
freq.    1445.40  E(vib)   ...       0.00 
freq.    1447.13  E(vib)   ...       0.00 
freq.    1449.85  E(vib)   ...       0.00 
freq.    1452.09  E(vib)   ...       0.00 
freq.    1452.96  E(vib)   ...       0.00 
freq.    1453.38  E(vib)   ...       0.00 
freq.    1453.94  E(vib)   ...       0.00 
freq.    1454.17  E(vib)   ...       0.00 
freq.    1455.35  E(vib)   ...       0.00 
freq.    1457.05  E(vib)   ...       0.00 
freq.    1458.86  E(vib)   ...       0.00 
freq.    1459.56  E(vib)   ...       0.00 
freq.    1459.70  E(vib)   ...       0.00 
freq.    1463.89  E(vib)   ...       0.00 
freq.    1464.34  E(vib)   ...       0.00 
freq.    1472.87  E(vib)   ...       0.00 
freq.    1481.27  E(vib)   ...       0.00 
freq.    1501.89  E(vib)   ...       0.00 
freq.    1510.76  E(vib)   ...       0.00 
freq.    1519.52  E(vib)   ...       0.00 
freq.    1626.27  E(vib)   ...       0.00 
freq.    1650.92  E(vib)   ...       0.00 
freq.    1670.80  E(vib)   ...       0.00 
freq.    1674.96  E(vib)   ...       0.00 
freq.    1686.93  E(vib)   ...       0.00 
freq.    1697.67  E(vib)   ...       0.00 
freq.    1702.70  E(vib)   ...       0.00 
freq.    2839.43  E(vib)   ...       0.00 
freq.    2908.08  E(vib)   ...       0.00 
freq.    2922.68  E(vib)   ...       0.00 
freq.    2924.91  E(vib)   ...       0.00 
freq.    2928.34  E(vib)   ...       0.00 
freq.    2934.71  E(vib)   ...       0.00 
freq.    2936.61  E(vib)   ...       0.00 
freq.    2939.18  E(vib)   ...       0.00 
freq.    2942.07  E(vib)   ...       0.00 
freq.    2946.32  E(vib)   ...       0.00 
freq.    2948.48  E(vib)   ...       0.00 
freq.    2951.48  E(vib)   ...       0.00 
freq.    2951.99  E(vib)   ...       0.00 
freq.    2955.29  E(vib)   ...       0.00 
freq.    2956.31  E(vib)   ...       0.00 
freq.    2958.32  E(vib)   ...       0.00 
freq.    2958.78  E(vib)   ...       0.00 
freq.    2961.23  E(vib)   ...       0.00 
freq.    2962.93  E(vib)   ...       0.00 
freq.    2962.95  E(vib)   ...       0.00 
freq.    2969.15  E(vib)   ...       0.00 
freq.    2972.72  E(vib)   ...       0.00 
freq.    2974.95  E(vib)   ...       0.00 
freq.    2976.39  E(vib)   ...       0.00 
freq.    2978.73  E(vib)   ...       0.00 
freq.    2980.31  E(vib)   ...       0.00 
freq.    2981.80  E(vib)   ...       0.00 
freq.    2986.69  E(vib)   ...       0.00 
freq.    2990.12  E(vib)   ...       0.00 
freq.    2990.30  E(vib)   ...       0.00 
freq.    2991.77  E(vib)   ...       0.00 
freq.    2997.75  E(vib)   ...       0.00 
freq.    3009.67  E(vib)   ...       0.00 
freq.    3010.66  E(vib)   ...       0.00 
freq.    3010.91  E(vib)   ...       0.00 
freq.    3012.67  E(vib)   ...       0.00 
freq.    3013.03  E(vib)   ...       0.00 
freq.    3015.74  E(vib)   ...       0.00 
freq.    3016.50  E(vib)   ...       0.00 
freq.    3018.85  E(vib)   ...       0.00 
freq.    3022.71  E(vib)   ...       0.00 
freq.    3023.57  E(vib)   ...       0.00 
freq.    3023.73  E(vib)   ...       0.00 
freq.    3027.65  E(vib)   ...       0.00 
freq.    3027.77  E(vib)   ...       0.00 
freq.    3029.29  E(vib)   ...       0.00 
freq.    3035.05  E(vib)   ...       0.00 
freq.    3037.93  E(vib)   ...       0.00 
freq.    3039.18  E(vib)   ...       0.00 
freq.    3039.54  E(vib)   ...       0.00 
freq.    3044.60  E(vib)   ...       0.00 
freq.    3047.26  E(vib)   ...       0.00 
freq.    3050.10  E(vib)   ...       0.00 
freq.    3051.53  E(vib)   ...       0.00 
freq.    3059.78  E(vib)   ...       0.00 
freq.    3063.77  E(vib)   ...       0.00 
freq.    3069.59  E(vib)   ...       0.00 
freq.    3074.34  E(vib)   ...       0.00 
freq.    3365.21  E(vib)   ...       0.00 
freq.    3388.19  E(vib)   ...       0.00 
freq.    3398.87  E(vib)   ...       0.00 
freq.    3450.70  E(vib)   ...       0.00 
freq.    3489.74  E(vib)   ...       0.00 
freq.    3519.59  E(vib)   ...       0.00 

------------
INNER ENERGY
------------

The inner energy is: U= E(el) + E(ZPE) + E(vib) + E(rot) + E(trans)
    E(el)   - is the total energy from the electronic structure calculation
              = E(kin-el) + E(nuc-el) + E(el-el) + E(nuc-nuc)
    E(ZPE)  - the the zero temperature vibrational energy from the frequency calculation
    E(vib)  - the the finite temperature correction to E(ZPE) due to population
              of excited vibrational states
    E(rot)  - is the rotational thermal energy
    E(trans)- is the translational thermal energy

Summary of contributions to the inner energy U:
Electronic energy                ...  -2380.08027238 Eh
Zero point energy                ...      0.97757644 Eh     613.44 kcal/mol
Thermal vibrational correction   ...      0.05568494 Eh      34.94 kcal/mol
Thermal rotational correction    ...      0.00141627 Eh       0.89 kcal/mol
Thermal translational correction ...      0.00141627 Eh       0.89 kcal/mol
-----------------------------------------------------------------------
Total thermal energy                  -2379.04417846 Eh


Summary of corrections to the electronic energy:
(perhaps to be used in another calculation)
Total thermal correction                  0.05851749 Eh      36.72 kcal/mol
Non-thermal (ZPE) correction              0.97757644 Eh     613.44 kcal/mol
-----------------------------------------------------------------------
Total correction                          1.03609393 Eh     650.16 kcal/mol


--------
ENTHALPY
--------

The enthalpy is H = U + kB*T
                kB is Boltzmann's constant
Total free energy                 ...  -2379.04417846 Eh 
Thermal Enthalpy correction       ...      0.00094421 Eh       0.59 kcal/mol
-----------------------------------------------------------------------
Total Enthalpy                    ...  -2379.04323425 Eh


Note: Only C1 symmetry has been detected, increase convergence thresholds 
      if your molecule has a higher symmetry. Symmetry factor of 1.0 is   
      used for the rotational entropy correction. 
 

Note: Rotational entropy computed according to Herzberg 
Infrared and Raman Spectra, Chapter V,1, Van Nostrand Reinhold, 1945 
Point Group:  C1, Symmetry Number:   1  
Rotational constants in cm-1:     0.002765     0.001227     0.001113 

Vibrational entropy computed according to the QRRHO of S. Grimme
Chem.Eur.J. 2012 18 9955


-------
ENTROPY
-------

The entropy contributions are T*S = T*(S(el)+S(vib)+S(rot)+S(trans))
     S(el)   - electronic entropy
     S(vib)  - vibrational entropy
     S(rot)  - rotational entropy
     S(trans)- translational entropy
The entropies will be listed as mutliplied by the temperature to get
units of energy

Electronic entropy                ...      0.00000000 Eh      0.00 kcal/mol
Vibrational entropy               ...      0.10261890 Eh     64.39 kcal/mol
Rotational entropy                ...      0.01866700 Eh     11.71 kcal/mol
Translational entropy             ...      0.02166895 Eh     13.60 kcal/mol
-----------------------------------------------------------------------
Final entropy term                ...      0.14295485 Eh     89.71 kcal/mol

In case the symmetry of your molecule has not been determined correctly
or in case you have a reason to use a different symmetry number we print 
out the resulting rotational entropy values for sn=1,12 :
 --------------------------------------------------------
|  sn= 1 | S(rot)=       0.01866700 Eh     11.71 kcal/mol|
|  sn= 2 | S(rot)=       0.01801255 Eh     11.30 kcal/mol|
|  sn= 3 | S(rot)=       0.01762971 Eh     11.06 kcal/mol|
|  sn= 4 | S(rot)=       0.01735809 Eh     10.89 kcal/mol|
|  sn= 5 | S(rot)=       0.01714740 Eh     10.76 kcal/mol|
|  sn= 6 | S(rot)=       0.01697526 Eh     10.65 kcal/mol|
|  sn= 7 | S(rot)=       0.01682971 Eh     10.56 kcal/mol|
|  sn= 8 | S(rot)=       0.01670363 Eh     10.48 kcal/mol|
|  sn= 9 | S(rot)=       0.01659242 Eh     10.41 kcal/mol|
|  sn=10 | S(rot)=       0.01649295 Eh     10.35 kcal/mol|
|  sn=11 | S(rot)=       0.01640296 Eh     10.29 kcal/mol|
|  sn=12 | S(rot)=       0.01632080 Eh     10.24 kcal/mol|
 --------------------------------------------------------


-------------------
GIBBS FREE ENERGY
-------------------

The Gibbs free energy is G = H - T*S

Total enthalpy                    ...  -2379.04323425 Eh 
Total entropy correction          ...     -0.14295485 Eh    -89.71 kcal/mol
-----------------------------------------------------------------------
Final Gibbs free energy         ...  -2379.18618909 Eh

For completeness - the Gibbs free energy minus the electronic energy
G-E(el)                           ...      0.89408329 Eh    561.04 kcal/mol

--------------------------------------------------------------------------
WARNING: No preset parameters were found for the device that Open MPI
detected:

  Local host:            eu-g1-020-1
  Device name:           mlx5_0
  Device vendor ID:      0x02c9
  Device vendor part ID: 4123

Default device parameters will be used, which may result in lower
performance.  You can edit any of the files specified by the
btl_openib_device_param_files MCA parameter to set values for your
device.

NOTE: You can turn off this warning by setting the MCA parameter
      btl_openib_warn_no_device_params_found to 0.
--------------------------------------------------------------------------
--------------------------------------------------------------------------
WARNING: There was an error initializing an OpenFabrics device.

  Local host:   eu-g1-020-1
  Local device: mlx5_0
--------------------------------------------------------------------------

Timings for individual modules:

Sum of individual times         ...    25549.612 sec (= 425.827 min)
GTO integral calculation        ...       12.428 sec (=   0.207 min)   0.0 %
SCF iterations                  ...      349.559 sec (=   5.826 min)   1.4 %
SCF Gradient evaluation         ...       72.615 sec (=   1.210 min)   0.3 %
Geometry relaxation             ...        4.651 sec (=   0.078 min)   0.0 %
Analytical frequency calculation...    25110.359 sec (= 418.506 min)  98.3 %
                             ****ORCA TERMINATED NORMALLY****
TOTAL RUN TIME: 0 days 7 hours 6 minutes 7 seconds 52 msec
