
                                 *****************
                                 * O   R   C   A *
                                 *****************

           --- An Ab Initio, DFT and Semiempirical electronic structure package ---

                  #######################################################
                  #                        -***-                        #
                  #          Department of theory and spectroscopy      #
                  #               Directorship: Frank Neese             #
                  #        Max Planck Institute fuer Kohlenforschung    #
                  #                Kaiser Wilhelm Platz 1               #
                  #                 D-45470 Muelheim/Ruhr               #
                  #                      Germany                        #
                  #                                                     #
                  #                  All rights reserved                #
                  #                        -***-                        #
                  #######################################################


                         Program Version 4.2.0 -  RELEASE  -


 With contributions from (in alphabetic order):
   Daniel Aravena         : Magnetic Suceptibility
   Michael Atanasov       : Ab Initio Ligand Field Theory (pilot matlab implementation)
   Alexander A. Auer      : GIAO ZORA, VPT2
   Ute Becker             : Parallelization
   Giovanni Bistoni       : ED, misc. LED, open-shell LED, HFLED
   Martin Brehm           : Molecular dynamics
   Dmytro Bykov           : SCF Hessian
   Vijay G. Chilkuri      : MRCI spin determinant printing, contributions to CSF-ICE
   Dipayan Datta          : RHF DLPNO-CCSD density
   Achintya Kumar Dutta   : EOM-CC, STEOM-CC
   Dmitry Ganyushin       : Spin-Orbit,Spin-Spin,Magnetic field MRCI
   Miquel Garcia          : C-PCM Hessian, Gaussian charge scheme
   Yang Guo               : DLPNO-NEVPT2, CIM, IAO-localization
   Andreas Hansen         : Spin unrestricted coupled pair/coupled cluster methods
   Benjamin Helmich-Paris : CASSCF linear response (MC-RPA)
   Lee Huntington         : MR-EOM, pCC
   Robert Izsak           : Overlap fitted RIJCOSX, COSX-SCS-MP3, EOM
   Christian Kollmar      : KDIIS, OOCD, Brueckner-CCSD(T), CCSD density
   Simone Kossmann        : Meta GGA functionals, TD-DFT gradient, OOMP2, MP2 Hessian
   Martin Krupicka        : AUTO-CI
   Lucas Lang             : DCDCAS
   Dagmar Lenk            : GEPOL surface, SMD
   Dimitrios Liakos       : Extrapolation schemes; Compound Job, initial MDCI parallelization
   Dimitrios Manganas     : Further ROCIS development; embedding schemes
   Dimitrios Pantazis     : SARC Basis sets
   Taras Petrenko         : DFT Hessian,TD-DFT gradient, ASA, ECA, R-Raman, ABS, FL, XAS/XES, NRVS
   Peter Pinski           : DLPNO-MP2, DLPNO-MP2 Gradient
   Christoph Reimann      : Effective Core Potentials
   Marius Retegan         : Local ZFS, SOC
   Christoph Riplinger    : Optimizer, TS searches, QM/MM, DLPNO-CCSD(T), (RO)-DLPNO pert. Triples
   Tobias Risthaus        : Range-separated hybrids, TD-DFT gradient, RPA, STAB
   Michael Roemelt        : Original ROCIS implementation
   Masaaki Saitow         : Open-shell DLPNO-CCSD energy and density
   Barbara Sandhoefer     : DKH picture change effects
   Avijit Sen             : IP-ROCIS
   Kantharuban Sivalingam : CASSCF convergence, NEVPT2, FIC-MRCI
   Bernardo de Souza      : ESD, SOC TD-DFT
   Georgi Stoychev        : AutoAux, RI-MP2 NMR
   Willem Van den Heuvel  : Paramagnetic NMR
   Boris Wezisla          : Elementary symmetry handling
   Frank Wennmohs         : Technical directorship


 We gratefully acknowledge several colleagues who have allowed us to
 interface, adapt or use parts of their codes:
   Stefan Grimme, W. Hujo, H. Kruse,             : VdW corrections, initial TS optimization,
                  C. Bannwarth                     DFT functionals, gCP, sTDA/sTD-DF
   Ed Valeev, F. Pavosevic, A. Kumar             : LibInt (2-el integral package), F12 methods
   Garnet Chan, S. Sharma, J. Yang, R. Olivares  : DMRG
   Ulf Ekstrom                                   : XCFun DFT Library
   Mihaly Kallay                                 : mrcc  (arbitrary order and MRCC methods)
   Andreas Klamt, Michael Diedenhofen            : otool_cosmo (COSMO solvation model)
   Jiri Pittner, Ondrej Demel                    : Mk-CCSD
   Frank Weinhold                                : gennbo (NPA and NBO analysis)
   Christopher J. Cramer and Donald G. Truhlar   : smd solvation model
   Lars Goerigk                                  : TD-DFT with DH, B97 family of functionals
   V. Asgeirsson, H. Jonsson                     : NEB implementation
   FAccTs GmbH                                   : IRC, NEB, NEB-TS, Multilevel, MM, QM/MM, CI optimization
   S Lehtola, MJT Oliveira, MAL Marques          : LibXC Library


 Your calculation uses the libint2 library for the computation of 2-el integrals
 For citations please refer to: http://libint.valeyev.net

 Your ORCA version has been built with support for libXC version: 4.2.3
 For citations please refer to: https://tddft.org/programs/libxc/

 This ORCA versions uses:
   CBLAS   interface :  Fast vector & matrix operations
   LAPACKE interface :  Fast linear algebra routines
   SCALAPACK package :  Parallel linear algebra routines




***************************************
The coordinates will be read from file: 56.xyz
***************************************


Your calculation utilizes the atom-pairwise dispersion correction
with the Becke-Johnson damping scheme (D3BJ)
Cite in your paper:
S.Grimme, S.Ehrlich, L.Goerigk, J Comput Chem, (2011), 32, 1456–1465 
S.Grimme, J.Antony, S.Ehrlich and H.Krieg, J.Chem.Phys., 132, (2010), 154104 
   

----- Orbital basis set information -----
Your calculation utilizes the basis: def2-TZVP
   F. Weigend and R. Ahlrichs, Phys. Chem. Chem. Phys. 7, 3297 (2005).

----- AuxJ basis set information -----
Your calculation utilizes the auxiliary basis: def2/J
   F. Weigend, Phys. Chem. Chem. Phys. 8, 1057 (2006).

================================================================================
                                        WARNINGS
                       Please study these warnings very carefully!
================================================================================


WARNING: Geometry Optimization
  ===> : Switching off AutoStart
         For restart on a previous wavefunction, please use MOREAD

INFO   : the flag for use of LIBINT has been found!

================================================================================
                                       INPUT FILE
================================================================================
NAME = 56.inp
|  1> !RI BP86 def2-tzvp def2/J D3BJ TIGHTSCF TightOpt Grid5 FinalGrid6 freq
|  2> %maxcore 4000
|  3> %pal nprocs 24
|  4> end
|  5> * xyzfile 0 1 56.xyz 
|  6> 
|  7>                          ****END OF INPUT****
================================================================================

                       *****************************
                       * Geometry Optimization Run *
                       *****************************

Geometry optimization settings:
Update method            Update   .... BFGS
Choice of coordinates    CoordSys .... Z-matrix Internals
Initial Hessian          InHess   .... Almoef's Model

Convergence Tolerances:
Energy Change            TolE     ....  1.0000e-06 Eh
Max. Gradient            TolMAXG  ....  1.0000e-04 Eh/bohr
RMS Gradient             TolRMSG  ....  3.0000e-05 Eh/bohr
Max. Displacement        TolMAXD  ....  1.0000e-03 bohr
RMS Displacement         TolRMSD  ....  6.0000e-04 bohr
Strict Convergence                ....  False
------------------------------------------------------------------------------
                        ORCA OPTIMIZATION COORDINATE SETUP
------------------------------------------------------------------------------

The optimization will be done in new redundant internal coordinates
Making redundant internal coordinates   ...  (new redundants) done
Evaluating the initial hessian          ...  (Almloef) done
Evaluating the coordinates              ...  done
Calculating the B-matrix                .... done
Calculating the G-matrix                .... done
Diagonalizing the G-matrix              .... done
Small eigenvalue found = 2.115e-04
Small eigenvalue found = 1.606e-03
Small eigenvalue found = 2.711e-03
Small eigenvalue found = 3.282e-03
Small eigenvalue found = 4.568e-03
Small eigenvalue found = 5.782e-03
Small eigenvalue found = 6.706e-03
Small eigenvalue found = 7.854e-03
Small eigenvalue found = 8.897e-03
Small eigenvalue found = 1.128e-02
Small eigenvalue found = 1.217e-02
Small eigenvalue found = 1.243e-02
Small eigenvalue found = 1.336e-02
Small eigenvalue found = 1.718e-02
Small eigenvalue found = 1.879e-02
Small eigenvalue found = 2.220e-02
Small eigenvalue found = 2.409e-02
Small eigenvalue found = 2.781e-02
The first mode is                       ....  326
The number of degrees of freedom        ....  339

    -----------------------------------------------------------------
                    Redundant Internal Coordinates


    -----------------------------------------------------------------
         Definition                    Initial Value    Approx d2E/dq
    -----------------------------------------------------------------
      1. B(C   1,O   0)                  1.2254         1.024406   
      2. B(C   2,C   1)                  1.5398         0.360423   
      3. B(C   3,C   2)                  1.5431         0.356070   
      4. B(C   4,C   3)                  1.5360         0.365436   
      5. B(C   5,C   4)                  1.5332         0.369149   
      6. B(N   6,C   2)                  1.4742         0.410716   
      7. B(N   6,C   5)                  1.4758         0.408241   
      8. B(C   7,N   6)                  1.3561         0.633743   
      9. B(O   8,C   7)                  1.2451         0.952753   
     10. B(N   9,C   1)                  1.3691         0.604305   
     11. B(C  10,N   9)                  1.4572         0.437213   
     12. B(C  11,C  10)                  1.5425         0.356867   
     13. B(N  12,C  11)                  1.3686         0.605460   
     14. B(C  13,N  12)                  1.4582         0.435580   
     15. B(C  14,C  13)                  1.5347         0.367244   
     16. B(N  15,C  14)                  1.3627         0.618645   
     17. B(C  16,N  15)                  1.4516         0.446218   
     18. B(C  17,C  16)                  1.5689         0.323775   
     19. B(C  18,C  17)                  1.5604         0.334132   
     20. B(C  19,C  18)                  1.5396         0.360656   
     21. B(N  20,C  19)                  1.3563         0.633444   
     22. B(C  21,N  20)                  1.4575         0.436713   
     23. B(C  22,C  21)                  1.5491         0.348205   
     24. B(N  23,C  22)                  1.3620         0.620260   
     25. B(C  24,N  23)                  1.4540         0.442349   
     26. B(C  24,C   7)                  1.5234         0.382688   
     27. B(C  25,C  24)                  1.5434         0.355688   
     28. B(O  26,C  22)                  1.2318         1.000471   
     29. B(C  27,C  21)                  1.5341         0.367974   
     30. B(C  28,C  27)                  1.5378         0.362975   
     31. B(C  29,C  28)                  1.5339         0.368236   
     32. B(C  30,C  28)                  1.5335         0.368835   
     33. B(O  31,C  19)                  1.2368         0.982382   
     34. B(C  32,C  18)                  1.5407         0.359201   
     35. B(C  33,C  32)                  1.5202         0.387206   
     36. B(C  34,C  33)                  1.5321         0.370677   
     37. B(C  35,C  34)                  1.5290         0.374914   
     38. B(C  36,C  35)                  1.5296         0.374112   
     39. B(C  37,C  36)                  1.5303         0.373182   
     40. B(C  38,C  37)                  1.5302         0.373331   
     41. B(C  39,C  38)                  1.5302         0.373274   
     42. B(C  40,C  39)                  1.5310         0.372261   
     43. B(C  41,C  40)                  1.5299         0.373729   
     44. B(O  42,C  32)                  1.2183         1.051350   
     45. B(O  43,C  17)                  1.4263         0.489769   
     46. B(O  44,C  14)                  1.2373         0.980541   
     47. B(C  45,C  13)                  1.5378         0.362961   
     48. B(C  46,C  45)                  1.5255         0.379808   
     49. B(O  47,C  11)                  1.2287         1.011953   
     50. B(C  48,C  10)                  1.5484         0.349158   
     51. B(C  49,C  48)                  1.5314         0.371694   
     52. B(C  50,C  48)                  1.5299         0.373660   
     53. B(H  51,C   2)                  1.0968         0.351218   
     54. B(H  52,C   3)                  1.0994         0.347932   
     55. B(H  53,C   3)                  1.0964         0.351755   
     56. B(H  54,C   4)                  1.1003         0.346687   
     57. B(H  55,C   4)                  1.0967         0.351314   
     58. B(H  56,C   5)                  1.0979         0.349802   
     59. B(H  57,C   5)                  1.1021         0.344402   
     60. B(H  58,N   9)                  1.0158         0.423590   
     61. B(H  59,C  10)                  1.1027         0.343683   
     62. B(H  60,N  12)                  1.0194         0.418073   
     63. B(H  61,C  13)                  1.1034         0.342851   
     64. B(H  62,N  15)                  1.0185         0.419475   
     65. B(H  63,C  16)                  1.0963         0.351839   
     66. B(H  64,C  16)                  1.0972         0.350671   
     67. B(H  65,C  17)                  1.1034         0.342808   
     68. B(H  66,C  18)                  1.1020         0.344574   
     69. B(H  67,N  20)                  1.0263         0.407576   
     70. B(H  68,C  21)                  1.1021         0.344402   
     71. B(H  69,N  23)                  1.0227         0.412968   
     72. B(H  70,C  24)                  1.0996         0.347579   
     73. B(H  71,C  25)                  1.0957         0.352599   
     74. B(H  72,C  25)                  1.0996         0.347622   
     75. B(H  73,C  25)                  1.0977         0.350077   
     76. B(H  74,C  27)                  1.0997         0.347532   
     77. B(H  75,C  27)                  1.1024         0.344024   
     78. B(H  76,C  28)                  1.1053         0.340388   
     79. B(H  77,C  29)                  1.0977         0.350037   
     80. B(H  78,C  29)                  1.1012         0.345527   
     81. B(H  79,C  29)                  1.1001         0.346943   
     82. B(H  80,C  30)                  1.1001         0.347040   
     83. B(H  81,C  30)                  1.0997         0.347445   
     84. B(H  82,C  30)                  1.1016         0.345017   
     85. B(H  83,C  33)                  1.1058         0.339798   
     86. B(H  84,H  51)                  4.5822         0.000000   
     87. B(H  84,C  33)                  1.0983         0.349254   
     88. B(H  85,C  34)                  1.1006         0.346394   
     89. B(H  86,C  34)                  1.1004         0.346614   
     90. B(H  87,C  35)                  1.1046         0.341283   
     91. B(H  88,H  73)                  2.4252         0.000511   
     92. B(H  88,C  35)                  1.1049         0.340899   
     93. B(H  89,C  36)                  1.1039         0.342141   
     94. B(H  90,C  36)                  1.1039         0.342170   
     95. B(H  91,C  37)                  1.1045         0.341416   
     96. B(H  92,C  37)                  1.1049         0.340961   
     97. B(H  93,C  38)                  1.1043         0.341689   
     98. B(H  94,C  38)                  1.1042         0.341779   
     99. B(H  95,C  39)                  1.1047         0.341216   
    100. B(H  96,C  39)                  1.1048         0.340986   
    101. B(H  97,C  40)                  1.1034         0.342847   
    102. B(H  98,C  40)                  1.1033         0.342900   
    103. B(H  99,C  41)                  1.0995         0.347808   
    104. B(H 100,C  41)                  1.1009         0.346011   
    105. B(H 101,C  41)                  1.1008         0.346101   
    106. B(H 102,O   8)                  1.7340         0.030277   
    107. B(H 102,O  43)                  0.9885         0.468190   
    108. B(H 103,H  75)                  2.5958         0.000273   
    109. B(H 103,C  45)                  1.0979         0.349784   
    110. B(H 104,C  45)                  1.1026         0.343787   
    111. B(H 105,C  46)                  1.0984         0.349135   
    112. B(H 106,C  46)                  1.0992         0.348077   
    113. B(H 107,H  56)                  3.8832         0.000002   
    114. B(H 107,C  46)                  1.1001         0.346969   
    115. B(H 108,C  48)                  1.1003         0.346749   
    116. B(H 109,C  49)                  1.0979         0.349860   
    117. B(H 110,C  49)                  1.0987         0.348757   
    118. B(H 111,C  49)                  1.1028         0.343566   
    119. B(H 112,C  50)                  1.0980         0.349620   
    120. B(H 113,C  50)                  1.1008         0.346066   
    121. B(H 114,C  50)                  1.0992         0.348176   
    122. A(O   0,C   1,N   9)          123.8574         0.467064   
    123. A(C   2,C   1,N   9)          115.6469         0.389935   
    124. A(O   0,C   1,C   2)          120.4544         0.428120   
    125. A(C   1,C   2,H  51)          105.1034         0.321102   
    126. A(N   6,C   2,H  51)          109.9213         0.326099   
    127. A(C   1,C   2,N   6)          113.9359         0.364748   
    128. A(C   1,C   2,C   3)          112.2086         0.358195   
    129. A(C   3,C   2,H  51)          112.6420         0.320464   
    130. A(C   3,C   2,N   6)          103.2391         0.363991   
    131. A(C   4,C   3,H  53)          113.5922         0.321909   
    132. A(C   4,C   3,H  52)          110.3568         0.321334   
    133. A(C   2,C   3,C   4)          104.1011         0.359038   
    134. A(C   2,C   3,H  53)          111.8202         0.320545   
    135. A(C   2,C   3,H  52)          109.1768         0.319972   
    136. A(H  52,C   3,H  53)          107.7371         0.288215   
    137. A(H  54,C   4,H  55)          107.5415         0.287997   
    138. A(C   3,C   4,H  55)          113.1301         0.321843   
    139. A(C   3,C   4,C   5)          103.5535         0.361252   
    140. A(C   3,C   4,H  54)          110.3664         0.321145   
    141. A(C   5,C   4,H  55)          112.0744         0.322376   
    142. A(C   5,C   4,H  54)          110.1768         0.321677   
    143. A(H  56,C   5,H  57)          108.0212         0.287506   
    144. A(C   4,C   5,N   6)          102.9135         0.365866   
    145. A(C   4,C   5,H  56)          113.0760         0.322149   
    146. A(N   6,C   5,H  57)          110.3404         0.324727   
    147. A(N   6,C   5,H  56)          111.1575         0.325559   
    148. A(C   4,C   5,H  57)          111.3065         0.321329   
    149. A(C   5,N   6,C   7)          128.0674         0.399317   
    150. A(C   2,N   6,C   7)          118.3682         0.399742   
    151. A(C   2,N   6,C   5)          112.8765         0.370300   
    152. A(O   8,C   7,C  24)          121.8148         0.427156   
    153. A(N   6,C   7,O   8)          119.3974         0.464935   
    154. A(N   6,C   7,C  24)          118.7059         0.397348   
    155. A(C   1,N   9,C  10)          122.7614         0.400796   
    156. A(C  10,N   9,H  58)          118.3985         0.336972   
    157. A(C   1,N   9,H  58)          117.5127         0.355819   
    158. A(C  48,C  10,H  59)          108.2139         0.318311   
    159. A(C  11,C  10,H  59)          107.7078         0.319448   
    160. A(N   9,C  10,C  11)          112.0478         0.368051   
    161. A(N   9,C  10,C  48)          112.8602         0.366675   
    162. A(N   9,C  10,H  59)          105.2111         0.328301   
    163. A(C  11,C  10,C  48)          110.4647         0.356403   
    164. A(N  12,C  11,O  47)          122.9257         0.466181   
    165. A(C  10,C  11,O  47)          121.3143         0.426424   
    166. A(C  10,C  11,N  12)          115.7583         0.389390   
    167. A(C  13,N  12,H  60)          117.6067         0.336028   
    168. A(C  11,N  12,C  13)          121.9371         0.400666   
    169. A(C  11,N  12,H  60)          118.9825         0.355143   
    170. A(C  14,C  13,C  45)          109.7558         0.360515   
    171. A(N  12,C  13,H  61)          105.5165         0.327967   
    172. A(C  14,C  13,H  61)          109.0774         0.320820   
    173. A(N  12,C  13,C  14)          111.0083         0.369630   
    174. A(C  45,C  13,H  61)          109.8677         0.320206   
    175. A(N  12,C  13,C  45)          111.5123         0.368886   
    176. A(C  13,C  14,N  15)          116.7040         0.392823   
    177. A(N  15,C  14,O  44)          122.2779         0.465329   
    178. A(C  13,C  14,O  44)          121.0099         0.426205   
    179. A(C  14,N  15,H  62)          114.3993         0.356647   
    180. A(C  16,N  15,H  62)          116.7107         0.337569   
    181. A(C  14,N  15,C  16)          117.8030         0.403905   
    182. A(H  63,C  16,H  64)          107.7937         0.288580   
    183. A(C  17,C  16,H  64)          109.4610         0.315457   
    184. A(N  15,C  16,H  63)          106.7779         0.330687   
    185. A(C  17,C  16,H  63)          110.9482         0.315627   
    186. A(N  15,C  16,C  17)          111.6640         0.363235   
    187. A(N  15,C  16,H  64)          110.0968         0.330505   
    188. A(O  43,C  17,H  65)          108.4861         0.334387   
    189. A(C  18,C  17,H  65)          107.7264         0.315909   
    190. A(C  16,C  17,H  65)          107.5360         0.314297   
    191. A(C  16,C  17,C  18)          111.9784         0.347986   
    192. A(C  18,C  17,O  43)          113.2798         0.371079   
    193. A(C  16,C  17,O  43)          107.6396         0.369076   
    194. A(C  19,C  18,H  66)          108.5792         0.320135   
    195. A(C  17,C  18,H  66)          108.9325         0.316173   
    196. A(C  17,C  18,C  32)          110.2556         0.354144   
    197. A(C  17,C  18,C  19)          115.5934         0.354387   
    198. A(C  19,C  18,C  32)          107.0125         0.358768   
    199. A(C  32,C  18,H  66)          106.0324         0.319923   
    200. A(C  18,C  19,N  20)          118.2201         0.393204   
    201. A(N  20,C  19,O  31)          122.4644         0.467509   
    202. A(C  18,C  19,O  31)          119.3111         0.424969   
    203. A(C  19,N  20,H  67)          121.5353         0.356336   
    204. A(C  19,N  20,C  21)          121.2457         0.404055   
    205. A(C  21,N  20,H  67)          116.9149         0.334754   
    206. A(C  27,C  21,H  68)          109.7838         0.321162   
    207. A(C  22,C  21,H  68)          103.5293         0.318278   
    208. A(N  20,C  21,H  68)          107.5784         0.328352   
    209. A(N  20,C  21,C  22)          112.9141         0.366432   
    210. A(C  22,C  21,C  27)          110.4286         0.358097   
    211. A(N  20,C  21,C  27)          112.1833         0.369921   
    212. A(C  21,C  22,N  23)          116.1563         0.389362   
    213. A(C  21,C  22,O  26)          120.8028         0.423687   
    214. A(N  23,C  22,O  26)          123.0305         0.467271   
    215. A(C  22,N  23,C  24)          120.9674         0.403470   
    216. A(C  24,N  23,H  69)          118.8676         0.336203   
    217. A(C  22,N  23,H  69)          118.7352         0.355859   
    218. A(C  25,C  24,H  70)          108.7197         0.319863   
    219. A(N  23,C  24,H  70)          108.2128         0.329547   
    220. A(C   7,C  24,H  70)          111.2042         0.323718   
    221. A(N  23,C  24,C  25)          111.9634         0.368580   
    222. A(C   7,C  24,N  23)          108.9214         0.373249   
    223. A(C   7,C  24,C  25)          107.8460         0.361806   
    224. A(H  71,C  25,H  73)          109.3766         0.288601   
    225. A(C  24,C  25,H  73)          109.6833         0.320238   
    226. A(H  71,C  25,H  72)          108.8457         0.288283   
    227. A(C  24,C  25,H  72)          111.0436         0.319870   
    228. A(C  24,C  25,H  71)          108.8506         0.320614   
    229. A(H  72,C  25,H  73)          109.0167         0.287959   
    230. A(C  28,C  27,H  75)          109.5668         0.320386   
    231. A(C  21,C  27,C  28)          115.6512         0.360640   
    232. A(H  74,C  27,H  75)          107.3223         0.287164   
    233. A(C  21,C  27,H  75)          108.9525         0.321104   
    234. A(C  28,C  27,H  74)          108.5962         0.320918   
    235. A(C  21,C  27,H  74)          106.4097         0.321638   
    236. A(C  29,C  28,C  30)          110.4400         0.361670   
    237. A(C  27,C  28,C  30)          109.2013         0.360783   
    238. A(C  27,C  28,C  29)          113.6038         0.360683   
    239. A(C  30,C  28,H  76)          108.0641         0.320669   
    240. A(C  29,C  28,H  76)          108.0724         0.320584   
    241. A(C  27,C  28,H  76)          107.2644         0.319831   
    242. A(C  28,C  29,H  79)          110.4543         0.321586   
    243. A(H  78,C  29,H  79)          107.9347         0.287284   
    244. A(H  77,C  29,H  79)          107.7143         0.287866   
    245. A(H  77,C  29,H  78)          107.9014         0.287682   
    246. A(C  28,C  29,H  78)          110.6656         0.321371   
    247. A(C  28,C  29,H  77)          112.0185         0.322053   
    248. A(H  81,C  30,H  82)          107.6611         0.287282   
    249. A(H  80,C  30,H  82)          107.8411         0.287230   
    250. A(C  28,C  30,H  82)          110.5279         0.321378   
    251. A(H  80,C  30,H  81)          108.0339         0.287545   
    252. A(C  28,C  30,H  81)          111.1642         0.321747   
    253. A(C  28,C  30,H  80)          111.4596         0.321686   
    254. A(C  33,C  32,O  42)          122.1191         0.435698   
    255. A(C  18,C  32,O  42)          120.4835         0.429856   
    256. A(C  18,C  32,C  33)          117.2842         0.363141   
    257. A(C  32,C  33,C  34)          113.0285         0.365099   
    258. A(C  34,C  33,H  84)          109.2664         0.322284   
    259. A(H  83,C  33,H  84)          107.1333         0.286832   
    260. A(C  32,C  33,H  84)          110.8071         0.324599   
    261. A(C  34,C  33,H  83)          109.4512         0.320839   
    262. A(C  32,C  33,H  83)          106.9584         0.323140   
    263. A(C  33,C  34,C  35)          111.8239         0.363090   
    264. A(H  85,C  34,H  86)          106.9846         0.287353   
    265. A(C  35,C  34,H  86)          110.6165         0.322484   
    266. A(C  33,C  34,H  86)          109.2822         0.321884   
    267. A(C  35,C  34,H  85)          110.0271         0.322450   
    268. A(C  33,C  34,H  85)          107.9515         0.321850   
    269. A(C  34,C  35,C  36)          113.4284         0.363663   
    270. A(H  87,C  35,H  88)          105.7100         0.285945   
    271. A(C  36,C  35,H  88)          109.0936         0.321494   
    272. A(C  34,C  35,H  88)          109.1356         0.321607   
    273. A(C  36,C  35,H  87)          109.4953         0.321553   
    274. A(C  34,C  35,H  87)          109.6864         0.321666   
    275. A(C  35,C  36,C  37)          113.2818         0.363375   
    276. A(H  89,C  36,H  90)          105.9395         0.286223   
    277. A(C  37,C  36,H  90)          109.4341         0.321559   
    278. A(C  35,C  36,H  90)          109.4125         0.321690   
    279. A(C  37,C  36,H  89)          109.3428         0.321554   
    280. A(C  35,C  36,H  89)          109.1673         0.321685   
    281. A(C  36,C  37,C  38)          113.6616         0.363246   
    282. A(H  91,C  37,H  92)          105.8902         0.285970   
    283. A(C  38,C  37,H  92)          109.2058         0.321394   
    284. A(C  36,C  37,H  92)          109.1561         0.321373   
    285. A(C  38,C  37,H  91)          109.2984         0.321464   
    286. A(C  36,C  37,H  91)          109.3367         0.321443   
    287. A(C  37,C  38,C  39)          113.5227         0.363261   
    288. A(H  93,C  38,H  94)          105.8864         0.286113   
    289. A(C  39,C  38,H  94)          109.3040         0.321512   
    290. A(C  37,C  38,H  94)          109.2790         0.321520   
    291. A(C  39,C  38,H  93)          109.3052         0.321498   
    292. A(C  37,C  38,H  93)          109.2609         0.321506   
    293. A(C  38,C  39,C  40)          113.6463         0.363083   
    294. A(H  95,C  39,H  96)          105.8639         0.285947   
    295. A(C  40,C  39,H  96)          109.2003         0.321246   
    296. A(C  38,C  39,H  96)          109.2894         0.321389   
    297. A(C  40,C  39,H  95)          109.2305         0.321282   
    298. A(C  38,C  39,H  95)          109.3177         0.321425   
    299. A(C  39,C  40,C  41)          113.1435         0.363158   
    300. A(H  97,C  40,H  98)          105.9305         0.286410   
    301. A(C  41,C  40,H  98)          109.6297         0.321748   
    302. A(C  39,C  40,H  98)          109.1160         0.321541   
    303. A(C  41,C  40,H  97)          109.6396         0.321740   
    304. A(C  39,C  40,H  97)          109.1253         0.321533   
    305. A(H 100,C  41,H 101)          107.4470         0.287237   
    306. A(H  99,C  41,H 101)          107.6828         0.287470   
    307. A(C  40,C  41,H 101)          111.0885         0.322238   
    308. A(H  99,C  41,H 100)          107.6741         0.287458   
    309. A(C  40,C  41,H 100)          111.0879         0.322224   
    310. A(C  40,C  41,H  99)          111.6676         0.322498   
    311. A(C  17,O  43,H 102)          113.2261         0.349256   
    312. A(C  13,C  45,C  46)          113.4169         0.362590   
    313. A(C  46,C  45,H 104)          110.4622         0.322736   
    314. A(C  13,C  45,H 104)          108.3911         0.320348   
    315. A(C  46,C  45,H 103)          110.6270         0.323653   
    316. A(C  13,C  45,H 103)          107.5883         0.321256   
    317. A(H 103,C  45,H 104)          106.0401         0.287423   
    318. A(H 106,C  46,H 107)          107.2539         0.287617   
    319. A(H 105,C  46,H 107)          107.4252         0.287754   
    320. A(C  45,C  46,H 107)          111.7019         0.323224   
    321. A(H 105,C  46,H 106)          108.2079         0.287897   
    322. A(C  45,C  46,H 106)          111.5753         0.323393   
    323. A(C  45,C  46,H 105)          110.4921         0.323554   
    324. A(C  50,C  48,H 108)          109.2421         0.322327   
    325. A(C  49,C  48,H 108)          107.9274         0.322049   
    326. A(C  10,C  48,H 108)          104.9291         0.318773   
    327. A(C  49,C  48,C  50)          111.2792         0.363052   
    328. A(C  10,C  48,C  50)          111.1038         0.359200   
    329. A(C  10,C  48,C  49)          112.0810         0.358878   
    330. A(H 110,C  49,H 111)          106.7502         0.287262   
    331. A(H 109,C  49,H 111)          108.7411         0.287404   
    332. A(C  48,C  49,H 111)          111.3887         0.321563   
    333. A(H 109,C  49,H 110)          107.6944         0.288078   
    334. A(C  48,C  49,H 110)          110.3732         0.322354   
    335. A(C  48,C  49,H 109)          111.6977         0.322520   
    336. A(H 113,C  50,H 114)          107.4132         0.287513   
    337. A(H 112,C  50,H 114)          108.5107         0.287972   
    338. A(C  48,C  50,H 114)          110.2552         0.322544   
    339. A(H 112,C  50,H 113)          107.4015         0.287699   
    340. A(C  48,C  50,H 113)          111.2253         0.322223   
    341. A(C  48,C  50,H 112)          111.8688         0.322763   
    342. D(H  51,C   2,C   1,N   9)   -147.1260         0.009767   
    343. D(C   3,C   2,C   1,N   9)     90.1303         0.009767   
    344. D(N   6,C   2,C   1,N   9)    -26.7331         0.009767   
    345. D(N   6,C   2,C   1,O   0)    155.5159         0.009767   
    346. D(C   3,C   2,C   1,O   0)    -87.6207         0.009767   
    347. D(H  51,C   2,C   1,O   0)     35.1231         0.009767   
    348. D(C   4,C   3,C   2,N   6)     26.6077         0.010188   
    349. D(H  53,C   3,C   2,H  51)    -91.8465         0.010188   
    350. D(H  53,C   3,C   2,C   1)     26.5284         0.010188   
    351. D(C   4,C   3,C   2,H  51)    145.1232         0.010188   
    352. D(H  53,C   3,C   2,N   6)    149.6380         0.010188   
    353. D(H  52,C   3,C   2,H  51)     27.2764         0.010188   
    354. D(C   4,C   3,C   2,C   1)    -96.5018         0.010188   
    355. D(H  52,C   3,C   2,C   1)    145.6514         0.010188   
    356. D(H  52,C   3,C   2,N   6)    -91.2391         0.010188   
    357. D(H  55,C   4,C   3,H  53)     79.8806         0.010692   
    358. D(H  55,C   4,C   3,H  52)    -41.2254         0.010692   
    359. D(H  54,C   4,C   3,H  52)   -161.7675         0.010692   
    360. D(H  55,C   4,C   3,C   2)   -158.2554         0.010692   
    361. D(H  54,C   4,C   3,H  53)    -40.6615         0.010692   
    362. D(C   5,C   4,C   3,C   2)    -36.6988         0.010692   
    363. D(H  54,C   4,C   3,C   2)     81.2025         0.010692   
    364. D(C   5,C   4,C   3,H  53)   -158.5627         0.010692   
    365. D(C   5,C   4,C   3,H  52)     80.3312         0.010692   
    366. D(N   6,C   5,C   4,C   3)     31.9638         0.010897   
    367. D(H  57,C   5,C   4,C   3)    -86.2135         0.010897   
    368. D(H  56,C   5,C   4,H  55)    -85.7613         0.010897   
    369. D(H  56,C   5,C   4,C   3)    151.9762         0.010897   
    370. D(H  57,C   5,C   4,H  54)    155.7534         0.010897   
    371. D(H  56,C   5,C   4,H  54)     33.9431         0.010897   
    372. D(H  57,C   5,C   4,H  55)     36.0490         0.010897   
    373. D(N   6,C   5,C   4,H  54)    -86.0693         0.010897   
    374. D(N   6,C   5,C   4,H  55)    154.2263         0.010897   
    375. D(C   5,N   6,C   2,C   3)     -6.6420         0.014390   
    376. D(C   7,N   6,C   5,H  57)    -67.3575         0.014219   
    377. D(C   7,N   6,C   5,H  56)     52.4617         0.014219   
    378. D(C   7,N   6,C   5,C   4)    173.7889         0.014219   
    379. D(C   2,N   6,C   5,H  57)    102.8674         0.014219   
    380. D(C   2,N   6,C   5,H  56)   -137.3133         0.014219   
    381. D(C   7,N   6,C   2,H  51)     44.2282         0.014390   
    382. D(C   2,N   6,C   5,C   4)    -15.9862         0.014219   
    383. D(C   7,N   6,C   2,C   3)    164.6206         0.014390   
    384. D(C   5,N   6,C   2,C   1)    115.3140         0.014390   
    385. D(C   7,N   6,C   2,C   1)    -73.4235         0.014390   
    386. D(C   5,N   6,C   2,H  51)   -127.0343         0.014390   
    387. D(C  24,C   7,N   6,C   5)     -2.9616         0.032637   
    388. D(C  24,C   7,N   6,C   2)   -172.7215         0.032637   
    389. D(O   8,C   7,N   6,C   5)    173.8082         0.032637   
    390. D(O   8,C   7,N   6,C   2)      4.0484         0.032637   
    391. D(H  58,N   9,C   1,O   0)    174.8520         0.029456   
    392. D(C  10,N   9,C   1,C   2)   -169.4310         0.029456   
    393. D(H  58,N   9,C   1,C   2)     -2.8133         0.029456   
    394. D(C  10,N   9,C   1,O   0)      8.2343         0.029456   
    395. D(H  59,C  10,N   9,C   1)    -22.0843         0.016299   
    396. D(C  48,C  10,N   9,H  58)    -70.8046         0.016299   
    397. D(C  48,C  10,N   9,C   1)     95.7008         0.016299   
    398. D(C  11,C  10,N   9,C   1)   -138.8405         0.016299   
    399. D(H  59,C  10,N   9,H  58)    171.4103         0.016299   
    400. D(C  11,C  10,N   9,H  58)     54.6541         0.016299   
    401. D(O  47,C  11,C  10,N   9)   -157.2719         0.009590   
    402. D(N  12,C  11,C  10,H  59)    -92.0532         0.009590   
    403. D(N  12,C  11,C  10,C  48)    149.9536         0.009590   
    404. D(N  12,C  11,C  10,N   9)     23.1905         0.009590   
    405. D(O  47,C  11,C  10,H  59)     87.4844         0.009590   
    406. D(O  47,C  11,C  10,C  48)    -30.5088         0.009590   
    407. D(H  60,N  12,C  11,O  47)   -179.3621         0.029577   
    408. D(H  60,N  12,C  11,C  10)      0.1673         0.029577   
    409. D(C  13,N  12,C  11,O  47)     14.8235         0.029577   
    410. D(C  13,N  12,C  11,C  10)   -165.6471         0.029577   
    411. D(H  61,C  13,N  12,C  11)    -18.9181         0.016177   
    412. D(H  61,C  13,N  12,H  60)    175.0816         0.016177   
    413. D(C  45,C  13,N  12,H  60)    -65.6733         0.016177   
    414. D(C  45,C  13,N  12,C  11)    100.3270         0.016177   
    415. D(C  14,C  13,N  12,C  11)   -136.9512         0.016177   
    416. D(C  14,C  13,N  12,H  60)     57.0485         0.016177   
    417. D(O  44,C  14,C  13,C  45)    -20.5767         0.010111   
    418. D(O  44,C  14,C  13,N  12)   -144.3083         0.010111   
    419. D(N  15,C  14,C  13,H  61)    -81.1814         0.010111   
    420. D(N  15,C  14,C  13,C  45)    158.4010         0.010111   
    421. D(O  44,C  14,C  13,H  61)     99.8408         0.010111   
    422. D(N  15,C  14,C  13,N  12)     34.6695         0.010111   
    423. D(H  62,N  15,C  14,O  44)    168.4048         0.030980   
    424. D(H  62,N  15,C  14,C  13)    -10.5589         0.030980   
    425. D(C  16,N  15,C  14,O  44)     25.5440         0.030980   
    426. D(C  16,N  15,C  14,C  13)   -153.4197         0.030980   
    427. D(H  64,C  16,N  15,H  62)     63.0375         0.016982   
    428. D(H  64,C  16,N  15,C  14)   -154.9518         0.016982   
    429. D(H  63,C  16,N  15,H  62)    179.7930         0.016982   
    430. D(H  63,C  16,N  15,C  14)    -38.1963         0.016982   
    431. D(C  17,C  16,N  15,C  14)     83.2408         0.016982   
    432. D(C  17,C  16,N  15,H  62)    -58.7699         0.016982   
    433. D(H  65,C  17,C  16,H  64)    -20.5007         0.008571   
    434. D(H  65,C  17,C  16,H  63)   -139.3376         0.008571   
    435. D(H  65,C  17,C  16,N  15)    101.6727         0.008571   
    436. D(O  43,C  17,C  16,H  64)   -137.2067         0.008571   
    437. D(O  43,C  17,C  16,H  63)    103.9564         0.008571   
    438. D(O  43,C  17,C  16,N  15)    -15.0332         0.008571   
    439. D(C  18,C  17,C  16,H  64)     97.6548         0.008571   
    440. D(C  18,C  17,C  16,H  63)    -21.1821         0.008571   
    441. D(C  18,C  17,C  16,N  15)   -140.1718         0.008571   
    442. D(H  66,C  18,C  17,H  65)     93.7964         0.009069   
    443. D(H  66,C  18,C  17,O  43)   -146.2095         0.009069   
    444. D(H  66,C  18,C  17,C  16)    -24.2457         0.009069   
    445. D(C  32,C  18,C  17,O  43)     97.8266         0.009069   
    446. D(C  32,C  18,C  17,C  16)   -140.2097         0.009069   
    447. D(C  32,C  18,C  17,H  65)    -22.1675         0.009069   
    448. D(C  19,C  18,C  17,H  65)   -143.6711         0.009069   
    449. D(C  19,C  18,C  17,O  43)    -23.6770         0.009069   
    450. D(C  19,C  18,C  17,C  16)     98.2867         0.009069   
    451. D(O  31,C  19,C  18,H  66)   -104.1517         0.009778   
    452. D(O  31,C  19,C  18,C  32)      9.8990         0.009778   
    453. D(O  31,C  19,C  18,C  17)    133.1284         0.009778   
    454. D(N  20,C  19,C  18,H  66)     76.5947         0.009778   
    455. D(N  20,C  19,C  18,C  17)    -46.1252         0.009778   
    456. D(N  20,C  19,C  18,C  32)   -169.3546         0.009778   
    457. D(H  67,N  20,C  19,O  31)   -179.7818         0.032603   
    458. D(H  67,N  20,C  19,C  18)     -0.5532         0.032603   
    459. D(C  21,N  20,C  19,O  31)     -6.3111         0.032603   
    460. D(C  21,N  20,C  19,C  18)    172.9175         0.032603   
    461. D(H  68,C  21,N  20,H  67)   -149.6547         0.016261   
    462. D(H  68,C  21,N  20,C  19)     36.5852         0.016261   
    463. D(C  27,C  21,N  20,H  67)    -28.8169         0.016261   
    464. D(C  27,C  21,N  20,C  19)    157.4231         0.016261   
    465. D(C  22,C  21,N  20,H  67)     96.7458         0.016261   
    466. D(C  22,C  21,N  20,C  19)    -77.0142         0.016261   
    467. D(N  23,C  22,C  21,C  27)    124.1363         0.009170   
    468. D(N  23,C  22,C  21,N  20)     -2.3672         0.009170   
    469. D(O  26,C  22,C  21,H  68)     60.4541         0.009170   
    470. D(O  26,C  22,C  21,C  27)    -57.0053         0.009170   
    471. D(O  26,C  22,C  21,N  20)    176.4912         0.009170   
    472. D(N  23,C  22,C  21,H  68)   -118.4043         0.009170   
    473. D(H  69,N  23,C  22,O  26)   -178.4753         0.031155   
    474. D(H  69,N  23,C  22,C  21)      0.3551         0.031155   
    475. D(C  24,N  23,C  22,O  26)    -12.2749         0.031155   
    476. D(C  24,N  23,C  22,C  21)    166.5555         0.031155   
    477. D(H  70,C  24,N  23,H  69)   -139.0406         0.016686   
    478. D(H  70,C  24,N  23,C  22)     54.7768         0.016686   
    479. D(C  25,C  24,N  23,H  69)    101.1579         0.016686   
    480. D(C  25,C  24,N  23,C  22)    -65.0247         0.016686   
    481. D(C   7,C  24,N  23,H  69)    -18.0226         0.016686   
    482. D(C   7,C  24,N  23,C  22)    175.7949         0.016686   
    483. D(H  70,C  24,C   7,O   8)    159.7735         0.010919   
    484. D(H  70,C  24,C   7,N   6)    -23.5384         0.010919   
    485. D(C  25,C  24,C   7,O   8)    -81.1125         0.010919   
    486. D(C  25,C  24,C   7,N   6)     95.5756         0.010919   
    487. D(N  23,C  24,C   7,O   8)     40.6047         0.010919   
    488. D(N  23,C  24,C   7,N   6)   -142.7072         0.010919   
    489. D(H  73,C  25,C  24,H  70)   -179.2939         0.010168   
    490. D(H  73,C  25,C  24,N  23)    -59.7897         0.010168   
    491. D(H  73,C  25,C  24,C   7)     60.0225         0.010168   
    492. D(H  72,C  25,C  24,H  70)     60.1472         0.010168   
    493. D(H  72,C  25,C  24,N  23)    179.6514         0.010168   
    494. D(H  72,C  25,C  24,C   7)    -60.5364         0.010168   
    495. D(H  71,C  25,C  24,H  70)    -59.6594         0.010168   
    496. D(H  71,C  25,C  24,N  23)     59.8448         0.010168   
    497. D(H  71,C  25,C  24,C   7)    179.6570         0.010168   
    498. D(H  75,C  27,C  21,H  68)    163.8505         0.010832   
    499. D(H  75,C  27,C  21,C  22)    -82.6164         0.010832   
    500. D(H  75,C  27,C  21,N  20)     44.2941         0.010832   
    501. D(H  74,C  27,C  21,H  68)    -80.7255         0.010832   
    502. D(H  74,C  27,C  21,C  22)     32.8076         0.010832   
    503. D(H  74,C  27,C  21,N  20)    159.7181         0.010832   
    504. D(C  28,C  27,C  21,H  68)     39.9520         0.010832   
    505. D(C  28,C  27,C  21,C  22)    153.4852         0.010832   
    506. D(C  28,C  27,C  21,N  20)    -79.6043         0.010832   
    507. D(H  76,C  28,C  27,H  75)    178.1322         0.010558   
    508. D(H  76,C  28,C  27,H  74)     61.1965         0.010558   
    509. D(H  76,C  28,C  27,C  21)    -58.2907         0.010558   
    510. D(C  30,C  28,C  27,H  75)     61.2555         0.010558   
    511. D(C  30,C  28,C  27,H  74)    -55.6803         0.010558   
    512. D(C  30,C  28,C  27,C  21)   -175.1675         0.010558   
    513. D(C  29,C  28,C  27,H  75)    -62.5064         0.010558   
    514. D(C  29,C  28,C  27,H  74)   -179.4421         0.010558   
    515. D(C  29,C  28,C  27,C  21)     61.0707         0.010558   
    516. D(H  79,C  29,C  28,C  30)     52.9361         0.010846   
    517. D(H  79,C  29,C  28,C  27)    176.0214         0.010846   
    518. D(H  78,C  29,C  28,H  76)    175.4531         0.010846   
    519. D(H  78,C  29,C  28,C  30)    -66.5318         0.010846   
    520. D(H  78,C  29,C  28,C  27)     56.5535         0.010846   
    521. D(H  77,C  29,C  28,H  76)     54.9956         0.010846   
    522. D(H  77,C  29,C  28,C  30)    173.0107         0.010846   
    523. D(H  79,C  29,C  28,H  76)    -65.0790         0.010846   
    524. D(H  77,C  29,C  28,C  27)    -63.9040         0.010846   
    525. D(H  82,C  30,C  28,H  76)    179.7970         0.010879   
    526. D(H  82,C  30,C  28,C  29)     61.7769         0.010879   
    527. D(H  82,C  30,C  28,C  27)    -63.8342         0.010879   
    528. D(H  81,C  30,C  28,H  76)     60.3016         0.010879   
    529. D(H  81,C  30,C  28,C  29)    -57.7185         0.010879   
    530. D(H  81,C  30,C  28,C  27)    176.6704         0.010879   
    531. D(H  80,C  30,C  28,H  76)    -60.2882         0.010879   
    532. D(H  80,C  30,C  28,C  29)   -178.3084         0.010879   
    533. D(H  80,C  30,C  28,C  27)     56.0805         0.010879   
    534. D(O  42,C  32,C  18,H  66)     -1.7810         0.009706   
    535. D(O  42,C  32,C  18,C  19)   -117.5410         0.009706   
    536. D(O  42,C  32,C  18,C  17)    115.9863         0.009706   
    537. D(C  33,C  32,C  18,H  66)   -177.9937         0.009706   
    538. D(C  33,C  32,C  18,C  19)     66.2464         0.009706   
    539. D(C  33,C  32,C  18,C  17)    -60.2264         0.009706   
    540. D(H  84,C  33,C  32,O  42)    172.0057         0.011163   
    541. D(H  84,C  33,C  32,C  18)    -11.8481         0.011163   
    542. D(H  83,C  33,C  32,O  42)    -71.5483         0.011163   
    543. D(H  83,C  33,C  32,C  18)    104.5979         0.011163   
    544. D(C  34,C  33,C  32,O  42)     48.9760         0.011163   
    545. D(C  34,C  33,C  32,C  18)   -134.8777         0.011163   
    546. D(H  86,C  34,C  33,H  84)    179.2410         0.010981   
    547. D(H  86,C  34,C  33,H  83)     62.2142         0.010981   
    548. D(H  86,C  34,C  33,C  32)    -56.8790         0.010981   
    549. D(H  85,C  34,C  33,H  84)    -64.7407         0.010981   
    550. D(H  85,C  34,C  33,H  83)    178.2325         0.010981   
    551. D(H  85,C  34,C  33,C  32)     59.1393         0.010981   
    552. D(C  35,C  34,C  33,H  84)     56.4256         0.010981   
    553. D(C  35,C  34,C  33,H  83)    -60.6011         0.010981   
    554. D(C  35,C  34,C  33,C  32)   -179.6944         0.010981   
    555. D(H  88,C  35,C  34,H  86)   -176.2828         0.011219   
    556. D(H  88,C  35,C  34,H  85)     65.7271         0.011219   
    557. D(H  88,C  35,C  34,C  33)    -54.2296         0.011219   
    558. D(H  87,C  35,C  34,H  86)    -60.9079         0.011219   
    559. D(H  87,C  35,C  34,H  85)   -178.8980         0.011219   
    560. D(H  87,C  35,C  34,C  33)     61.1453         0.011219   
    561. D(C  36,C  35,C  34,H  86)     61.8664         0.011219   
    562. D(C  36,C  35,C  34,H  85)    -56.1237         0.011219   
    563. D(C  36,C  35,C  34,C  33)   -176.0803         0.011219   
    564. D(H  90,C  36,C  35,H  87)     63.7513         0.011174   
    565. D(H  90,C  36,C  35,C  34)    -59.1285         0.011174   
    566. D(H  89,C  36,C  35,H  88)    -65.4871         0.011174   
    567. D(H  89,C  36,C  35,H  87)    179.2669         0.011174   
    568. D(H  89,C  36,C  35,C  34)     56.3871         0.011174   
    569. D(C  37,C  36,C  35,H  88)     56.6069         0.011174   
    570. D(C  37,C  36,C  35,H  87)    -58.6390         0.011174   
    571. D(H  90,C  36,C  35,H  88)    178.9973         0.011174   
    572. D(C  37,C  36,C  35,C  34)    178.4812         0.011174   
    573. D(H  92,C  37,C  36,H  90)   -179.7114         0.011122   
    574. D(H  92,C  37,C  36,H  89)     64.6630         0.011122   
    575. D(H  92,C  37,C  36,C  35)    -57.3331         0.011122   
    576. D(H  91,C  37,C  36,H  90)    -64.3027         0.011122   
    577. D(H  91,C  37,C  36,H  89)   -179.9283         0.011122   
    578. D(H  91,C  37,C  36,C  35)     58.0757         0.011122   
    579. D(C  38,C  37,C  36,H  90)     58.1195         0.011122   
    580. D(C  38,C  37,C  36,H  89)    -57.5061         0.011122   
    581. D(C  38,C  37,C  36,C  35)   -179.5021         0.011122   
    582. D(H  94,C  38,C  37,H  92)    179.7882         0.011130   
    583. D(H  94,C  38,C  37,H  91)     64.3732         0.011130   
    584. D(H  94,C  38,C  37,C  36)    -58.0702         0.011130   
    585. D(H  93,C  38,C  37,H  92)    -64.7814         0.011130   
    586. D(H  93,C  38,C  37,H  91)    179.8035         0.011130   
    587. D(H  93,C  38,C  37,C  36)     57.3602         0.011130   
    588. D(C  39,C  38,C  37,H  92)     57.4975         0.011130   
    589. D(C  39,C  38,C  37,H  91)    -57.9176         0.011130   
    590. D(C  39,C  38,C  37,C  36)    179.6391         0.011130   
    591. D(H  95,C  39,C  38,H  94)    -64.5166         0.011127   
    592. D(H  95,C  39,C  38,H  93)   -179.9853         0.011127   
    593. D(H  95,C  39,C  38,C  37)     57.7604         0.011127   
    594. D(C  40,C  39,C  38,H  94)     57.7931         0.011127   
    595. D(C  40,C  39,C  38,H  93)    -57.6756         0.011127   
    596. D(C  40,C  39,C  38,C  37)   -179.9300         0.011127   
    597. D(H  96,C  39,C  38,H  94)   -179.9572         0.011127   
    598. D(H  96,C  39,C  38,H  93)     64.5741         0.011127   
    599. D(H  96,C  39,C  38,C  37)    -57.6803         0.011127   
    600. D(H  98,C  40,C  39,H  95)     64.6314         0.011070   
    601. D(H  98,C  40,C  39,C  38)    -57.7265         0.011070   
    602. D(H  97,C  40,C  39,H  96)    -64.7068         0.011070   
    603. D(H  97,C  40,C  39,H  95)    179.9500         0.011070   
    604. D(H  97,C  40,C  39,C  38)     57.5921         0.011070   
    605. D(C  41,C  40,C  39,H  96)     57.6436         0.011070   
    606. D(C  41,C  40,C  39,H  95)    -57.6996         0.011070   
    607. D(H  98,C  40,C  39,H  96)    179.9746         0.011070   
    608. D(C  41,C  40,C  39,C  38)    179.9425         0.011070   
    609. D(H 101,C  41,C  40,H  98)    -62.2913         0.011152   
    610. D(H 101,C  41,C  40,H  97)   -178.1841         0.011152   
    611. D(H 101,C  41,C  40,C  39)     59.7527         0.011152   
    612. D(H 100,C  41,C  40,H  98)    178.1627         0.011152   
    613. D(H 100,C  41,C  40,H  97)     62.2699         0.011152   
    614. D(H 100,C  41,C  40,C  39)    -59.7933         0.011152   
    615. D(H  99,C  41,C  40,H  98)     57.9414         0.011152   
    616. D(H  99,C  41,C  40,H  97)    -57.9514         0.011152   
    617. D(H  99,C  41,C  40,C  39)    179.9854         0.011152   
    618. D(H 102,O  43,C  17,H  65)     41.6912         0.018941   
    619. D(H 102,O  43,C  17,C  18)    -77.8688         0.018941   
    620. D(H 102,O  43,C  17,C  16)    157.7747         0.018941   
    621. D(H 104,C  45,C  13,H  61)   -179.7159         0.010557   
    622. D(H 104,C  45,C  13,C  14)    -59.7789         0.010557   
    623. D(H 104,C  45,C  13,N  12)     63.6574         0.010557   
    624. D(H 103,C  45,C  13,H  61)    -65.4572         0.010557   
    625. D(H 103,C  45,C  13,C  14)     54.4798         0.010557   
    626. D(H 103,C  45,C  13,N  12)    177.9161         0.010557   
    627. D(C  46,C  45,C  13,H  61)     57.2276         0.010557   
    628. D(C  46,C  45,C  13,C  14)    177.1645         0.010557   
    629. D(C  46,C  45,C  13,N  12)    -59.3992         0.010557   
    630. D(H 107,C  46,C  45,H 104)    -60.2985         0.011498   
    631. D(H 107,C  46,C  45,H 103)   -177.4002         0.011498   
    632. D(H 107,C  46,C  45,C  13)     61.6107         0.011498   
    633. D(H 106,C  46,C  45,H 104)    179.6577         0.011498   
    634. D(H 106,C  46,C  45,H 103)     62.5560         0.011498   
    635. D(H 106,C  46,C  45,C  13)    -58.4330         0.011498   
    636. D(H 105,C  46,C  45,H 104)     59.2274         0.011498   
    637. D(H 105,C  46,C  45,H 103)    -57.8743         0.011498   
    638. D(H 105,C  46,C  45,C  13)   -178.8634         0.011498   
    639. D(H 108,C  48,C  10,H  59)    -66.0998         0.009826   
    640. D(H 108,C  48,C  10,C  11)     51.5828         0.009826   
    641. D(H 108,C  48,C  10,N   9)    177.8928         0.009826   
    642. D(C  50,C  48,C  10,H  59)     51.8369         0.009826   
    643. D(C  50,C  48,C  10,C  11)    169.5195         0.009826   
    644. D(C  50,C  48,C  10,N   9)    -64.1705         0.009826   
    645. D(C  49,C  48,C  10,H  59)    177.0319         0.009826   
    646. D(C  49,C  48,C  10,C  11)    -65.2856         0.009826   
    647. D(C  49,C  48,C  10,N   9)     61.0244         0.009826   
    648. D(H 111,C  49,C  48,C  50)     61.1995         0.011038   
    649. D(H 111,C  49,C  48,C  10)    -63.8989         0.011038   
    650. D(H 110,C  49,C  48,H 108)     62.6489         0.011038   
    651. D(H 110,C  49,C  48,C  50)    -57.2004         0.011038   
    652. D(H 110,C  49,C  48,C  10)    177.7013         0.011038   
    653. D(H 109,C  49,C  48,H 108)    -57.1337         0.011038   
    654. D(H 109,C  49,C  48,C  50)   -176.9830         0.011038   
    655. D(H 111,C  49,C  48,H 108)   -178.9512         0.011038   
    656. D(H 109,C  49,C  48,C  10)     57.9187         0.011038   
    657. D(H 114,C  50,C  48,H 108)    -59.9825         0.011148   
    658. D(H 114,C  50,C  48,C  49)     59.0841         0.011148   
    659. D(H 114,C  50,C  48,C  10)   -175.2727         0.011148   
    660. D(H 113,C  50,C  48,H 108)   -179.0292         0.011148   
    661. D(H 113,C  50,C  48,C  49)    -59.9626         0.011148   
    662. D(H 113,C  50,C  48,C  10)     65.6806         0.011148   
    663. D(H 112,C  50,C  48,H 108)     60.8654         0.011148   
    664. D(H 112,C  50,C  48,C  49)    179.9321         0.011148   
    665. D(H 112,C  50,C  48,C  10)    -54.4247         0.011148   
    -----------------------------------------------------------------

Number of atoms                         .... 115
Number of degrees of freedom            .... 665

         *************************************************************
         *                GEOMETRY OPTIMIZATION CYCLE   1            *
         *************************************************************
---------------------------------
CARTESIAN COORDINATES (ANGSTROEM)
---------------------------------
  O      4.693477    1.574363   -2.097171
  C      4.259195    1.571121   -0.951304
  C      3.249917    2.641203   -0.496188
  C      3.946471    3.912407    0.032867
  C      3.973229    3.717977    1.556273
  C      2.638195    3.025064    1.853578
  N      2.404855    2.222828    0.636991
  C      1.419604    1.319771    0.407087
  O      1.304741    0.815616   -0.725620
  N      4.652457    0.680139    0.010917
  C      5.758453   -0.249268   -0.179743
  C      5.443012   -1.648713    0.387019
  N      4.114879   -1.957013    0.505175
  C      3.653942   -3.092723    1.295141
  C      2.552228   -3.865273    0.557205
  N      2.655705   -3.933029   -0.799864
  C      1.433398   -4.101782   -1.564534
  C      0.708133   -2.731836   -1.807077
  C     -0.841162   -2.859360   -1.672207
  C     -1.427969   -2.432046   -0.314500
  N     -0.820000   -2.873771    0.814522
  C     -1.223104   -2.390102    2.129001
  C     -0.684872   -0.971321    2.440791
  N      0.111502   -0.408881    1.489767
  C      0.436751    1.007748    1.528474
  C     -0.811201    1.892339    1.323382
  O     -0.991291   -0.396015    3.486051
  C     -0.839055   -3.366435    3.248277
  C     -1.773849   -4.574256    3.427904
  C     -1.853938   -5.478201    2.191225
  C     -1.325945   -5.380896    4.652755
  O     -2.419668   -1.693411   -0.288999
  C     -1.542037   -2.013522   -2.752497
  C     -1.273934   -0.517110   -2.748669
  C     -2.545480    0.320040   -2.921125
  C     -2.243579    1.818965   -2.920826
  C     -3.497420    2.691909   -2.995362
  C     -3.193662    4.191271   -2.957660
  C     -4.442939    5.072699   -3.019584
  C     -4.136103    6.571112   -2.972859
  C     -5.384225    7.455655   -3.032937
  C     -5.064427    8.950947   -2.984060
  O     -2.222935   -2.547420   -3.610217
  O      1.275337   -1.777950   -0.911164
  O      1.611464   -4.379741    1.174658
  C      3.142032   -2.648772    2.675657
  C      4.196892   -1.930064    3.511039
  O      6.339967   -2.428290    0.699310
  C      7.094761    0.279605    0.396551
  C      7.015856    0.518346    1.907141
  C      7.552869    1.539055   -0.341442
  H      2.625032    2.837233   -1.375993
  H      3.341224    4.791745   -0.229862
  H      4.940452    4.046693   -0.409879
  H      4.811581    3.066174    1.844464
  H      4.081159    4.659140    2.108873
  H      2.673454    2.388417    2.747344
  H      1.827532    3.759230    1.989680
  H      4.290455    0.814059    0.950525
  H      5.869063   -0.347087   -1.272514
  H      3.420475   -1.267902    0.218755
  H      4.534837   -3.746357    1.414272
  H      3.364369   -3.319989   -1.198897
  H      0.795574   -4.787418   -0.994449
  H      1.654743   -4.574154   -2.529815
  H      0.930537   -2.416349   -2.840753
  H     -1.132255   -3.904150   -1.867336
  H      0.004423   -3.483823    0.776705
  H     -2.316569   -2.253151    2.112352
  H      0.304923   -0.936722    0.635420
  H      0.871634    1.233759    2.512846
  H     -1.532900    1.676353    2.119073
  H     -0.549264    2.959603    1.361535
  H     -1.265795    1.670223    0.349257
  H     -0.835559   -2.783932    4.180990
  H      0.191388   -3.719221    3.077736
  H     -2.786033   -4.178562    3.629529
  H     -2.288873   -4.957458    1.328301
  H     -0.851764   -5.832245    1.903054
  H     -2.477883   -6.360052    2.399360
  H     -1.291635   -4.754636    5.556494
  H     -2.008822   -6.220907    4.846366
  H     -0.319130   -5.798597    4.493145
  H     -0.581273   -0.311397   -3.585741
  H     -0.763431   -0.214574   -1.824453
  H     -3.228910    0.073052   -2.094591
  H     -3.049989    0.026601   -3.853983
  H     -1.573330    2.063722   -3.764047
  H     -1.679089    2.074559   -2.006024
  H     -4.169088    2.433748   -2.158184
  H     -4.056259    2.453432   -3.917007
  H     -2.522678    4.449684   -3.796070
  H     -2.629988    4.423940   -2.036320
  H     -5.114937    4.811399   -2.183171
  H     -5.005253    4.843828   -3.941924
  H     -3.464088    6.832780   -3.809642
  H     -3.572806    6.799716   -2.050295
  H     -6.054543    7.192270   -2.197044
  H     -5.945390    7.226581   -3.954858
  H     -5.976755    9.562866   -3.028909
  H     -4.532126    9.212039   -2.056489
  H     -4.421887    9.246341   -3.827642
  H      1.151157   -0.843026   -1.207342
  H      2.778463   -3.543360    3.198096
  H      2.260785   -2.002593    2.528605
  H      3.787443   -1.653034    4.491920
  H      5.082156   -2.560973    3.674129
  H      4.540493   -1.005229    3.024353
  H      7.819768   -0.528730    0.218833
  H      6.739173   -0.395724    2.448623
  H      7.988581    0.853424    2.292754
  H      6.287406    1.309333    2.151796
  H      7.613998    1.378199   -1.425914
  H      6.857879    2.375637   -0.171366
  H      8.541650    1.853984    0.020911

----------------------------
CARTESIAN COORDINATES (A.U.)
----------------------------
  NO LB      ZA    FRAG     MASS         X           Y           Z
   0 O     8.0000    0    15.999    8.869386    2.975115   -3.963079
   1 C     6.0000    0    12.011    8.048712    2.968988   -1.797703
   2 C     6.0000    0    12.011    6.141453    4.991150   -0.937659
   3 C     6.0000    0    12.011    7.457749    7.393377    0.062110
   4 C     6.0000    0    12.011    7.508316    7.025958    2.940929
   5 C     6.0000    0    12.011    4.985465    5.716542    3.502755
   6 N     7.0000    0    14.007    4.544517    4.200535    1.203738
   7 C     6.0000    0    12.011    2.682662    2.494005    0.769282
   8 O     8.0000    0    15.999    2.465603    1.541291   -1.371222
   9 N     7.0000    0    14.007    8.791869    1.285276    0.020630
  10 C     6.0000    0    12.011   10.881899   -0.471049   -0.339665
  11 C     6.0000    0    12.011   10.285803   -3.115616    0.731360
  12 N     7.0000    0    14.007    7.775994   -3.698219    0.954642
  13 C     6.0000    0    12.011    6.904949   -5.844399    2.447461
  14 C     6.0000    0    12.011    4.823012   -7.304308    1.052965
  15 N     7.0000    0    14.007    5.018555   -7.432348   -1.511523
  16 C     6.0000    0    12.011    2.708729   -7.751244   -2.956540
  17 C     6.0000    0    12.011    1.338178   -5.162422   -3.414880
  18 C     6.0000    0    12.011   -1.589565   -5.403408   -3.160012
  19 C     6.0000    0    12.011   -2.698470   -4.595901   -0.594319
  20 N     7.0000    0    14.007   -1.549576   -5.430640    1.539223
  21 C     6.0000    0    12.011   -2.311331   -4.516638    4.023228
  22 C     6.0000    0    12.011   -1.294221   -1.835531    4.612427
  23 N     7.0000    0    14.007    0.210708   -0.772672    2.815251
  24 C     6.0000    0    12.011    0.825340    1.904367    2.888397
  25 C     6.0000    0    12.011   -1.532947    3.576003    2.500830
  26 O     8.0000    0    15.999   -1.873268   -0.748359    6.587682
  27 C     6.0000    0    12.011   -1.585585   -6.361640    6.138355
  28 C     6.0000    0    12.011   -3.352090   -8.644091    6.477799
  29 C     6.0000    0    12.011   -3.503434  -10.352300    4.140815
  30 C     6.0000    0    12.011   -2.505674  -10.168419    8.792433
  31 O     8.0000    0    15.999   -4.572509   -3.200082   -0.546130
  32 C     6.0000    0    12.011   -2.914027   -3.805005   -5.201465
  33 C     6.0000    0    12.011   -2.407387   -0.977196   -5.194232
  34 C     6.0000    0    12.011   -4.810260    0.604788   -5.520127
  35 C     6.0000    0    12.011   -4.239750    3.437345   -5.519561
  36 C     6.0000    0    12.011   -6.609166    5.086971   -5.660414
  37 C     6.0000    0    12.011   -6.035147    7.920355   -5.589167
  38 C     6.0000    0    12.011   -8.395938    9.586013   -5.706188
  39 C     6.0000    0    12.011   -7.816101   12.417601   -5.617888
  40 C     6.0000    0    12.011  -10.174711   14.089147   -5.731420
  41 C     6.0000    0    12.011   -9.570379   16.914838   -5.639056
  42 O     8.0000    0    15.999   -4.200739   -4.813926   -6.822321
  43 O     8.0000    0    15.999    2.410037   -3.359838   -1.721851
  44 O     8.0000    0    15.999    3.045226   -8.276511    2.219782
  45 C     6.0000    0    12.011    5.937579   -5.005454    5.056259
  46 C     6.0000    0    12.011    7.930977   -3.647292    6.634903
  47 O     8.0000    0    15.999   11.980801   -4.588804    1.321504
  48 C     6.0000    0    12.011   13.407155    0.528378    0.749372
  49 C     6.0000    0    12.011   13.258047    0.979532    3.603974
  50 C     6.0000    0    12.011   14.272855    2.908392   -0.645232
  51 H     1.0000    0     1.008    4.960592    5.361593   -2.600251
  52 H     1.0000    0     1.008    6.313998    9.055086   -0.434375
  53 H     1.0000    0     1.008    9.336100    7.647141   -0.774559
  54 H     1.0000    0     1.008    9.092570    5.794230    3.485532
  55 H     1.0000    0     1.008    7.712273    8.804499    3.985192
  56 H     1.0000    0     1.008    5.052096    4.513453    5.191727
  57 H     1.0000    0     1.008    3.453535    7.103916    3.759950
  58 H     1.0000    0     1.008    8.107785    1.538349    1.796233
  59 H     1.0000    0     1.008   11.090922   -0.655898   -2.404703
  60 H     1.0000    0     1.008    6.463761   -2.395988    0.413387
  61 H     1.0000    0     1.008    8.569600   -7.079589    2.672587
  62 H     1.0000    0     1.008    6.357737   -6.273871   -2.265586
  63 H     1.0000    0     1.008    1.503417   -9.046909   -1.879236
  64 H     1.0000    0     1.008    3.127010   -8.643899   -4.780657
  65 H     1.0000    0     1.008    1.758461   -4.566238   -5.368246
  66 H     1.0000    0     1.008   -2.139652   -7.377775   -3.528754
  67 H     1.0000    0     1.008    0.008358   -6.583472    1.467759
  68 H     1.0000    0     1.008   -4.377680   -4.257838    3.991767
  69 H     1.0000    0     1.008    0.576222   -1.770148    1.200770
  70 H     1.0000    0     1.008    1.647149    2.331467    4.748591
  71 H     1.0000    0     1.008   -2.896762    3.167847    4.004467
  72 H     1.0000    0     1.008   -1.037958    5.592839    2.572928
  73 H     1.0000    0     1.008   -2.392005    3.156264    0.660000
  74 H     1.0000    0     1.008   -1.578978   -5.260868    7.900926
  75 H     1.0000    0     1.008    0.361672   -7.028308    5.816078
  76 H     1.0000    0     1.008   -5.264840   -7.896337    6.858815
  77 H     1.0000    0     1.008   -4.325343   -9.368238    2.510126
  78 H     1.0000    0     1.008   -1.609601  -11.021346    3.596252
  79 H     1.0000    0     1.008   -4.682520  -12.018757    4.534134
  80 H     1.0000    0     1.008   -2.440836   -8.984959   10.500252
  81 H     1.0000    0     1.008   -3.796123  -11.755811    9.158305
  82 H     1.0000    0     1.008   -0.603068  -10.957761    8.490813
  83 H     1.0000    0     1.008   -1.098448   -0.588454   -6.776068
  84 H     1.0000    0     1.008   -1.442675   -0.405486   -3.447716
  85 H     1.0000    0     1.008   -6.101756    0.138049   -3.958204
  86 H     1.0000    0     1.008   -5.763644    0.050268   -7.282972
  87 H     1.0000    0     1.008   -2.973163    3.899870   -7.113017
  88 H     1.0000    0     1.008   -3.173018    3.920347   -3.790836
  89 H     1.0000    0     1.008   -7.878435    4.599118   -4.078376
  90 H     1.0000    0     1.008   -7.665218    4.636315   -7.402070
  91 H     1.0000    0     1.008   -4.767171    8.408684   -7.173532
  92 H     1.0000    0     1.008   -4.969958    8.360035   -3.848087
  93 H     1.0000    0     1.008   -9.665830    9.092227   -4.125595
  94 H     1.0000    0     1.008   -9.458557    9.153509   -7.449157
  95 H     1.0000    0     1.008   -6.546177   12.912083   -7.199180
  96 H     1.0000    0     1.008   -6.751625   12.849601   -3.874496
  97 H     1.0000    0     1.008  -11.441428   13.591421   -4.151812
  98 H     1.0000    0     1.008  -11.235159   13.656259   -7.473599
  99 H     1.0000    0     1.008  -11.294430   18.071198   -5.723808
 100 H     1.0000    0     1.008   -8.564477   17.408232   -3.886201
 101 H     1.0000    0     1.008   -8.356155   17.473052   -7.233195
 102 H     1.0000    0     1.008    2.175371   -1.593088   -2.281546
 103 H     1.0000    0     1.008    5.250534   -6.695979    6.043525
 104 H     1.0000    0     1.008    4.272264   -3.784351    4.778371
 105 H     1.0000    0     1.008    7.157230   -3.123782    8.488500
 106 H     1.0000    0     1.008    9.603883   -4.839537    6.943097
 107 H     1.0000    0     1.008    8.580288   -1.899607    5.715198
 108 H     1.0000    0     1.008   14.777221   -0.999154    0.413534
 109 H     1.0000    0     1.008   12.735192   -0.747811    4.627226
 110 H     1.0000    0     1.008   15.096231    1.612737    4.332677
 111 H     1.0000    0     1.008   11.881475    2.474280    4.066305
 112 H     1.0000    0     1.008   14.388371    2.604419   -2.694587
 113 H     1.0000    0     1.008   12.959513    4.489303   -0.323836
 114 H     1.0000    0     1.008   16.141379    3.503522    0.039516

--------------------------------
INTERNAL COORDINATES (ANGSTROEM)
--------------------------------
 O      0   0   0     0.000000000000     0.00000000     0.00000000
 C      1   0   0     1.225407514624     0.00000000     0.00000000
 C      2   1   0     1.539756047347   120.45439226     0.00000000
 C      3   2   1     1.543063610719   112.20857991   272.37934812
 C      4   3   2     1.535995822280   104.10106211   263.49816411
 C      5   4   3     1.533243949280   103.55353609   323.30120359
 N      3   2   1     1.474198734945   113.93591149   155.51588483
 C      7   3   2     1.356129652796   118.36817210   286.57653871
 O      8   7   3     1.245146216490   119.39736859     4.04835651
 N      2   1   3     1.369077243622   123.85737970   182.44157304
 C     10   2   1     1.457180810760   122.76137177     8.23427515
 C     11  10   2     1.542454727234   112.04782876   221.15949842
 N     12  11  10     1.368557580699   115.75831009    23.19045763
 C     13  12  11     1.458198946008   121.93712628   194.35290486
 C     14  13  12     1.534652176652   111.00832335   223.04879548
 N     15  14  13     1.362693501312   116.70396122    34.66948293
 C     16  15  14     1.451630972891   117.80297116   206.58029716
 C     17  16  15     1.568944568320   111.66401408    83.24080682
 C     18  17  16     1.560374056034   111.97844668   219.82821051
 C     19  18  17     1.539580139551   115.59338077    98.28672644
 N     20  19  18     1.356258434707   118.22010760   313.87480813
 C     21  20  19     1.457492317827   121.24573527   172.91747480
 C     22  21  20     1.549143625966   112.91406471   282.98576989
 N     23  22  21     1.361983430039   116.15631445   357.63280024
 C     24  23  22     1.454001647025   120.96739566   166.55554568
 C     25  24  23     1.543356111078   111.96339067   294.97531456
 O     23  22  21     1.231843126048   120.80276047   176.49120815
 C     22  21  20     1.534112035706   112.18330518   157.42306464
 C     28  22  21     1.537835054217   115.65115046   280.39566181
 C     29  28  22     1.533918359936   113.60375307    61.07069939
 C     29  28  22     1.533475722221   109.20128465   184.83252894
 O     20  19  18     1.236809939431   119.31108551   133.12840012
 C     19  18  17     1.540680182888   110.25559078   219.79034077
 C     33  19  18     1.520244192218   117.28424381   299.77364084
 C     34  33  19     1.532119639787   113.02851612   225.12227432
 C     35  34  33     1.529025702281   111.82391221   180.30564100
 C     36  35  34     1.529608895054   113.42844812   183.91965396
 C     37  36  35     1.530286677985   113.28177215   178.48118832
 C     38  37  36     1.530177521807   113.66159863   180.49785172
 C     39  38  37     1.530219375912   113.52273076   179.63906953
 C     40  39  38     1.530959210894   113.64632336   180.07001531
 C     41  40  39     1.529887798257   113.14352583   179.94253589
 O     33  19  18     1.218340523309   120.48347178   115.98629461
 O     18  17  16     1.426281316184   107.63956102   344.96675637
 O     15  14  13     1.237320470388   121.00989090   215.69174066
 C     14  13  12     1.537845572629   111.51227925   100.32701032
 C     46  14  13     1.525495387315   113.41694495   300.60078178
 O     12  11  10     1.228736870765   121.31432829   202.72809190
 C     11  10   2     1.548399534678   112.86022944    95.70084096
 C     49  11  10     1.531373924938   112.08101360    61.02439747
 C     49  11  10     1.529937921826   111.10380465   295.82946544
 H      3   2   1     1.096798332545   105.10340299    35.12308293
 H      4   3   2     1.099357453527   109.17678125   145.65139414
 H      4   3   2     1.096382329054   111.82018283    26.52844148
 H      5   4   3     1.100333315684   110.36639575    81.20248375
 H      5   4   3     1.096724167392   113.13013015   201.74455275
 H      6   5   4     1.097897914264   113.07599322   151.97620033
 H      6   5   4     1.102133278753   111.30645430   273.78648495
 H     10   2   1     1.015796996598   117.51266582   174.85201056
 H     11  10   2     1.102702042484   105.21110522   337.91569507
 H     13  12  11     1.019365699675   118.98247572     0.16731280
 H     14  13  12     1.103361747242   105.51649590   341.08193645
 H     16  15  14     1.018454931243   114.39931206   349.44112113
 H     17  16  15     1.096317818309   106.77792681   321.80367547
 H     17  16  15     1.097222349150   110.09678759   205.04819492
 H     18  17  16     1.103396149294   107.53597904   101.67269553
 H     19  18  17     1.101996999739   108.93253711   335.75425100
 H     21  20  19     1.026288034745   121.53528903   359.44683349
 H     22  21  20     1.102133249038   107.57837779    36.58520897
 H     24  23  22     1.022710264769   118.73519811     0.35510249
 H     25  24  23     1.099633204386   108.21281024    54.77682771
 H     26  25  24     1.095730131946   108.85057042    59.84482908
 H     26  25  24     1.099599463992   111.04363410   179.65142336
 H     26  25  24     1.097684494523   109.68331469   300.21027505
 H     28  22  21     1.099670169967   106.40970138   159.71808979
 H     28  22  21     1.102432258392   108.95252445    44.29408724
 H     29  28  22     1.105324483305   107.26444990   301.70930024
 H     30  29  28     1.097715392656   112.01851180   296.09599348
 H     30  29  28     1.101244901769   110.66562029    56.55345144
 H     30  29  28     1.100131668076   110.45433059   176.02136703
 H     31  29  28     1.100056063684   111.45960493    56.08053988
 H     31  29  28     1.099738453693   111.16418526   176.67036322
 H     31  29  28     1.101647442738   110.52786177   296.16577706
 H     34  33  19     1.105796363291   106.95837454   104.59792274
 H     34  33  19     1.098325210734   110.80708934   348.15192065
 H     35  34  33     1.100562942288   107.95154748    59.13930584
 H     35  34  33     1.100390243940   109.28222441   303.12102187
 H     36  35  34     1.104609315109   109.68641531    61.14532600
 H     36  35  34     1.104916297765   109.13564349   305.77043636
 H     37  36  35     1.103926345423   109.16725196    56.38714456
 H     37  36  35     1.103902601259   109.41249684   300.87153494
 H     38  37  36     1.104503608887   109.33673666    58.07565583
 H     38  37  36     1.104866455119   109.15611949   302.66694921
 H     39  38  37     1.104285650895   109.26091247    57.36016076
 H     39  38  37     1.104214436775   109.27902742   301.92983504
 H     40  39  38     1.104663293748   109.31769483    57.76035697
 H     40  39  38     1.104846841908   109.28936718   302.31974259
 H     41  40  39     1.103364652276   109.12534545    57.59213547
 H     41  40  39     1.103322539638   109.11601965   302.27352238
 H     42  41  40     1.099454343797   111.66756022   179.98543440
 H     42  41  40     1.100864062256   111.08792490   300.20673096
 H     42  41  40     1.100793359165   111.08852033    59.75273457
 H     44  18  17     0.988546810843   113.22606522   157.77467889
 H     46  14  13     1.097912314004   107.58827416   177.91606364
 H     46  14  13     1.102619155298   108.39112213    63.65735287
 H     47  46  14     1.098417797397   110.49212790   181.13664880
 H     47  46  14     1.099243387389   111.57529157   301.56695731
 H     47  46  14     1.100111766080   111.70194631    61.61073697
 H     49  11  10     1.100284145707   104.92913137   177.89277624
 H     50  49  11     1.097852597805   111.69765912    57.91866893
 H     50  49  11     1.098712294330   110.37317515   177.70127474
 H     50  49  11     1.102794884285   111.38873576   296.10111772
 H     51  49  11     1.098039784985   111.86882640   305.57525547
 H     51  49  11     1.100820858749   111.22531815    65.68059420
 H     51  49  11     1.099166370089   110.25515329   184.72730050

---------------------------
INTERNAL COORDINATES (A.U.)
---------------------------
 O      0   0   0     0.000000000000     0.00000000     0.00000000
 C      1   0   0     2.315684605089     0.00000000     0.00000000
 C      2   1   0     2.909717242536   120.45439226     0.00000000
 C      3   2   1     2.915967631478   112.20857991   272.37934812
 C      4   3   2     2.902611446956   104.10106211   263.49816411
 C      5   4   3     2.897411160631   103.55353609   323.30120359
 N      3   2   1     2.785831876019   113.93591149   155.51588483
 C      7   3   2     2.562713645874   118.36817210   286.57653871
 O      8   7   3     2.352985345855   119.39736859     4.04835651
 N      2   1   3     2.587181046629   123.85737970   182.44157304
 C     10   2   1     2.753672659942   122.76137177     8.23427515
 C     11  10   2     2.914817008444   112.04782876   221.15949842
 N     12  11  10     2.586199026022   115.75831009    23.19045763
 C     13  12  11     2.755596656727   121.93712628   194.35290486
 C     14  13  12     2.900072324698   111.00832335   223.04879548
 N     15  14  13     2.575117521955   116.70396122    34.66948293
 C     16  15  14     2.743184986281   117.80297116   206.58029716
 C     17  16  15     2.964875553428   111.66401408    83.24080682
 C     18  17  16     2.948679632381   111.97844668   219.82821051
 C     19  18  17     2.909384824976   115.59338077    98.28672644
 N     20  19  18     2.562957008417   118.22010760   313.87480813
 C     21  20  19     2.754261322987   121.24573527   172.91747480
 C     22  21  20     2.927457195185   112.91406471   282.98576989
 N     23  22  21     2.573775681712   116.15631445   357.63280024
 C     24  23  22     2.747664911148   120.96739566   166.55554568
 C     25  24  23     2.916520377051   111.96339067   294.97531456
 O     23  22  21     2.327846148184   120.80276047   176.49120815
 C     22  21  20     2.899051606237   112.18330518   157.42306464
 C     28  22  21     2.906087091614   115.65115046   280.39566181
 C     29  28  22     2.898685612072   113.60375307    61.07069939
 C     29  28  22     2.897849148014   109.20128465   184.83252894
 O     20  19  18     2.337232065237   119.31108551   133.12840012
 C     19  18  17     2.911463605618   110.25559078   219.79034077
 C     33  19  18     2.872845179977   117.28424381   299.77364084
 C     34  33  19     2.895286523599   113.02851612   225.12227432
 C     35  34  33     2.889439829037   111.82391221   180.30564100
 C     36  35  34     2.890541903662   113.42844812   183.91965396
 C     37  36  35     2.891822727780   113.28177215   178.48118832
 C     38  37  36     2.891616452497   113.66159863   180.49785172
 C     39  38  37     2.891695545293   113.52273076   179.63906953
 C     40  39  38     2.893093630795   113.64632336   180.07001531
 C     41  40  39     2.891068954333   113.14352583   179.94253589
 O     33  19  18     2.302329926912   120.48347178   115.98629461
 O     18  17  16     2.695281077517   107.63956102   344.96675637
 O     15  14  13     2.338196828927   121.00989090   215.69174066
 C     14  13  12     2.906106968532   111.51227925   100.32701032
 C     46  14  13     2.882768500586   113.41694495   300.60078178
 O     12  11  10     2.321976176397   121.31432829   202.72809190
 C     11  10   2     2.926051066433   112.86022944    95.70084096
 C     49  11  10     2.893877326761   112.08101360    61.02439747
 C     49  11  10     2.891163674151   111.10380465   295.82946544
 H      3   2   1     2.072648472651   105.10340299    35.12308293
 H      4   3   2     2.077484510451   109.17678125   145.65139414
 H      4   3   2     2.071862339983   111.82018283    26.52844148
 H      5   4   3     2.079328622672   110.36639575    81.20248375
 H      5   4   3     2.072508320824   113.13013015   201.74455275
 H      6   5   4     2.074726380962   113.07599322   151.97620033
 H      6   5   4     2.082730059924   111.30645430   273.78648495
 H     10   2   1     1.919578131231   117.51266582   174.85201056
[...]
freq.      82.51  E(vib)   ...       0.48 
freq.      86.17  E(vib)   ...       0.48 
freq.      87.53  E(vib)   ...       0.48 
freq.      95.67  E(vib)   ...       0.47 
freq.     103.65  E(vib)   ...       0.46 
freq.     107.00  E(vib)   ...       0.45 
freq.     111.34  E(vib)   ...       0.45 
freq.     120.28  E(vib)   ...       0.44 
freq.     125.11  E(vib)   ...       0.43 
freq.     127.19  E(vib)   ...       0.43 
freq.     130.29  E(vib)   ...       0.43 
freq.     138.12  E(vib)   ...       0.42 
freq.     146.65  E(vib)   ...       0.41 
freq.     150.34  E(vib)   ...       0.40 
freq.     152.56  E(vib)   ...       0.40 
freq.     155.36  E(vib)   ...       0.40 
freq.     157.51  E(vib)   ...       0.40 
freq.     166.18  E(vib)   ...       0.39 
freq.     169.75  E(vib)   ...       0.38 
freq.     180.18  E(vib)   ...       0.37 
freq.     191.14  E(vib)   ...       0.36 
freq.     200.07  E(vib)   ...       0.35 
freq.     206.98  E(vib)   ...       0.35 
freq.     217.95  E(vib)   ...       0.33 
freq.     219.92  E(vib)   ...       0.33 
freq.     227.12  E(vib)   ...       0.33 
freq.     227.66  E(vib)   ...       0.33 
freq.     232.42  E(vib)   ...       0.32 
freq.     237.20  E(vib)   ...       0.32 
freq.     238.64  E(vib)   ...       0.32 
freq.     238.77  E(vib)   ...       0.32 
freq.     242.71  E(vib)   ...       0.31 
freq.     247.06  E(vib)   ...       0.31 
freq.     251.92  E(vib)   ...       0.30 
freq.     258.29  E(vib)   ...       0.30 
freq.     266.03  E(vib)   ...       0.29 
freq.     269.91  E(vib)   ...       0.29 
freq.     275.93  E(vib)   ...       0.28 
freq.     280.28  E(vib)   ...       0.28 
freq.     291.86  E(vib)   ...       0.27 
freq.     299.81  E(vib)   ...       0.26 
freq.     306.02  E(vib)   ...       0.26 
freq.     309.97  E(vib)   ...       0.26 
freq.     318.80  E(vib)   ...       0.25 
freq.     321.02  E(vib)   ...       0.25 
freq.     344.56  E(vib)   ...       0.23 
freq.     347.58  E(vib)   ...       0.23 
freq.     352.66  E(vib)   ...       0.22 
freq.     354.48  E(vib)   ...       0.22 
freq.     372.28  E(vib)   ...       0.21 
freq.     382.67  E(vib)   ...       0.20 
freq.     385.31  E(vib)   ...       0.20 
freq.     394.16  E(vib)   ...       0.20 
freq.     399.34  E(vib)   ...       0.19 
freq.     413.77  E(vib)   ...       0.19 
freq.     425.80  E(vib)   ...       0.18 
freq.     441.83  E(vib)   ...       0.17 
freq.     451.00  E(vib)   ...       0.17 
freq.     459.98  E(vib)   ...       0.16 
freq.     466.88  E(vib)   ...       0.16 
freq.     469.26  E(vib)   ...       0.16 
freq.     474.38  E(vib)   ...       0.15 
freq.     480.76  E(vib)   ...       0.15 
freq.     496.46  E(vib)   ...       0.14 
freq.     517.41  E(vib)   ...       0.13 
freq.     530.46  E(vib)   ...       0.13 
freq.     546.74  E(vib)   ...       0.12 
freq.     564.59  E(vib)   ...       0.11 
freq.     574.82  E(vib)   ...       0.11 
freq.     582.99  E(vib)   ...       0.11 
freq.     588.41  E(vib)   ...       0.10 
freq.     594.39  E(vib)   ...       0.10 
freq.     603.02  E(vib)   ...       0.10 
freq.     622.23  E(vib)   ...       0.09 
freq.     630.57  E(vib)   ...       0.09 
freq.     650.75  E(vib)   ...       0.08 
freq.     662.75  E(vib)   ...       0.08 
freq.     664.55  E(vib)   ...       0.08 
freq.     688.79  E(vib)   ...       0.07 
freq.     696.93  E(vib)   ...       0.07 
freq.     706.64  E(vib)   ...       0.07 
freq.     711.41  E(vib)   ...       0.07 
freq.     713.41  E(vib)   ...       0.07 
freq.     724.87  E(vib)   ...       0.06 
freq.     725.87  E(vib)   ...       0.06 
freq.     731.12  E(vib)   ...       0.06 
freq.     735.94  E(vib)   ...       0.06 
freq.     738.56  E(vib)   ...       0.06 
freq.     751.79  E(vib)   ...       0.06 
freq.     753.93  E(vib)   ...       0.06 
freq.     762.04  E(vib)   ...       0.06 
freq.     770.15  E(vib)   ...       0.05 
freq.     788.74  E(vib)   ...       0.05 
freq.     803.65  E(vib)   ...       0.05 
freq.     807.71  E(vib)   ...       0.05 
freq.     814.93  E(vib)   ...       0.05 
freq.     819.11  E(vib)   ...       0.05 
freq.     835.43  E(vib)   ...       0.04 
freq.     845.37  E(vib)   ...       0.04 
freq.     846.17  E(vib)   ...       0.04 
freq.     860.29  E(vib)   ...       0.04 
freq.     865.27  E(vib)   ...       0.04 
freq.     871.11  E(vib)   ...       0.04 
freq.     875.56  E(vib)   ...       0.04 
freq.     877.50  E(vib)   ...       0.04 
freq.     879.47  E(vib)   ...       0.04 
freq.     898.36  E(vib)   ...       0.03 
freq.     900.55  E(vib)   ...       0.03 
freq.     904.25  E(vib)   ...       0.03 
freq.     905.13  E(vib)   ...       0.03 
freq.     912.01  E(vib)   ...       0.03 
freq.     914.93  E(vib)   ...       0.03 
freq.     930.84  E(vib)   ...       0.03 
freq.     931.79  E(vib)   ...       0.03 
freq.     937.00  E(vib)   ...       0.03 
freq.     941.91  E(vib)   ...       0.03 
freq.     943.13  E(vib)   ...       0.03 
freq.     949.78  E(vib)   ...       0.03 
freq.     953.25  E(vib)   ...       0.03 
freq.     962.16  E(vib)   ...       0.03 
freq.     972.83  E(vib)   ...       0.03 
freq.     978.69  E(vib)   ...       0.03 
freq.     980.03  E(vib)   ...       0.02 
freq.     987.18  E(vib)   ...       0.02 
freq.     994.04  E(vib)   ...       0.02 
freq.    1004.04  E(vib)   ...       0.02 
freq.    1010.36  E(vib)   ...       0.02 
freq.    1015.65  E(vib)   ...       0.02 
freq.    1018.04  E(vib)   ...       0.02 
freq.    1025.91  E(vib)   ...       0.02 
freq.    1036.03  E(vib)   ...       0.02 
freq.    1040.94  E(vib)   ...       0.02 
freq.    1042.45  E(vib)   ...       0.02 
freq.    1046.17  E(vib)   ...       0.02 
freq.    1050.59  E(vib)   ...       0.02 
freq.    1051.58  E(vib)   ...       0.02 
freq.    1053.04  E(vib)   ...       0.02 
freq.    1054.88  E(vib)   ...       0.02 
freq.    1059.63  E(vib)   ...       0.02 
freq.    1064.10  E(vib)   ...       0.02 
freq.    1071.92  E(vib)   ...       0.02 
freq.    1074.88  E(vib)   ...       0.02 
freq.    1083.64  E(vib)   ...       0.02 
freq.    1092.49  E(vib)   ...       0.02 
freq.    1107.80  E(vib)   ...       0.02 
freq.    1111.11  E(vib)   ...       0.01 
freq.    1117.15  E(vib)   ...       0.01 
freq.    1117.46  E(vib)   ...       0.01 
freq.    1126.28  E(vib)   ...       0.01 
freq.    1129.35  E(vib)   ...       0.01 
freq.    1137.72  E(vib)   ...       0.01 
freq.    1140.01  E(vib)   ...       0.01 
freq.    1143.22  E(vib)   ...       0.01 
freq.    1157.23  E(vib)   ...       0.01 
freq.    1160.89  E(vib)   ...       0.01 
freq.    1161.29  E(vib)   ...       0.01 
freq.    1167.68  E(vib)   ...       0.01 
freq.    1170.83  E(vib)   ...       0.01 
freq.    1177.87  E(vib)   ...       0.01 
freq.    1182.98  E(vib)   ...       0.01 
freq.    1184.46  E(vib)   ...       0.01 
freq.    1192.38  E(vib)   ...       0.01 
freq.    1193.83  E(vib)   ...       0.01 
freq.    1204.31  E(vib)   ...       0.01 
freq.    1204.68  E(vib)   ...       0.01 
freq.    1211.44  E(vib)   ...       0.01 
freq.    1217.15  E(vib)   ...       0.01 
freq.    1223.70  E(vib)   ...       0.01 
freq.    1228.82  E(vib)   ...       0.01 
freq.    1229.34  E(vib)   ...       0.01 
freq.    1235.25  E(vib)   ...       0.01 
freq.    1237.41  E(vib)   ...       0.01 
freq.    1242.46  E(vib)   ...       0.01 
freq.    1245.11  E(vib)   ...       0.01 
freq.    1247.78  E(vib)   ...       0.01 
freq.    1256.94  E(vib)   ...       0.01 
freq.    1261.52  E(vib)   ...       0.01 
freq.    1262.27  E(vib)   ...       0.01 
freq.    1268.06  E(vib)   ...       0.01 
freq.    1274.09  E(vib)   ...       0.01 
freq.    1276.01  E(vib)   ...       0.01 
freq.    1276.71  E(vib)   ...       0.01 
freq.    1282.24  E(vib)   ...       0.01 
freq.    1287.02  E(vib)   ...       0.01 
freq.    1287.60  E(vib)   ...       0.01 
freq.    1291.47  E(vib)   ...       0.01 
freq.    1293.07  E(vib)   ...       0.01 
freq.    1293.74  E(vib)   ...       0.01 
freq.    1295.00  E(vib)   ...       0.01 
freq.    1298.26  E(vib)   ...       0.01 
freq.    1303.00  E(vib)   ...       0.01 
freq.    1306.94  E(vib)   ...       0.01 
freq.    1308.67  E(vib)   ...       0.01 
freq.    1313.11  E(vib)   ...       0.01 
freq.    1314.57  E(vib)   ...       0.01 
freq.    1320.75  E(vib)   ...       0.01 
freq.    1321.88  E(vib)   ...       0.01 
freq.    1331.96  E(vib)   ...       0.01 
freq.    1332.19  E(vib)   ...       0.01 
freq.    1332.30  E(vib)   ...       0.01 
freq.    1335.37  E(vib)   ...       0.01 
freq.    1337.36  E(vib)   ...       0.01 
freq.    1339.95  E(vib)   ...       0.01 
freq.    1341.11  E(vib)   ...       0.01 
freq.    1343.47  E(vib)   ...       0.01 
freq.    1348.56  E(vib)   ...       0.01 
freq.    1349.64  E(vib)   ...       0.01 
freq.    1350.40  E(vib)   ...       0.01 
freq.    1351.04  E(vib)   ...       0.01 
freq.    1359.61  E(vib)   ...       0.01 
freq.    1363.34  E(vib)   ...       0.01 
freq.    1365.94  E(vib)   ...       0.01 
freq.    1372.34  E(vib)   ...       0.01 
freq.    1372.64  E(vib)   ...       0.01 
freq.    1413.60  E(vib)   ...       0.00 
freq.    1416.24  E(vib)   ...       0.00 
freq.    1429.33  E(vib)   ...       0.00 
freq.    1431.39  E(vib)   ...       0.00 
freq.    1433.18  E(vib)   ...       0.00 
freq.    1433.69  E(vib)   ...       0.00 
freq.    1433.77  E(vib)   ...       0.00 
freq.    1436.43  E(vib)   ...       0.00 
freq.    1437.04  E(vib)   ...       0.00 
freq.    1438.61  E(vib)   ...       0.00 
freq.    1440.27  E(vib)   ...       0.00 
freq.    1440.44  E(vib)   ...       0.00 
freq.    1442.29  E(vib)   ...       0.00 
freq.    1446.96  E(vib)   ...       0.00 
freq.    1447.24  E(vib)   ...       0.00 
freq.    1447.42  E(vib)   ...       0.00 
freq.    1448.32  E(vib)   ...       0.00 
freq.    1450.66  E(vib)   ...       0.00 
freq.    1450.95  E(vib)   ...       0.00 
freq.    1451.72  E(vib)   ...       0.00 
freq.    1454.66  E(vib)   ...       0.00 
freq.    1454.94  E(vib)   ...       0.00 
freq.    1455.31  E(vib)   ...       0.00 
freq.    1456.76  E(vib)   ...       0.00 
freq.    1461.14  E(vib)   ...       0.00 
freq.    1461.24  E(vib)   ...       0.00 
freq.    1461.98  E(vib)   ...       0.00 
freq.    1463.02  E(vib)   ...       0.00 
freq.    1465.05  E(vib)   ...       0.00 
freq.    1471.10  E(vib)   ...       0.00 
freq.    1476.03  E(vib)   ...       0.00 
freq.    1487.65  E(vib)   ...       0.00 
freq.    1490.74  E(vib)   ...       0.00 
freq.    1510.99  E(vib)   ...       0.00 
freq.    1618.36  E(vib)   ...       0.00 
freq.    1644.75  E(vib)   ...       0.00 
freq.    1659.46  E(vib)   ...       0.00 
freq.    1674.09  E(vib)   ...       0.00 
freq.    1683.52  E(vib)   ...       0.00 
freq.    1703.06  E(vib)   ...       0.00 
freq.    1721.12  E(vib)   ...       0.00 
freq.    2922.59  E(vib)   ...       0.00 
freq.    2923.43  E(vib)   ...       0.00 
freq.    2924.09  E(vib)   ...       0.00 
freq.    2924.90  E(vib)   ...       0.00 
freq.    2930.81  E(vib)   ...       0.00 
freq.    2932.92  E(vib)   ...       0.00 
freq.    2936.59  E(vib)   ...       0.00 
freq.    2940.12  E(vib)   ...       0.00 
freq.    2941.37  E(vib)   ...       0.00 
freq.    2944.89  E(vib)   ...       0.00 
freq.    2945.21  E(vib)   ...       0.00 
freq.    2949.91  E(vib)   ...       0.00 
freq.    2951.23  E(vib)   ...       0.00 
freq.    2952.13  E(vib)   ...       0.00 
freq.    2955.18  E(vib)   ...       0.00 
freq.    2956.03  E(vib)   ...       0.00 
freq.    2958.21  E(vib)   ...       0.00 
freq.    2958.59  E(vib)   ...       0.00 
freq.    2963.36  E(vib)   ...       0.00 
freq.    2964.24  E(vib)   ...       0.00 
freq.    2966.67  E(vib)   ...       0.00 
freq.    2967.05  E(vib)   ...       0.00 
freq.    2974.48  E(vib)   ...       0.00 
freq.    2974.60  E(vib)   ...       0.00 
freq.    2975.27  E(vib)   ...       0.00 
freq.    2975.52  E(vib)   ...       0.00 
freq.    2977.08  E(vib)   ...       0.00 
freq.    2978.10  E(vib)   ...       0.00 
freq.    2978.97  E(vib)   ...       0.00 
freq.    2981.32  E(vib)   ...       0.00 
freq.    2987.67  E(vib)   ...       0.00 
freq.    2991.32  E(vib)   ...       0.00 
freq.    2992.87  E(vib)   ...       0.00 
freq.    2993.66  E(vib)   ...       0.00 
freq.    3010.37  E(vib)   ...       0.00 
freq.    3012.39  E(vib)   ...       0.00 
freq.    3015.57  E(vib)   ...       0.00 
freq.    3017.33  E(vib)   ...       0.00 
freq.    3017.75  E(vib)   ...       0.00 
freq.    3019.13  E(vib)   ...       0.00 
freq.    3019.33  E(vib)   ...       0.00 
freq.    3020.99  E(vib)   ...       0.00 
freq.    3022.35  E(vib)   ...       0.00 
freq.    3027.13  E(vib)   ...       0.00 
freq.    3027.68  E(vib)   ...       0.00 
freq.    3028.34  E(vib)   ...       0.00 
freq.    3030.24  E(vib)   ...       0.00 
freq.    3032.48  E(vib)   ...       0.00 
freq.    3039.36  E(vib)   ...       0.00 
freq.    3042.77  E(vib)   ...       0.00 
freq.    3043.67  E(vib)   ...       0.00 
freq.    3046.09  E(vib)   ...       0.00 
freq.    3046.66  E(vib)   ...       0.00 
freq.    3049.40  E(vib)   ...       0.00 
freq.    3050.23  E(vib)   ...       0.00 
freq.    3054.22  E(vib)   ...       0.00 
freq.    3057.21  E(vib)   ...       0.00 
freq.    3077.85  E(vib)   ...       0.00 
freq.    3315.33  E(vib)   ...       0.00 
freq.    3365.78  E(vib)   ...       0.00 
freq.    3404.56  E(vib)   ...       0.00 
freq.    3463.88  E(vib)   ...       0.00 
freq.    3474.22  E(vib)   ...       0.00 
freq.    3504.84  E(vib)   ...       0.00 

------------
INNER ENERGY
------------

The inner energy is: U= E(el) + E(ZPE) + E(vib) + E(rot) + E(trans)
    E(el)   - is the total energy from the electronic structure calculation
              = E(kin-el) + E(nuc-el) + E(el-el) + E(nuc-nuc)
    E(ZPE)  - the the zero temperature vibrational energy from the frequency calculation
    E(vib)  - the the finite temperature correction to E(ZPE) due to population
              of excited vibrational states
    E(rot)  - is the rotational thermal energy
    E(trans)- is the translational thermal energy

Summary of contributions to the inner energy U:
Electronic energy                ...  -2380.07438204 Eh
Zero point energy                ...      0.97675514 Eh     612.92 kcal/mol
Thermal vibrational correction   ...      0.05569807 Eh      34.95 kcal/mol
Thermal rotational correction    ...      0.00141627 Eh       0.89 kcal/mol
Thermal translational correction ...      0.00141627 Eh       0.89 kcal/mol
-----------------------------------------------------------------------
Total thermal energy                  -2379.03909629 Eh


Summary of corrections to the electronic energy:
(perhaps to be used in another calculation)
Total thermal correction                  0.05853061 Eh      36.73 kcal/mol
Non-thermal (ZPE) correction              0.97675514 Eh     612.92 kcal/mol
-----------------------------------------------------------------------
Total correction                          1.03528575 Eh     649.65 kcal/mol


--------
ENTHALPY
--------

The enthalpy is H = U + kB*T
                kB is Boltzmann's constant
Total free energy                 ...  -2379.03909629 Eh 
Thermal Enthalpy correction       ...      0.00094421 Eh       0.59 kcal/mol
-----------------------------------------------------------------------
Total Enthalpy                    ...  -2379.03815208 Eh


Note: Only C1 symmetry has been detected, increase convergence thresholds 
      if your molecule has a higher symmetry. Symmetry factor of 1.0 is   
      used for the rotational entropy correction. 
 

Note: Rotational entropy computed according to Herzberg 
Infrared and Raman Spectra, Chapter V,1, Van Nostrand Reinhold, 1945 
Point Group:  C1, Symmetry Number:   1  
Rotational constants in cm-1:     0.001970     0.001309     0.000981 

Vibrational entropy computed according to the QRRHO of S. Grimme
Chem.Eur.J. 2012 18 9955


-------
ENTROPY
-------

The entropy contributions are T*S = T*(S(el)+S(vib)+S(rot)+S(trans))
     S(el)   - electronic entropy
     S(vib)  - vibrational entropy
     S(rot)  - rotational entropy
     S(trans)- translational entropy
The entropies will be listed as mutliplied by the temperature to get
units of energy

Electronic entropy                ...      0.00000000 Eh      0.00 kcal/mol
Vibrational entropy               ...      0.10303476 Eh     64.66 kcal/mol
Rotational entropy                ...      0.01885611 Eh     11.83 kcal/mol
Translational entropy             ...      0.02166895 Eh     13.60 kcal/mol
-----------------------------------------------------------------------
Final entropy term                ...      0.14355982 Eh     90.08 kcal/mol

In case the symmetry of your molecule has not been determined correctly
or in case you have a reason to use a different symmetry number we print 
out the resulting rotational entropy values for sn=1,12 :
 --------------------------------------------------------
|  sn= 1 | S(rot)=       0.01885611 Eh     11.83 kcal/mol|
|  sn= 2 | S(rot)=       0.01820165 Eh     11.42 kcal/mol|
|  sn= 3 | S(rot)=       0.01781882 Eh     11.18 kcal/mol|
|  sn= 4 | S(rot)=       0.01754720 Eh     11.01 kcal/mol|
|  sn= 5 | S(rot)=       0.01733651 Eh     10.88 kcal/mol|
|  sn= 6 | S(rot)=       0.01716436 Eh     10.77 kcal/mol|
|  sn= 7 | S(rot)=       0.01701882 Eh     10.68 kcal/mol|
|  sn= 8 | S(rot)=       0.01689274 Eh     10.60 kcal/mol|
|  sn= 9 | S(rot)=       0.01678153 Eh     10.53 kcal/mol|
|  sn=10 | S(rot)=       0.01668205 Eh     10.47 kcal/mol|
|  sn=11 | S(rot)=       0.01659206 Eh     10.41 kcal/mol|
|  sn=12 | S(rot)=       0.01650991 Eh     10.36 kcal/mol|
 --------------------------------------------------------


-------------------
GIBBS FREE ENERGY
-------------------

The Gibbs free energy is G = H - T*S

Total enthalpy                    ...  -2379.03815208 Eh 
Total entropy correction          ...     -0.14355982 Eh    -90.08 kcal/mol
-----------------------------------------------------------------------
Final Gibbs free energy         ...  -2379.18171190 Eh

For completeness - the Gibbs free energy minus the electronic energy
G-E(el)                           ...      0.89267014 Eh    560.16 kcal/mol

--------------------------------------------------------------------------
WARNING: No preset parameters were found for the device that Open MPI
detected:

  Local host:            eu-g1-007-2
  Device name:           mlx5_0
  Device vendor ID:      0x02c9
  Device vendor part ID: 4123

Default device parameters will be used, which may result in lower
performance.  You can edit any of the files specified by the
btl_openib_device_param_files MCA parameter to set values for your
device.

NOTE: You can turn off this warning by setting the MCA parameter
      btl_openib_warn_no_device_params_found to 0.
--------------------------------------------------------------------------
--------------------------------------------------------------------------
WARNING: There was an error initializing an OpenFabrics device.

  Local host:   eu-g1-007-2
  Local device: mlx5_0
--------------------------------------------------------------------------

Timings for individual modules:

Sum of individual times         ...    38008.927 sec (= 633.482 min)
GTO integral calculation        ...       38.665 sec (=   0.644 min)   0.1 %
SCF iterations                  ...      880.581 sec (=  14.676 min)   2.3 %
SCF Gradient evaluation         ...      372.485 sec (=   6.208 min)   1.0 %
Geometry relaxation             ...       15.693 sec (=   0.262 min)   0.0 %
Analytical frequency calculation...    36701.503 sec (= 611.692 min)  96.6 %
                             ****ORCA TERMINATED NORMALLY****
TOTAL RUN TIME: 0 days 10 hours 33 minutes 54 seconds 96 msec
