
                                 *****************
                                 * O   R   C   A *
                                 *****************

           --- An Ab Initio, DFT and Semiempirical electronic structure package ---

                  #######################################################
                  #                        -***-                        #
                  #          Department of theory and spectroscopy      #
                  #               Directorship: Frank Neese             #
                  #        Max Planck Institute fuer Kohlenforschung    #
                  #                Kaiser Wilhelm Platz 1               #
                  #                 D-45470 Muelheim/Ruhr               #
                  #                      Germany                        #
                  #                                                     #
                  #                  All rights reserved                #
                  #                        -***-                        #
                  #######################################################


                         Program Version 4.2.0 -  RELEASE  -


 With contributions from (in alphabetic order):
   Daniel Aravena         : Magnetic Suceptibility
   Michael Atanasov       : Ab Initio Ligand Field Theory (pilot matlab implementation)
   Alexander A. Auer      : GIAO ZORA, VPT2
   Ute Becker             : Parallelization
   Giovanni Bistoni       : ED, misc. LED, open-shell LED, HFLED
   Martin Brehm           : Molecular dynamics
   Dmytro Bykov           : SCF Hessian
   Vijay G. Chilkuri      : MRCI spin determinant printing, contributions to CSF-ICE
   Dipayan Datta          : RHF DLPNO-CCSD density
   Achintya Kumar Dutta   : EOM-CC, STEOM-CC
   Dmitry Ganyushin       : Spin-Orbit,Spin-Spin,Magnetic field MRCI
   Miquel Garcia          : C-PCM Hessian, Gaussian charge scheme
   Yang Guo               : DLPNO-NEVPT2, CIM, IAO-localization
   Andreas Hansen         : Spin unrestricted coupled pair/coupled cluster methods
   Benjamin Helmich-Paris : CASSCF linear response (MC-RPA)
   Lee Huntington         : MR-EOM, pCC
   Robert Izsak           : Overlap fitted RIJCOSX, COSX-SCS-MP3, EOM
   Christian Kollmar      : KDIIS, OOCD, Brueckner-CCSD(T), CCSD density
   Simone Kossmann        : Meta GGA functionals, TD-DFT gradient, OOMP2, MP2 Hessian
   Martin Krupicka        : AUTO-CI
   Lucas Lang             : DCDCAS
   Dagmar Lenk            : GEPOL surface, SMD
   Dimitrios Liakos       : Extrapolation schemes; Compound Job, initial MDCI parallelization
   Dimitrios Manganas     : Further ROCIS development; embedding schemes
   Dimitrios Pantazis     : SARC Basis sets
   Taras Petrenko         : DFT Hessian,TD-DFT gradient, ASA, ECA, R-Raman, ABS, FL, XAS/XES, NRVS
   Peter Pinski           : DLPNO-MP2, DLPNO-MP2 Gradient
   Christoph Reimann      : Effective Core Potentials
   Marius Retegan         : Local ZFS, SOC
   Christoph Riplinger    : Optimizer, TS searches, QM/MM, DLPNO-CCSD(T), (RO)-DLPNO pert. Triples
   Tobias Risthaus        : Range-separated hybrids, TD-DFT gradient, RPA, STAB
   Michael Roemelt        : Original ROCIS implementation
   Masaaki Saitow         : Open-shell DLPNO-CCSD energy and density
   Barbara Sandhoefer     : DKH picture change effects
   Avijit Sen             : IP-ROCIS
   Kantharuban Sivalingam : CASSCF convergence, NEVPT2, FIC-MRCI
   Bernardo de Souza      : ESD, SOC TD-DFT
   Georgi Stoychev        : AutoAux, RI-MP2 NMR
   Willem Van den Heuvel  : Paramagnetic NMR
   Boris Wezisla          : Elementary symmetry handling
   Frank Wennmohs         : Technical directorship


 We gratefully acknowledge several colleagues who have allowed us to
 interface, adapt or use parts of their codes:
   Stefan Grimme, W. Hujo, H. Kruse,             : VdW corrections, initial TS optimization,
                  C. Bannwarth                     DFT functionals, gCP, sTDA/sTD-DF
   Ed Valeev, F. Pavosevic, A. Kumar             : LibInt (2-el integral package), F12 methods
   Garnet Chan, S. Sharma, J. Yang, R. Olivares  : DMRG
   Ulf Ekstrom                                   : XCFun DFT Library
   Mihaly Kallay                                 : mrcc  (arbitrary order and MRCC methods)
   Andreas Klamt, Michael Diedenhofen            : otool_cosmo (COSMO solvation model)
   Jiri Pittner, Ondrej Demel                    : Mk-CCSD
   Frank Weinhold                                : gennbo (NPA and NBO analysis)
   Christopher J. Cramer and Donald G. Truhlar   : smd solvation model
   Lars Goerigk                                  : TD-DFT with DH, B97 family of functionals
   V. Asgeirsson, H. Jonsson                     : NEB implementation
   FAccTs GmbH                                   : IRC, NEB, NEB-TS, Multilevel, MM, QM/MM, CI optimization
   S Lehtola, MJT Oliveira, MAL Marques          : LibXC Library


 Your calculation uses the libint2 library for the computation of 2-el integrals
 For citations please refer to: http://libint.valeyev.net

 Your ORCA version has been built with support for libXC version: 4.2.3
 For citations please refer to: https://tddft.org/programs/libxc/

 This ORCA versions uses:
   CBLAS   interface :  Fast vector & matrix operations
   LAPACKE interface :  Fast linear algebra routines
   SCALAPACK package :  Parallel linear algebra routines




***************************************
The coordinates will be read from file: 58.xyz
***************************************


Your calculation utilizes the atom-pairwise dispersion correction
with the Becke-Johnson damping scheme (D3BJ)
Cite in your paper:
S.Grimme, S.Ehrlich, L.Goerigk, J Comput Chem, (2011), 32, 1456–1465 
S.Grimme, J.Antony, S.Ehrlich and H.Krieg, J.Chem.Phys., 132, (2010), 154104 
   

----- Orbital basis set information -----
Your calculation utilizes the basis: def2-TZVP
   F. Weigend and R. Ahlrichs, Phys. Chem. Chem. Phys. 7, 3297 (2005).

----- AuxJ basis set information -----
Your calculation utilizes the auxiliary basis: def2/J
   F. Weigend, Phys. Chem. Chem. Phys. 8, 1057 (2006).

================================================================================
                                        WARNINGS
                       Please study these warnings very carefully!
================================================================================


WARNING: Geometry Optimization
  ===> : Switching off AutoStart
         For restart on a previous wavefunction, please use MOREAD

INFO   : the flag for use of LIBINT has been found!

================================================================================
                                       INPUT FILE
================================================================================
NAME = 58.inp
|  1> !RI BP86 def2-tzvp def2/J D3BJ VeryTightSCF VeryTightOpt Grid5 FinalGrid6 freq
|  2> %maxcore 4000
|  3> %pal nprocs 24
|  4> end
|  5> * xyzfile 0 1 58.xyz 
|  6> 
|  7>                          ****END OF INPUT****
================================================================================

                       *****************************
                       * Geometry Optimization Run *
                       *****************************

Geometry optimization settings:
Update method            Update   .... BFGS
Choice of coordinates    CoordSys .... Z-matrix Internals
Initial Hessian          InHess   .... Almoef's Model

Convergence Tolerances:
Energy Change            TolE     ....  2.0000e-07 Eh
Max. Gradient            TolMAXG  ....  3.0000e-05 Eh/bohr
RMS Gradient             TolRMSG  ....  8.0000e-06 Eh/bohr
Max. Displacement        TolMAXD  ....  2.0000e-04 bohr
RMS Displacement         TolRMSD  ....  1.0000e-04 bohr
Strict Convergence                ....  False
------------------------------------------------------------------------------
                        ORCA OPTIMIZATION COORDINATE SETUP
------------------------------------------------------------------------------

The optimization will be done in new redundant internal coordinates
Making redundant internal coordinates   ...  (new redundants) done
Evaluating the initial hessian          ...  (Almloef) done
Evaluating the coordinates              ...  done
Calculating the B-matrix                .... done
Calculating the G-matrix                .... done
Diagonalizing the G-matrix              .... done
Small eigenvalue found = 4.745e-04
Small eigenvalue found = 1.600e-03
Small eigenvalue found = 2.398e-03
Small eigenvalue found = 3.246e-03
Small eigenvalue found = 4.877e-03
Small eigenvalue found = 5.622e-03
Small eigenvalue found = 7.264e-03
Small eigenvalue found = 8.757e-03
Small eigenvalue found = 1.016e-02
Small eigenvalue found = 1.170e-02
Small eigenvalue found = 1.290e-02
Small eigenvalue found = 1.371e-02
Small eigenvalue found = 1.623e-02
Small eigenvalue found = 1.843e-02
Small eigenvalue found = 2.012e-02
Small eigenvalue found = 2.280e-02
Small eigenvalue found = 2.610e-02
Small eigenvalue found = 2.712e-02
The first mode is                       ....  327
The number of degrees of freedom        ....  339

    -----------------------------------------------------------------
                    Redundant Internal Coordinates


    -----------------------------------------------------------------
         Definition                    Initial Value    Approx d2E/dq
    -----------------------------------------------------------------
      1. B(C   1,O   0)                  1.2271         1.018208   
      2. B(C   2,C   1)                  1.5330         0.369526   
      3. B(C   3,C   2)                  1.5437         0.355175   
      4. B(C   4,C   3)                  1.5359         0.365540   
      5. B(C   5,C   4)                  1.5309         0.372305   
      6. B(N   6,C   2)                  1.4772         0.406231   
      7. B(N   6,C   5)                  1.4735         0.411704   
      8. B(C   7,N   6)                  1.3556         0.635048   
      9. B(O   8,C   7)                  1.2461         0.949338   
     10. B(N   9,C   1)                  1.3629         0.618161   
     11. B(C  10,N   9)                  1.4537         0.442879   
     12. B(C  11,C  10)                  1.5400         0.360077   
     13. B(N  12,C  11)                  1.3738         0.593861   
     14. B(C  13,N  12)                  1.4566         0.438132   
     15. B(C  14,C  13)                  1.5276         0.376946   
     16. B(N  15,C  14)                  1.3554         0.635332   
     17. B(C  16,N  15)                  1.4671         0.421596   
     18. B(C  17,C  16)                  1.5467         0.351369   
     19. B(C  18,C  17)                  1.5544         0.341518   
     20. B(C  19,C  18)                  1.5306         0.372781   
     21. B(N  20,C  19)                  1.3600         0.624703   
     22. B(C  21,N  20)                  1.4577         0.436458   
     23. B(C  22,C  21)                  1.5428         0.356406   
     24. B(N  23,C  22)                  1.3583         0.628729   
     25. B(C  24,N  23)                  1.4455         0.456344   
     26. B(C  24,C   7)                  1.5274         0.377224   
     27. B(C  25,C  24)                  1.5428         0.356364   
     28. B(O  26,C  22)                  1.2317         1.001032   
     29. B(C  27,C  21)                  1.5339         0.368229   
     30. B(C  28,C  27)                  1.5419         0.357636   
     31. B(C  29,C  28)                  1.5348         0.367040   
     32. B(C  30,C  28)                  1.5329         0.369645   
     33. B(O  31,C  19)                  1.2368         0.982520   
     34. B(C  32,C  18)                  1.5418         0.357685   
     35. B(C  33,C  32)                  1.5003         0.416583   
     36. B(C  34,C  33)                  1.5279         0.376400   
     37. B(C  35,C  34)                  1.5327         0.369941   
     38. B(C  36,C  35)                  1.5300         0.373551   
     39. B(C  37,C  36)                  1.5293         0.374563   
     40. B(C  38,C  37)                  1.5283         0.375894   
     41. B(C  39,C  38)                  1.5284         0.375744   
     42. B(C  40,C  39)                  1.5311         0.372096   
     43. B(C  41,C  40)                  1.5294         0.374441   
     44. B(O  42,C  32)                  1.2299         1.007522   
     45. B(O  43,C  17)                  1.4285         0.485759   
     46. B(O  44,C  14)                  1.2419         0.964122   
     47. B(C  45,C  13)                  1.5474         0.350420   
     48. B(C  46,C  45)                  1.5284         0.375721   
     49. B(O  47,C  11)                  1.2296         1.008571   
     50. B(C  48,C  10)                  1.5511         0.345683   
     51. B(C  49,C  48)                  1.5328         0.369788   
     52. B(C  50,C  48)                  1.5317         0.371218   
     53. B(H  51,C   2)                  1.0975         0.350296   
     54. B(H  52,C   3)                  1.0982         0.349465   
     55. B(H  53,C   3)                  1.0962         0.352051   
     56. B(H  54,C   4)                  1.1003         0.346699   
     57. B(H  55,C   4)                  1.0969         0.351139   
     58. B(H  56,C   5)                  1.0976         0.350122   
     59. B(H  57,C   5)                  1.1020         0.344515   
     60. B(H  58,N   9)                  1.0154         0.424247   
     61. B(H  59,C  10)                  1.1031         0.343160   
     62. B(H  60,N  12)                  1.0231         0.412370   
     63. B(H  61,C  13)                  1.1045         0.341469   
     64. B(H  62,N  15)                  1.0172         0.421424   
     65. B(H  63,C  16)                  1.1003         0.346726   
     66. B(H  64,C  16)                  1.0966         0.351436   
     67. B(H  65,C  17)                  1.0979         0.349736   
     68. B(H  66,C  18)                  1.1058         0.339743   
     69. B(H  67,N  20)                  1.0263         0.407586   
     70. B(H  68,C  21)                  1.1018         0.344858   
     71. B(H  69,H  60)                  3.0545         0.000051   
     72. B(H  69,N  23)                  1.0187         0.419145   
     73. B(H  70,C  24)                  1.1019         0.344708   
     74. B(H  71,C  25)                  1.0963         0.351918   
     75. B(H  72,C  25)                  1.0977         0.350035   
     76. B(H  73,C  25)                  1.0979         0.349785   
     77. B(H  74,C  27)                  1.0996         0.347652   
     78. B(H  75,C  27)                  1.1012         0.345605   
     79. B(H  76,C  28)                  1.1045         0.341434   
     80. B(H  77,C  29)                  1.0997         0.347517   
     81. B(H  78,C  29)                  1.0998         0.347384   
     82. B(H  79,C  29)                  1.0998         0.347368   
     83. B(H  80,C  30)                  1.0998         0.347310   
     84. B(H  81,C  30)                  1.1010         0.345875   
     85. B(H  82,C  30)                  1.0996         0.347606   
     86. B(H  83,O   8)                  2.3676         0.002953   
     87. B(H  83,C  33)                  1.1074         0.337749   
     88. B(H  84,C  33)                  1.1029         0.343370   
     89. B(H  85,C  34)                  1.1001         0.346953   
     90. B(H  86,C  34)                  1.1014         0.345333   
     91. B(H  87,C  35)                  1.1045         0.341360   
     92. B(H  88,C  35)                  1.1025         0.343951   
     93. B(H  89,C  36)                  1.1046         0.341284   
     94. B(H  90,C  36)                  1.1023         0.344233   
     95. B(H  91,H  73)                  3.0353         0.000054   
     96. B(H  91,C  37)                  1.1041         0.341941   
     97. B(H  92,C  37)                  1.1037         0.342420   
     98. B(H  93,H  52)                  2.2925         0.000832   
     99. B(H  93,C  38)                  1.1045         0.341385   
    100. B(H  94,C  38)                  1.1040         0.342033   
    101. B(H  95,C  39)                  1.1041         0.341975   
    102. B(H  96,C  39)                  1.1037         0.342402   
    103. B(H  97,C  40)                  1.1039         0.342202   
    104. B(H  98,C  40)                  1.1048         0.341021   
    105. B(H  99,C  41)                  1.0993         0.348048   
    106. B(H 100,C  41)                  1.1002         0.346804   
    107. B(H 101,C  41)                  1.1004         0.346655   
    108. B(H 102,O  43)                  0.9835         0.476922   
    109. B(H 103,C  45)                  1.1001         0.346950   
    110. B(H 104,H  56)                  4.6675         0.000000   
    111. B(H 104,C  45)                  1.1009         0.345915   
    112. B(H 105,C  46)                  1.0990         0.348374   
    113. B(H 106,H  75)                  2.2574         0.000946   
    114. B(H 106,C  46)                  1.0960         0.352198   
    115. B(H 107,C  46)                  1.1002         0.346896   
    116. B(H 108,C  48)                  1.1036         0.342546   
    117. B(H 109,C  49)                  1.1020         0.344561   
    118. B(H 110,C  49)                  1.0986         0.348962   
    119. B(H 111,C  49)                  1.0989         0.348456   
    120. B(H 112,C  50)                  1.1000         0.347054   
    121. B(H 113,C  50)                  1.0999         0.347297   
    122. B(H 114,C  50)                  1.0960         0.352283   
    123. A(O   0,C   1,N   9)          123.9620         0.468487   
    124. A(C   2,C   1,N   9)          115.6815         0.393196   
    125. A(O   0,C   1,C   2)          120.3161         0.429572   
    126. A(C   1,C   2,H  51)          104.9749         0.322277   
    127. A(N   6,C   2,H  51)          109.4848         0.325370   
    128. A(C   1,C   2,N   6)          114.7403         0.365621   
    129. A(C   1,C   2,C   3)          112.2583         0.359565   
    130. A(C   3,C   2,H  51)          112.1995         0.320195   
    131. A(C   3,C   2,N   6)          103.3700         0.363152   
    132. A(C   4,C   3,H  53)          113.5802         0.321969   
    133. A(C   4,C   3,H  52)          110.0596         0.321580   
    134. A(C   2,C   3,C   4)          104.2982         0.358902   
    135. A(C   2,C   3,H  53)          111.5472         0.320457   
    136. A(C   2,C   3,H  52)          109.2911         0.320071   
    137. A(H  52,C   3,H  53)          107.9975         0.288451   
    138. A(H  54,C   4,H  55)          107.8727         0.287976   
    139. A(C   3,C   4,H  55)          112.9118         0.321832   
    140. A(C   3,C   4,C   5)          103.0881         0.361794   
    141. A(C   3,C   4,H  54)          110.6569         0.321162   
    142. A(C   5,C   4,H  55)          112.0246         0.322800   
    143. A(C   5,C   4,H  54)          110.2728         0.322128   
    144. A(H  56,C   5,H  57)          108.1681         0.287561   
    145. A(C   4,C   5,N   6)          102.6881         0.366931   
    146. A(C   4,C   5,H  56)          113.7109         0.322647   
    147. A(N   6,C   5,H  57)          110.6517         0.325196   
    148. A(N   6,C   5,H  56)          110.9249         0.326061   
    149. A(C   4,C   5,H  57)          110.6541         0.321795   
    150. A(C   5,N   6,C   7)          127.6578         0.400056   
    151. A(C   2,N   6,C   7)          119.7469         0.399115   
    152. A(C   2,N   6,C   5)          112.4514         0.370139   
    153. A(O   8,C   7,C  24)          120.6797         0.425784   
    154. A(N   6,C   7,O   8)          120.8249         0.464804   
    155. A(N   6,C   7,C  24)          118.4526         0.396489   
    156. A(C   1,N   9,C  10)          122.8188         0.403314   
    157. A(C  10,N   9,H  58)          118.9533         0.337783   
    158. A(C   1,N   9,H  58)          118.1329         0.357286   
    159. A(C  48,C  10,H  59)          108.2205         0.317714   
    160. A(C  11,C  10,H  59)          107.4126         0.319836   
    161. A(N   9,C  10,C  11)          111.0486         0.369433   
    162. A(N   9,C  10,C  48)          110.9560         0.366856   
    163. A(N   9,C  10,H  59)          104.9394         0.328916   
    164. A(C  11,C  10,C  48)          113.7720         0.356339   
    165. A(N  12,C  11,O  47)          122.2531         0.464249   
    166. A(C  10,C  11,O  47)          121.7970         0.426853   
    167. A(C  10,C  11,N  12)          115.9486         0.388685   
    168. A(C  13,N  12,H  60)          119.2593         0.335587   
    169. A(C  11,N  12,C  13)          119.2707         0.399715   
    170. A(C  11,N  12,H  60)          119.5810         0.353158   
    171. A(C  14,C  13,C  45)          112.9726         0.359957   
    172. A(N  12,C  13,H  61)          104.5995         0.328064   
    173. A(C  14,C  13,H  61)          105.1834         0.321979   
    174. A(N  12,C  13,C  14)          113.5849         0.371664   
    175. A(C  45,C  13,H  61)          107.9584         0.318163   
    176. A(N  12,C  13,C  45)          111.7931         0.367034   
    177. A(C  13,C  14,N  15)          117.8198         0.396468   
    178. A(N  15,C  14,O  44)          121.5810         0.466159   
    179. A(C  13,C  14,O  44)          120.5938         0.426907   
    180. A(C  14,N  15,H  62)          116.5848         0.358547   
    181. A(C  16,N  15,H  62)          117.4716         0.334653   
    182. A(C  14,N  15,C  16)          121.6738         0.401764   
    183. A(H  63,C  16,H  64)          107.9180         0.288018   
    184. A(C  17,C  16,H  64)          108.2193         0.319802   
    185. A(N  15,C  16,H  63)          108.9651         0.326813   
    186. A(C  17,C  16,H  63)          105.3441         0.319098   
    187. A(N  15,C  16,C  17)          119.2367         0.364792   
    188. A(N  15,C  16,H  64)          106.7269         0.327540   
    189. A(O  43,C  17,H  65)          105.6763         0.335043   
    190. A(C  18,C  17,H  65)          108.7276         0.318069   
    191. A(C  16,C  17,H  65)          108.9651         0.319549   
    192. A(C  16,C  17,C  18)          117.4785         0.354133   
    193. A(C  18,C  17,O  43)          109.2863         0.371952   
    194. A(C  16,C  17,O  43)          106.0718         0.373779   
    195. A(C  19,C  18,H  66)          102.0094         0.321128   
    196. A(C  17,C  18,H  66)          103.3592         0.316571   
    197. A(C  17,C  18,C  32)          110.3265         0.355205   
    198. A(C  17,C  18,C  19)          119.7664         0.357707   
    199. A(C  19,C  18,C  32)          115.7897         0.360535   
    200. A(C  32,C  18,H  66)          102.7456         0.318966   
    201. A(C  18,C  19,N  20)          118.0654         0.394527   
    202. A(N  20,C  19,O  31)          121.9046         0.466333   
    203. A(C  18,C  19,O  31)          119.9864         0.427504   
    204. A(C  19,N  20,H  67)          121.5520         0.355498   
    205. A(C  19,N  20,C  21)          120.7661         0.403024   
    206. A(C  21,N  20,H  67)          117.2117         0.334723   
    207. A(C  27,C  21,H  68)          110.3900         0.321268   
    208. A(C  22,C  21,H  68)          103.3122         0.319558   
    209. A(N  20,C  21,H  68)          107.1180         0.328392   
    210. A(N  20,C  21,C  22)          113.1110         0.367860   
    211. A(C  22,C  21,C  27)          110.5847         0.359561   
    212. A(N  20,C  21,C  27)          111.9145         0.369928   
    213. A(C  21,C  22,N  23)          115.3894         0.391877   
    214. A(C  21,C  22,O  26)          121.4583         0.425498   
    215. A(N  23,C  22,O  26)          123.1480         0.468482   
    216. A(C  22,N  23,C  24)          122.5303         0.406669   
    217. A(C  24,N  23,H  69)          116.2054         0.338790   
    218. A(C  22,N  23,H  69)          119.7022         0.357580   
    219. A(C  25,C  24,H  70)          108.9801         0.319530   
    220. A(N  23,C  24,H  70)          108.6863         0.330795   
    221. A(C   7,C  24,H  70)          110.9165         0.322517   
    222. A(N  23,C  24,C  25)          111.2197         0.370679   
    223. A(C   7,C  24,N  23)          106.8446         0.374329   
    224. A(C   7,C  24,C  25)          110.1792         0.361036   
    225. A(H  71,C  25,H  73)          108.9336         0.288476   
    226. A(C  24,C  25,H  73)          109.8878         0.320294   
    227. A(H  71,C  25,H  72)          108.6546         0.288508   
    228. A(C  24,C  25,H  72)          111.9505         0.320331   
    229. A(C  24,C  25,H  71)          108.4678         0.320612   
    230. A(H  72,C  25,H  73)          108.8926         0.288234   
    231. A(C  28,C  27,H  75)          109.3699         0.319851   
    232. A(C  21,C  27,C  28)          116.2198         0.359773   
    233. A(H  74,C  27,H  75)          107.1437         0.287385   
    234. A(C  21,C  27,H  75)          108.6739         0.321381   
    235. A(C  28,C  27,H  74)          108.7971         0.320160   
    236. A(C  21,C  27,H  74)          106.2475         0.321692   
    237. A(C  29,C  28,C  30)          111.0679         0.361605   
    238. A(C  27,C  28,C  30)          112.0205         0.360008   
    239. A(C  27,C  28,C  29)          113.7907         0.359574   
    240. A(C  30,C  28,H  76)          107.4545         0.320945   
    241. A(C  29,C  28,H  76)          107.1120         0.320574   
    242. A(C  27,C  28,H  76)          104.8798         0.319218   
    243. A(C  28,C  29,H  79)          111.3467         0.321479   
    244. A(H  78,C  29,H  79)          107.1743         0.287579   
    245. A(H  77,C  29,H  79)          108.0687         0.287596   
    246. A(H  77,C  29,H  78)          107.9946         0.287598   
    247. A(C  28,C  29,H  78)          110.5034         0.321481   
    248. A(C  28,C  29,H  77)          111.5787         0.321501   
    249. A(H  81,C  30,H  82)          107.0732         0.287414   
    250. A(H  80,C  30,H  82)          108.1014         0.287600   
    251. A(C  28,C  30,H  82)          110.7457         0.321887   
    252. A(H  80,C  30,H  81)          107.7840         0.287376   
    253. A(C  28,C  30,H  81)          111.4280         0.321624   
    254. A(C  28,C  30,H  80)          111.5219         0.321843   
    255. A(C  33,C  32,O  42)          122.0484         0.438103   
    256. A(C  18,C  32,O  42)          117.4525         0.426264   
    257. A(C  18,C  32,C  33)          120.4982         0.367449   
    258. A(C  32,C  33,C  34)          114.3644         0.370682   
    259. A(C  34,C  33,H  84)          111.9230         0.322196   
    260. A(H  83,C  33,H  84)          104.1688         0.285803   
    261. A(C  32,C  33,H  84)          106.9325         0.327612   
    262. A(C  34,C  33,H  83)          112.0474         0.321326   
    263. A(C  32,C  33,H  83)          106.7186         0.326722   
    264. A(C  33,C  34,C  35)          112.4028         0.363212   
    265. A(H  85,C  34,H  86)          105.7962         0.287260   
    266. A(C  35,C  34,H  86)          110.2310         0.321584   
    267. A(C  33,C  34,H  86)          110.0938         0.322497   
    268. A(C  35,C  34,H  85)          109.5256         0.321830   
    269. A(C  33,C  34,H  85)          108.5615         0.322744   
    270. A(C  34,C  35,C  36)          114.2173         0.362741   
    271. A(H  87,C  35,H  88)          106.0555         0.286352   
    272. A(C  36,C  35,H  88)          108.9596         0.321884   
    273. A(C  34,C  35,H  88)          109.3179         0.321373   
    274. A(C  36,C  35,H  87)          109.1223         0.321486   
    275. A(C  34,C  35,H  87)          108.8514         0.320976   
    276. A(C  35,C  36,C  37)          113.4539         0.363512   
    277. A(H  89,C  36,H  90)          105.6779         0.286379   
    278. A(C  37,C  36,H  90)          108.8926         0.322070   
    279. A(C  35,C  36,H  90)          109.6431         0.321927   
    280. A(C  37,C  36,H  89)          109.8548         0.321617   
    281. A(C  35,C  36,H  89)          109.0270         0.321474   
    282. A(C  36,C  37,C  38)          112.9500         0.363900   
    283. A(H  91,C  37,H  92)          105.9849         0.286229   
    284. A(C  38,C  37,H  92)          109.4800         0.321979   
    285. A(C  36,C  37,H  92)          109.7977         0.321792   
    286. A(C  38,C  37,H  91)          109.3055         0.321905   
    287. A(C  36,C  37,H  91)          109.0828         0.321718   
    288. A(C  37,C  38,C  39)          114.5220         0.364096   
    289. A(H  93,C  38,H  94)          106.0325         0.286106   
    290. A(C  39,C  38,H  94)          108.9632         0.321898   
    291. A(C  37,C  38,H  94)          108.6364         0.321919   
    292. A(C  39,C  38,H  93)          109.3159         0.321798   
    293. A(C  37,C  38,H  93)          109.0286         0.321819   
    294. A(C  38,C  39,C  40)          113.3124         0.363465   
    295. A(H  95,C  39,H  96)          105.9417         0.286231   
    296. A(C  40,C  39,H  96)          109.2884         0.321441   
    297. A(C  38,C  39,H  96)          109.5011         0.321955   
    298. A(C  40,C  39,H  95)          109.2577         0.321375   
    299. A(C  38,C  39,H  95)          109.2748         0.321889   
    300. A(C  39,C  40,C  41)          113.3648         0.363249   
    301. A(H  97,C  40,H  98)          105.9893         0.286080   
    302. A(C  41,C  40,H  98)          109.4160         0.321559   
    303. A(C  39,C  40,H  98)          109.0342         0.321229   
    304. A(C  41,C  40,H  97)          109.5964         0.321741   
    305. A(C  39,C  40,H  97)          109.1741         0.321410   
    306. A(H 100,C  41,H 101)          107.4922         0.287412   
    307. A(H  99,C  41,H 101)          107.7540         0.287573   
    308. A(C  40,C  41,H 101)          111.0410         0.322423   
    309. A(H  99,C  41,H 100)          107.6988         0.287592   
    310. A(C  40,C  41,H 100)          110.9766         0.322446   
    311. A(C  40,C  41,H  99)          111.6932         0.322635   
    312. A(C  17,O  43,H 102)          104.4304         0.349861   
    313. A(C  13,C  45,C  46)          114.0865         0.359758   
    314. A(C  46,C  45,H 104)          109.1912         0.322491   
    315. A(C  13,C  45,H 104)          106.2492         0.318835   
    316. A(C  46,C  45,H 103)          110.9821         0.322648   
    317. A(C  13,C  45,H 103)          109.3288         0.318991   
    318. A(H 103,C  45,H 104)          106.6356         0.287335   
    319. A(H 106,C  46,H 107)          107.9237         0.288137   
    320. A(H 105,C  46,H 107)          108.0214         0.287646   
    321. A(C  45,C  46,H 107)          110.5277         0.322640   
    322. A(H 105,C  46,H 106)          108.6079         0.288329   
    323. A(C  45,C  46,H 106)          111.1951         0.323444   
    324. A(C  45,C  46,H 105)          110.4620         0.322865   
    325. A(C  50,C  48,H 108)          107.6584         0.321339   
    326. A(C  49,C  48,H 108)          108.1376         0.321136   
    327. A(C  10,C  48,H 108)          103.6365         0.317621   
    328. A(C  49,C  48,C  50)          111.9669         0.362328   
    329. A(C  10,C  48,C  50)          112.7853         0.358189   
    330. A(C  10,C  48,C  49)          112.1092         0.357954   
    331. A(H 110,C  49,H 111)          107.9606         0.287924   
    332. A(H 109,C  49,H 111)          106.9808         0.287353   
    333. A(C  48,C  49,H 111)          110.4681         0.322037   
    334. A(H 109,C  49,H 110)          108.4181         0.287418   
    335. A(C  48,C  49,H 110)          110.8166         0.322113   
    336. A(C  48,C  49,H 109)          112.0296         0.321444   
    337. A(H 113,C  50,H 114)          108.7900         0.288200   
    338. A(H 112,C  50,H 114)          108.2664         0.288169   
    339. A(C  48,C  50,H 114)          111.0235         0.322818   
    340. A(H 112,C  50,H 113)          107.7697         0.287527   
    341. A(C  48,C  50,H 113)          109.9644         0.322064   
    342. A(C  48,C  50,H 112)          110.9341         0.322027   
    343. D(H  51,C   2,C   1,N   9)   -147.6539         0.010227   
    344. D(C   3,C   2,C   1,N   9)     90.1999         0.010227   
    345. D(N   6,C   2,C   1,N   9)    -27.4265         0.010227   
    346. D(N   6,C   2,C   1,O   0)    154.7933         0.010227   
    347. D(C   3,C   2,C   1,O   0)    -87.5803         0.010227   
    348. D(H  51,C   2,C   1,O   0)     34.5659         0.010227   
    349. D(C   4,C   3,C   2,N   6)     24.1613         0.010141   
    350. D(H  53,C   3,C   2,H  51)    -94.9913         0.010141   
    351. D(H  53,C   3,C   2,C   1)     22.9504         0.010141   
    352. D(C   4,C   3,C   2,H  51)    142.0200         0.010141   
    353. D(H  53,C   3,C   2,N   6)    147.1500         0.010141   
    354. D(H  52,C   3,C   2,H  51)     24.3599         0.010141   
    355. D(C   4,C   3,C   2,C   1)   -100.0383         0.010141   
    356. D(H  52,C   3,C   2,C   1)    142.3016         0.010141   
    357. D(H  52,C   3,C   2,N   6)    -93.4988         0.010141   
    358. D(H  55,C   4,C   3,H  53)     80.4246         0.010698   
    359. D(H  55,C   4,C   3,H  52)    -40.7921         0.010698   
    360. D(H  54,C   4,C   3,H  52)   -161.8183         0.010698   
    361. D(H  55,C   4,C   3,C   2)   -157.9220         0.010698   
    362. D(H  54,C   4,C   3,H  53)    -40.6016         0.010698   
    363. D(C   5,C   4,C   3,C   2)    -36.8413         0.010698   
    364. D(H  54,C   4,C   3,C   2)     81.0518         0.010698   
    365. D(C   5,C   4,C   3,H  53)   -158.4946         0.010698   
    366. D(C   5,C   4,C   3,H  52)     80.2886         0.010698   
    367. D(N   6,C   5,C   4,C   3)     34.7224         0.011072   
    368. D(H  57,C   5,C   4,C   3)    -83.3907         0.011072   
    369. D(H  56,C   5,C   4,H  55)    -83.6802         0.011072   
    370. D(H  56,C   5,C   4,C   3)    154.6375         0.011072   
    371. D(H  57,C   5,C   4,H  54)    158.4470         0.011072   
    372. D(H  56,C   5,C   4,H  54)     36.4751         0.011072   
    373. D(H  57,C   5,C   4,H  55)     38.2916         0.011072   
    374. D(N   6,C   5,C   4,H  54)    -83.4400         0.011072   
    375. D(N   6,C   5,C   4,H  55)    156.4046         0.011072   
    376. D(C   5,N   6,C   2,C   3)     -2.1694         0.014082   
    377. D(C   7,N   6,C   5,H  57)    -78.0851         0.014458   
    378. D(C   7,N   6,C   5,H  56)     41.9719         0.014458   
    379. D(C   7,N   6,C   5,C   4)    163.8002         0.014458   
    380. D(C   2,N   6,C   5,H  57)     97.4921         0.014458   
    381. D(C   2,N   6,C   5,H  56)   -142.4510         0.014458   
    382. D(C   7,N   6,C   2,H  51)     54.0595         0.014082   
    383. D(C   2,N   6,C   5,C   4)    -20.6226         0.014458   
    384. D(C   7,N   6,C   2,C   3)    173.7984         0.014082   
    385. D(C   5,N   6,C   2,C   1)    120.3921         0.014082   
    386. D(C   7,N   6,C   2,C   1)    -63.6401         0.014082   
    387. D(C   5,N   6,C   2,H  51)   -121.9083         0.014082   
    388. D(C  24,C   7,N   6,C   5)      7.9898         0.032782   
    389. D(C  24,C   7,N   6,C   2)   -167.3016         0.032782   
    390. D(O   8,C   7,N   6,C   5)   -174.3739         0.032782   
    391. D(O   8,C   7,N   6,C   2)     10.3347         0.032782   
    392. D(H  58,N   9,C   1,O   0)    179.3940         0.030928   
    393. D(C  10,N   9,C   1,C   2)    178.1193         0.030928   
    394. D(H  58,N   9,C   1,C   2)      1.7045         0.030928   
    395. D(C  10,N   9,C   1,O   0)     -4.1911         0.030928   
    396. D(H  59,C  10,N   9,C   1)     -6.4351         0.016727   
    397. D(C  48,C  10,N   9,H  58)    -73.3866         0.016727   
    398. D(C  48,C  10,N   9,C   1)    110.2266         0.016727   
    399. D(C  11,C  10,N   9,C   1)   -122.1914         0.016727   
    400. D(H  59,C  10,N   9,H  58)    169.9518         0.016727   
    401. D(C  11,C  10,N   9,H  58)     54.1954         0.016727   
    402. D(O  47,C  11,C  10,N   9)   -158.7823         0.009749   
    403. D(N  12,C  11,C  10,H  59)    -92.5904         0.009749   
    404. D(N  12,C  11,C  10,C  48)    147.6599         0.009749   
    405. D(N  12,C  11,C  10,N   9)     21.6264         0.009749   
    406. D(O  47,C  11,C  10,H  59)     87.0010         0.009749   
    407. D(O  47,C  11,C  10,C  48)    -32.7488         0.009749   
    408. D(H  60,N  12,C  11,O  47)    176.4409         0.028376   
    409. D(H  60,N  12,C  11,C  10)     -3.9698         0.028376   
    410. D(C  13,N  12,C  11,O  47)     12.1936         0.028376   
    411. D(C  13,N  12,C  11,C  10)   -168.2171         0.028376   
    412. D(H  61,C  13,N  12,C  11)    -19.6295         0.016368   
    413. D(H  61,C  13,N  12,H  60)    176.0722         0.016368   
    414. D(C  45,C  13,N  12,H  60)    -67.3584         0.016368   
    415. D(C  45,C  13,N  12,C  11)     96.9400         0.016368   
    416. D(C  14,C  13,N  12,C  11)   -133.7735         0.016368   
    417. D(C  14,C  13,N  12,H  60)     61.9282         0.016368   
    418. D(O  44,C  14,C  13,C  45)    -44.6877         0.010613   
    419. D(O  44,C  14,C  13,N  12)   -173.3741         0.010613   
    420. D(N  15,C  14,C  13,H  61)   -106.3297         0.010613   
    421. D(N  15,C  14,C  13,C  45)    136.1515         0.010613   
    422. D(O  44,C  14,C  13,H  61)     72.8311         0.010613   
    423. D(N  15,C  14,C  13,N  12)      7.4651         0.010613   
    424. D(H  62,N  15,C  14,O  44)   -177.4794         0.032814   
    425. D(H  62,N  15,C  14,C  13)      1.6726         0.032814   
    426. D(C  16,N  15,C  14,O  44)    -21.2900         0.032814   
    427. D(C  16,N  15,C  14,C  13)    157.8620         0.032814   
    428. D(H  64,C  16,N  15,H  62)    -10.6966         0.015155   
    429. D(H  64,C  16,N  15,C  14)   -166.6855         0.015155   
    430. D(H  63,C  16,N  15,H  62)    105.5964         0.015155   
    431. D(H  63,C  16,N  15,C  14)    -50.3924         0.015155   
    432. D(C  17,C  16,N  15,C  14)     70.4713         0.015155   
    433. D(C  17,C  16,N  15,H  62)   -133.5398         0.015155   
    434. D(H  65,C  17,C  16,H  64)    170.8119         0.009941   
    435. D(H  65,C  17,C  16,H  63)     55.5862         0.009941   
    436. D(H  65,C  17,C  16,N  15)    -67.0831         0.009941   
    437. D(O  43,C  17,C  16,H  64)     57.4625         0.009941   
    438. D(O  43,C  17,C  16,H  63)    -57.7632         0.009941   
    439. D(O  43,C  17,C  16,N  15)    179.5675         0.009941   
    440. D(C  18,C  17,C  16,H  64)    -65.0356         0.009941   
    441. D(C  18,C  17,C  16,H  63)    179.7387         0.009941   
    442. D(C  18,C  17,C  16,N  15)     57.0694         0.009941   
    443. D(H  66,C  18,C  17,H  65)    -79.8517         0.009436   
    444. D(H  66,C  18,C  17,O  43)     35.0399         0.009436   
    445. D(H  66,C  18,C  17,C  16)    155.8766         0.009436   
    446. D(C  32,C  18,C  17,O  43)    -74.2161         0.009436   
    447. D(C  32,C  18,C  17,C  16)     46.6206         0.009436   
    448. D(C  32,C  18,C  17,H  65)    170.8923         0.009436   
    449. D(C  19,C  18,C  17,H  65)     32.6176         0.009436   
    450. D(C  19,C  18,C  17,O  43)    147.5092         0.009436   
    451. D(C  19,C  18,C  17,C  16)    -91.6541         0.009436   
    452. D(O  31,C  19,C  18,H  66)    -55.2483         0.010396   
    453. D(O  31,C  19,C  18,C  32)     55.4411         0.010396   
    454. D(O  31,C  19,C  18,C  17)   -168.4393         0.010396   
    455. D(N  20,C  19,C  18,H  66)    122.3965         0.010396   
    456. D(N  20,C  19,C  18,C  17)      9.2055         0.010396   
    457. D(N  20,C  19,C  18,C  32)   -126.9142         0.010396   
    458. D(H  67,N  20,C  19,O  31)    176.1508         0.031638   
    459. D(H  67,N  20,C  19,C  18)     -1.4462         0.031638   
    460. D(C  21,N  20,C  19,O  31)      4.2386         0.031638   
    461. D(C  21,N  20,C  19,C  18)   -173.3584         0.031638   
    462. D(H  68,C  21,N  20,H  67)   -142.9519         0.016242   
    463. D(H  68,C  21,N  20,C  19)     29.3003         0.016242   
    464. D(C  27,C  21,N  20,H  67)    -21.8306         0.016242   
    465. D(C  27,C  21,N  20,C  19)    150.4216         0.016242   
    466. D(C  22,C  21,N  20,H  67)    103.8825         0.016242   
    467. D(C  22,C  21,N  20,C  19)    -83.8652         0.016242   
    468. D(N  23,C  22,C  21,C  27)    125.4391         0.009568   
    469. D(N  23,C  22,C  21,N  20)     -0.9840         0.009568   
    470. D(O  26,C  22,C  21,H  68)     62.8288         0.009568   
    471. D(O  26,C  22,C  21,C  27)    -55.2907         0.009568   
    472. D(O  26,C  22,C  21,N  20)    178.2862         0.009568   
    473. D(N  23,C  22,C  21,H  68)   -116.4414         0.009568   
    474. D(H  69,N  23,C  22,O  26)   -176.4111         0.032081   
    475. D(H  69,N  23,C  22,C  21)      2.8454         0.032081   
    476. D(C  24,N  23,C  22,O  26)    -11.2107         0.032081   
    477. D(C  24,N  23,C  22,C  21)    168.0458         0.032081   
    478. D(H  70,C  24,N  23,H  69)   -143.1046         0.017772   
    479. D(H  70,C  24,N  23,C  22)     51.2129         0.017772   
    480. D(C  25,C  24,N  23,H  69)     96.9199         0.017772   
    481. D(C  25,C  24,N  23,C  22)    -68.7626         0.017772   
    482. D(C   7,C  24,N  23,H  69)    -23.3578         0.017772   
    483. D(C   7,C  24,N  23,C  22)    170.9597         0.017772   
    484. D(H  70,C  24,C   7,O   8)    135.3141         0.010628   
    485. D(H  70,C  24,C   7,N   6)    -47.0460         0.010628   
    486. D(C  25,C  24,C   7,O   8)   -103.9276         0.010628   
    487. D(C  25,C  24,C   7,N   6)     73.7122         0.010628   
    488. D(N  23,C  24,C   7,O   8)     17.0146         0.010628   
    489. D(N  23,C  24,C   7,N   6)   -165.3455         0.010628   
    490. D(H  73,C  25,C  24,H  70)   -179.5008         0.010203   
    491. D(H  73,C  25,C  24,N  23)    -59.6997         0.010203   
    492. D(H  73,C  25,C  24,C   7)     58.5866         0.010203   
    493. D(H  72,C  25,C  24,H  70)     59.3654         0.010203   
    494. D(H  72,C  25,C  24,N  23)    179.1665         0.010203   
    495. D(H  72,C  25,C  24,C   7)    -62.5472         0.010203   
    496. D(H  71,C  25,C  24,H  70)    -60.5145         0.010203   
    497. D(H  71,C  25,C  24,N  23)     59.2866         0.010203   
    498. D(H  71,C  25,C  24,C   7)    177.5729         0.010203   
    499. D(H  75,C  27,C  21,H  68)    166.9354         0.010846   
    500. D(H  75,C  27,C  21,C  22)    -79.3613         0.010846   
    501. D(H  75,C  27,C  21,N  20)     47.7258         0.010846   
    502. D(H  74,C  27,C  21,H  68)    -78.0666         0.010846   
    503. D(H  74,C  27,C  21,C  22)     35.6368         0.010846   
    504. D(H  74,C  27,C  21,N  20)    162.7239         0.010846   
    505. D(C  28,C  27,C  21,H  68)     43.1076         0.010846   
    506. D(C  28,C  27,C  21,C  22)    156.8109         0.010846   
    507. D(C  28,C  27,C  21,N  20)    -76.1020         0.010846   
    508. D(H  76,C  28,C  27,H  75)     59.3594         0.010271   
    509. D(H  76,C  28,C  27,H  74)    -57.3664         0.010271   
    510. D(H  76,C  28,C  27,C  21)   -177.1732         0.010271   
    511. D(C  30,C  28,C  27,H  75)    175.6063         0.010271   
    512. D(C  30,C  28,C  27,H  74)     58.8805         0.010271   
    513. D(C  30,C  28,C  27,C  21)    -60.9264         0.010271   
    514. D(C  29,C  28,C  27,H  75)    -57.3753         0.010271   
    515. D(C  29,C  28,C  27,H  74)   -174.1011         0.010271   
    516. D(C  29,C  28,C  27,C  21)     66.0921         0.010271   
    517. D(H  79,C  29,C  28,C  30)     56.2044         0.010780   
    518. D(H  79,C  29,C  28,C  27)    -71.3084         0.010780   
    519. D(H  78,C  29,C  28,H  76)     54.2767         0.010780   
    520. D(H  78,C  29,C  28,C  30)    -62.7832         0.010780   
    521. D(H  78,C  29,C  28,C  27)    169.7040         0.010780   
    522. D(H  77,C  29,C  28,H  76)    -65.8939         0.010780   
    523. D(H  77,C  29,C  28,C  30)    177.0462         0.010780   
    524. D(H  79,C  29,C  28,H  76)    173.2643         0.010780   
    525. D(H  77,C  29,C  28,C  27)     49.5334         0.010780   
    526. D(H  82,C  30,C  28,H  76)    -57.6172         0.010924   
    527. D(H  82,C  30,C  28,C  29)     59.2332         0.010924   
    528. D(H  82,C  30,C  28,C  27)   -172.2963         0.010924   
    529. D(H  81,C  30,C  28,H  76)   -176.6898         0.010924   
    530. D(H  81,C  30,C  28,C  29)    -59.8395         0.010924   
    531. D(H  81,C  30,C  28,C  27)     68.6310         0.010924   
    532. D(H  80,C  30,C  28,H  76)     62.8149         0.010924   
    533. D(H  80,C  30,C  28,C  29)    179.6652         0.010924   
    534. D(H  80,C  30,C  28,C  27)    -51.8643         0.010924   
    535. D(O  42,C  32,C  18,H  66)    -68.3154         0.009631   
    536. D(O  42,C  32,C  18,C  19)   -178.5720         0.009631   
    537. D(O  42,C  32,C  18,C  17)     41.3433         0.009631   
    538. D(C  33,C  32,C  18,H  66)    111.3446         0.009631   
    539. D(C  33,C  32,C  18,C  19)      1.0880         0.009631   
    540. D(C  33,C  32,C  18,C  17)   -138.9967         0.009631   
    541. D(H  84,C  33,C  32,O  42)    132.5682         0.012839   
    542. D(H  84,C  33,C  32,C  18)    -47.0758         0.012839   
    543. D(H  83,C  33,C  32,O  42)   -116.4169         0.012839   
    544. D(H  83,C  33,C  32,C  18)     63.9390         0.012839   
    545. D(C  34,C  33,C  32,O  42)      8.0749         0.012839   
    546. D(C  34,C  33,C  32,C  18)   -171.5691         0.012839   
    547. D(H  86,C  34,C  33,H  84)    166.2872         0.011303   
    548. D(H  86,C  34,C  33,H  83)     49.6928         0.011303   
    549. D(H  86,C  34,C  33,C  32)    -71.9162         0.011303   
    550. D(H  85,C  34,C  33,H  84)    -78.3337         0.011303   
    551. D(H  85,C  34,C  33,H  83)    165.0719         0.011303   
    552. D(H  85,C  34,C  33,C  32)     43.4629         0.011303   
    553. D(C  35,C  34,C  33,H  84)     42.9831         0.011303   
    554. D(C  35,C  34,C  33,H  83)    -73.6113         0.011303   
    555. D(C  35,C  34,C  33,C  32)    164.7797         0.011303   
    556. D(H  88,C  35,C  34,H  86)     66.7484         0.010941   
    557. D(H  88,C  35,C  34,H  85)    -49.2604         0.010941   
    558. D(H  88,C  35,C  34,C  33)   -170.0243         0.010941   
    559. D(H  87,C  35,C  34,H  86)   -177.8242         0.010941   
    560. D(H  87,C  35,C  34,H  85)     66.1670         0.010941   
    561. D(H  87,C  35,C  34,C  33)    -54.5969         0.010941   
    562. D(C  36,C  35,C  34,H  86)    -55.6074         0.010941   
    563. D(C  36,C  35,C  34,H  85)   -171.6163         0.010941   
    564. D(C  36,C  35,C  34,C  33)     67.6199         0.010941   
    565. D(H  90,C  36,C  35,H  87)     71.5485         0.011142   
    566. D(H  90,C  36,C  35,C  34)    -50.5199         0.011142   
    567. D(H  89,C  36,C  35,H  88)    -57.8193         0.011142   
    568. D(H  89,C  36,C  35,H  87)   -173.1995         0.011142   
    569. D(H  89,C  36,C  35,C  34)     64.7321         0.011142   
    570. D(C  37,C  36,C  35,H  88)     64.9487         0.011142   
    571. D(C  37,C  36,C  35,H  87)    -50.4315         0.011142   
    572. D(H  90,C  36,C  35,H  88)   -173.0713         0.011142   
    573. D(C  37,C  36,C  35,C  34)   -172.4999         0.011142   
    574. D(H  92,C  37,C  36,H  90)   -177.3068         0.011199   
    575. D(H  92,C  37,C  36,H  89)     67.4000         0.011199   
    576. D(H  92,C  37,C  36,C  35)    -54.9100         0.011199   
    577. D(H  91,C  37,C  36,H  90)    -61.5703         0.011199   
    578. D(H  91,C  37,C  36,H  89)   -176.8634         0.011199   
    579. D(H  91,C  37,C  36,C  35)     60.8265         0.011199   
    580. D(C  38,C  37,C  36,H  90)     60.1915         0.011199   
    581. D(C  38,C  37,C  36,H  89)    -55.1016         0.011199   
    582. D(C  38,C  37,C  36,C  35)   -177.4117         0.011199   
    583. D(H  94,C  38,C  37,H  92)   -175.5824         0.011275   
    584. D(H  94,C  38,C  37,H  91)     68.7329         0.011275   
    585. D(H  94,C  38,C  37,C  36)    -52.9034         0.011275   
    586. D(H  93,C  38,C  37,H  92)    -60.4555         0.011275   
    587. D(H  93,C  38,C  37,H  91)   -176.1402         0.011275   
    588. D(H  93,C  38,C  37,C  36)     62.2235         0.011275   
    589. D(C  39,C  38,C  37,H  92)     62.3589         0.011275   
    590. D(C  39,C  38,C  37,H  91)    -53.3259         0.011275   
    591. D(C  39,C  38,C  37,C  36)   -174.9622         0.011275   
    592. D(H  95,C  39,C  38,H  94)    -64.8048         0.011266   
    593. D(H  95,C  39,C  38,H  93)    179.7347         0.011266   
    594. D(H  95,C  39,C  38,C  37)     57.0758         0.011266   
    595. D(C  40,C  39,C  38,H  94)     57.2790         0.011266   
    596. D(C  40,C  39,C  38,H  93)    -58.1815         0.011266   
    597. D(C  40,C  39,C  38,C  37)    179.1596         0.011266   
    598. D(H  96,C  39,C  38,H  94)    179.5677         0.011266   
    599. D(H  96,C  39,C  38,H  93)     64.1071         0.011266   
    600. D(H  96,C  39,C  38,C  37)    -58.5518         0.011266   
    601. D(H  98,C  40,C  39,H  95)     64.5138         0.011061   
    602. D(H  98,C  40,C  39,C  38)    -57.5795         0.011061   
    603. D(H  97,C  40,C  39,H  96)    -64.6159         0.011061   
    604. D(H  97,C  40,C  39,H  95)    179.8842         0.011061   
    605. D(H  97,C  40,C  39,C  38)     57.7909         0.011061   
    606. D(C  41,C  40,C  39,H  96)     57.8659         0.011061   
    607. D(C  41,C  40,C  39,H  95)    -57.6339         0.011061   
    608. D(H  98,C  40,C  39,H  96)   -179.9863         0.011061   
    609. D(C  41,C  40,C  39,C  38)   -179.7272         0.011061   
    610. D(H 101,C  41,C  40,H  98)    -62.3430         0.011192   
    611. D(H 101,C  41,C  40,H  97)   -178.1607         0.011192   
    612. D(H 101,C  41,C  40,C  39)     59.5920         0.011192   
    613. D(H 100,C  41,C  40,H  98)    178.1589         0.011192   
    614. D(H 100,C  41,C  40,H  97)     62.3413         0.011192   
    615. D(H 100,C  41,C  40,C  39)    -59.9060         0.011192   
    616. D(H  99,C  41,C  40,H  98)     57.9650         0.011192   
    617. D(H  99,C  41,C  40,H  97)    -57.8526         0.011192   
    618. D(H  99,C  41,C  40,C  39)    179.9001         0.011192   
    619. D(H 102,O  43,C  17,H  65)    170.3757         0.018624   
    620. D(H 102,O  43,C  17,C  18)     53.5355         0.018624   
    621. D(H 102,O  43,C  17,C  16)    -74.0215         0.018624   
    622. D(H 104,C  45,C  13,H  61)     81.7993         0.009891   
    623. D(H 104,C  45,C  13,C  14)   -162.3240         0.009891   
    624. D(H 104,C  45,C  13,N  12)    -32.7173         0.009891   
    625. D(H 103,C  45,C  13,H  61)   -163.4771         0.009891   
    626. D(H 103,C  45,C  13,C  14)    -47.6005         0.009891   
    627. D(H 103,C  45,C  13,N  12)     82.0062         0.009891   
    628. D(C  46,C  45,C  13,H  61)    -38.5551         0.009891   
    629. D(C  46,C  45,C  13,C  14)     77.3215         0.009891   
    630. D(C  46,C  45,C  13,N  12)   -153.0718         0.009891   
    631. D(H 107,C  46,C  45,H 104)    -58.0788         0.011265   
    632. D(H 107,C  46,C  45,H 103)   -175.3461         0.011265   
    633. D(H 107,C  46,C  45,C  13)     60.6156         0.011265   
    634. D(H 106,C  46,C  45,H 104)   -177.9239         0.011265   
    635. D(H 106,C  46,C  45,H 103)     64.8088         0.011265   
    636. D(H 106,C  46,C  45,C  13)    -59.2295         0.011265   
    637. D(H 105,C  46,C  45,H 104)     61.4136         0.011265   
    638. D(H 105,C  46,C  45,H 103)    -55.8536         0.011265   
    639. D(H 105,C  46,C  45,C  13)   -179.8920         0.011265   
    640. D(H 108,C  48,C  10,H  59)     69.0155         0.009647   
    641. D(H 108,C  48,C  10,C  11)   -171.6933         0.009647   
    642. D(H 108,C  48,C  10,N   9)    -45.6109         0.009647   
    643. D(C  50,C  48,C  10,H  59)    -47.1183         0.009647   
    644. D(C  50,C  48,C  10,C  11)     72.1729         0.009647   
    645. D(C  50,C  48,C  10,N   9)   -161.7447         0.009647   
    646. D(C  49,C  48,C  10,H  59)   -174.6053         0.009647   
    647. D(C  49,C  48,C  10,C  11)    -55.3141         0.009647   
    648. D(C  49,C  48,C  10,N   9)     70.7683         0.009647   
    649. D(H 111,C  49,C  48,C  50)     58.8973         0.010932   
    650. D(H 111,C  49,C  48,C  10)   -173.1798         0.010932   
    651. D(H 110,C  49,C  48,H 108)   -179.1543         0.010932   
    652. D(H 110,C  49,C  48,C  50)    -60.7090         0.010932   
    653. D(H 110,C  49,C  48,C  10)     67.2139         0.010932   
    654. D(H 109,C  49,C  48,H 108)     59.6159         0.010932   
    655. D(H 109,C  49,C  48,C  50)    178.0613         0.010932   
    656. D(H 111,C  49,C  48,H 108)    -59.5480         0.010932   
    657. D(H 109,C  49,C  48,C  10)    -54.0158         0.010932   
    658. D(H 114,C  50,C  48,H 108)    179.0377         0.011012   
    659. D(H 114,C  50,C  48,C  49)     60.3084         0.011012   
    660. D(H 114,C  50,C  48,C  10)    -67.2537         0.011012   
    661. D(H 113,C  50,C  48,H 108)     58.5902         0.011012   
    662. D(H 113,C  50,C  48,C  49)    -60.1392         0.011012   
    663. D(H 113,C  50,C  48,C  10)    172.2987         0.011012   
    664. D(H 112,C  50,C  48,H 108)    -60.5284         0.011012   
    665. D(H 112,C  50,C  48,C  49)   -179.2577         0.011012   
    666. D(H 112,C  50,C  48,C  10)     53.1802         0.011012   
    -----------------------------------------------------------------

Number of atoms                         .... 115
Number of degrees of freedom            .... 666

         *************************************************************
         *                GEOMETRY OPTIMIZATION CYCLE   1            *
         *************************************************************
---------------------------------
CARTESIAN COORDINATES (ANGSTROEM)
---------------------------------
  O      3.971269    2.790361    0.139884
  C      3.303668    2.127211    0.927422
  C      1.952490    2.650280    1.428123
  C      2.098022    3.541178    2.680433
  C      1.736866    2.613432    3.850005
  C      0.610147    1.751837    3.273900
  N      1.006384    1.602302    1.862528
  C      0.542955    0.699905    0.963372
  O      1.042908    0.618388   -0.175148
  N      3.705091    0.933797    1.449091
  C      4.939845    0.276456    1.053542
  C      4.663218   -1.134720    0.502440
  N      3.388002   -1.361993    0.044663
  C      2.969271   -2.725836   -0.249118
  C      2.241939   -2.867548   -1.584906
  N      2.202465   -1.786410   -2.401498
  C      1.975968   -1.919105   -3.844904
  C      0.577446   -2.339253   -4.354644
  C     -0.632838   -1.457815   -3.936904
  C     -1.418517   -1.797866   -2.668146
  N     -0.915018   -2.752190   -1.840217
  C     -1.681555   -3.224868   -0.694030
  C     -1.530989   -2.323072    0.548688
  N     -0.705037   -1.255489    0.396938
  C     -0.642811   -0.177960    1.358496
  C     -1.943940    0.651127    1.353103
  O     -2.137075   -2.562489    1.593868
  C     -1.351620   -4.681947   -0.346201
  C     -1.962638   -5.757246   -1.266934
  C     -1.417413   -5.726647   -2.701303
  C     -3.494980   -5.717477   -1.258939
  O     -2.500065   -1.241773   -2.443162
  C     -0.305000    0.034579   -4.143130
  C     -0.726112    1.054259   -3.126305
  C     -0.512550    2.503414   -3.561011
  C     -1.280196    3.496316   -2.681287
  C     -0.767588    3.586662   -1.242530
  C     -1.652663    4.440515   -0.333531
  C     -1.097156    4.574677    1.083918
  C     -2.012123    5.318928    2.056032
  C     -1.438185    5.419491    3.471902
  C     -2.355747    6.158236    4.447252
  O      0.302162    0.345580   -5.166538
  O      0.668884   -2.370296   -5.779896
  O      1.720952   -3.947161   -1.909507
  C      2.191787   -3.355033    0.931615
  C      2.285171   -4.879154    0.998423
  O      5.536353   -1.999912    0.469062
  C      5.977526    0.305283    2.206089
  C      5.582693   -0.621712    3.361157
  C      7.407362    0.042569    1.723672
  H      1.527207    3.197471    0.577091
  H      1.379988    4.369978    2.621493
  H      3.104268    3.969492    2.755062
  H      2.595936    1.983394    4.125260
  H      1.419406    3.160086    4.746380
  H      0.511316    0.772283    3.759225
  H     -0.357347    2.273594    3.352797
  H      3.085204    0.463760    2.101618
  H      5.331916    0.884927    0.221130
  H      2.678713   -0.631108    0.141926
  H      3.912924   -3.286270   -0.372682
  H      2.687368   -0.953091   -2.077260
  H      2.670836   -2.670840   -4.248287
  H      2.228124   -0.951072   -4.294264
  H      0.381956   -3.375015   -4.047278
  H     -1.378495   -1.655557   -4.729228
  H     -0.046210   -3.251469   -2.061905
  H     -2.747695   -3.123993   -0.953012
  H     -0.272489   -1.076555   -0.507811
  H     -0.496342   -0.608476    2.362173
  H     -2.780513   -0.013945    1.597241
  H     -1.915350    1.464371    2.089852
  H     -2.109225    1.080269    0.356145
  H     -1.716497   -4.843863    0.678355
  H     -0.257000   -4.799806   -0.323361
  H     -1.653900   -6.720025   -0.822375
  H     -0.318098   -5.702168   -2.715673
  H     -1.744704   -6.617556   -3.256904
  H     -1.785388   -4.847894   -3.250799
  H     -3.893978   -5.745068   -0.234391
  H     -3.876202   -4.805505   -1.743825
  H     -3.909720   -6.573731   -1.810271
  H     -0.181637    0.816024   -2.191842
  H     -1.782134    0.848561   -2.883399
  H     -0.840942    2.607638   -4.605794
  H      0.562113    2.744602   -3.559035
  H     -2.347076    3.210630   -2.668020
  H     -1.238444    4.497984   -3.139983
  H      0.260732    3.989951   -1.251269
  H     -0.686938    2.574457   -0.813661
  H     -2.661588    3.994273   -0.289456
  H     -1.783129    5.443972   -0.774227
  H     -0.118355    5.084611    1.040341
  H     -0.897179    3.564367    1.481566
  H     -2.991843    4.811442    2.095448
  H     -2.211666    6.333724    1.670591
  H     -0.457815    5.925177    3.430639
  H     -1.239851    4.401784    3.853426
  H     -1.918490    6.212904    5.454329
  H     -2.543966    7.187798    4.107978
  H     -3.330335    5.654384    4.531506
  H      0.684690   -1.423360   -6.045164
  H      1.142732   -3.025936    0.893422
  H      2.623691   -2.925445    1.848666
  H      1.712254   -5.262017    1.854582
  H      1.896686   -5.340464    0.083230
  H      3.331534   -5.196604    1.119754
  H      5.933020    1.346109    2.570293
  H      4.566551   -0.410631    3.731725
  H      5.626854   -1.674237    3.049613
  H      6.267701   -0.490660    4.210435
  H      7.677380    0.725122    0.904338
  H      8.117826    0.208497    2.546708
  H      7.518051   -0.986735    1.363891

----------------------------
CARTESIAN COORDINATES (A.U.)
----------------------------
  NO LB      ZA    FRAG     MASS         X           Y           Z
   0 O     8.0000    0    15.999    7.504610    5.273019    0.264342
   1 C     6.0000    0    12.011    6.243028    4.019846    1.752573
   2 C     6.0000    0    12.011    3.689671    5.008304    2.698761
   3 C     6.0000    0    12.011    3.964688    6.691857    5.065285
   4 C     6.0000    0    12.011    3.282201    4.938670    7.275455
   5 C     6.0000    0    12.011    1.153011    3.310492    6.186774
   6 N     7.0000    0    14.007    1.901790    3.027911    3.519669
   7 C     6.0000    0    12.011    1.026037    1.322628    1.820509
   8 O     8.0000    0    15.999    1.970810    1.168583   -0.330982
   9 N     7.0000    0    14.007    7.001607    1.764621    2.738384
  10 C     6.0000    0    12.011    9.334953    0.522425    1.990905
  11 C     6.0000    0    12.011    8.812206   -2.144311    0.949473
  12 N     7.0000    0    14.007    6.402396   -2.573794    0.084401
  13 C     6.0000    0    12.011    5.611110   -5.151083   -0.470765
  14 C     6.0000    0    12.011    4.236651   -5.418880   -2.995038
  15 N     7.0000    0    14.007    4.162056   -3.375826   -4.538173
  16 C     6.0000    0    12.011    3.734038   -3.626583   -7.265815
  17 C     6.0000    0    12.011    1.091215   -4.420548   -8.229085
  18 C     6.0000    0    12.011   -1.195891   -2.754871   -7.439670
  19 C     6.0000    0    12.011   -2.680608   -3.397475   -5.042064
  20 N     7.0000    0    14.007   -1.729134   -5.200886   -3.477506
  21 C     6.0000    0    12.011   -3.177678   -6.094117   -1.311526
  22 C     6.0000    0    12.011   -2.893150   -4.389969    1.036869
  23 N     7.0000    0    14.007   -1.332328   -2.372531    0.750104
  24 C     6.0000    0    12.011   -1.214736   -0.336296    2.567185
  25 C     6.0000    0    12.011   -3.673514    1.230451    2.556995
  26 O     8.0000    0    15.999   -4.038486   -4.842401    3.011974
  27 C     6.0000    0    12.011   -2.554192   -8.847597   -0.654226
  28 C     6.0000    0    12.011   -3.708849  -10.879618   -2.394158
  29 C     6.0000    0    12.011   -2.678523  -10.821794   -5.104724
  30 C     6.0000    0    12.011   -6.604555  -10.804467   -2.379049
  31 O     8.0000    0    15.999   -4.724438   -2.346611   -4.616907
  32 C     6.0000    0    12.011   -0.576366    0.065344   -7.829380
  33 C     6.0000    0    12.011   -1.372152    1.992260   -5.907860
  34 C     6.0000    0    12.011   -0.968579    4.730766   -6.729336
  35 C     6.0000    0    12.011   -2.419220    6.607080   -5.066899
  36 C     6.0000    0    12.011   -1.450532    6.777810   -2.348041
  37 C     6.0000    0    12.011   -3.123080    8.391356   -0.630282
  38 C     6.0000    0    12.011   -2.073325    8.644887    2.048307
  39 C     6.0000    0    12.011   -3.802362   10.051317    3.885338
  40 C     6.0000    0    12.011   -2.717775   10.241354    6.560943
  41 C     6.0000    0    12.011   -4.451716   11.637380    8.404088
  42 O     8.0000    0    15.999    0.571003    0.653052   -9.763341
  43 O     8.0000    0    15.999    1.264007   -4.479211  -10.922420
  44 O     8.0000    0    15.999    3.252127   -7.459053   -3.608445
  45 C     6.0000    0    12.011    4.141878   -6.340093    1.760498
  46 C     6.0000    0    12.011    4.318347   -9.220265    1.886746
  47 O     8.0000    0    15.999   10.462191   -3.779286    0.886399
  48 C     6.0000    0    12.011   11.295887    0.576902    4.168905
  49 C     6.0000    0    12.011   10.549760   -1.174866    6.351666
  50 C     6.0000    0    12.011   13.997885    0.080443    3.257269
  51 H     1.0000    0     1.008    2.886004    6.042344    1.090544
  52 H     1.0000    0     1.008    2.607800    8.258062    4.953904
  53 H     1.0000    0     1.008    5.866217    7.501254    5.206313
  54 H     1.0000    0     1.008    4.905607    3.748072    7.795611
  55 H     1.0000    0     1.008    2.682288    5.971697    8.969359
  56 H     1.0000    0     1.008    0.966247    1.459404    7.103906
  57 H     1.0000    0     1.008   -0.675289    4.296469    6.335867
  58 H     1.0000    0     1.008    5.830191    0.876379    3.971482
  59 H     1.0000    0     1.008   10.075860    1.672269    0.417876
  60 H     1.0000    0     1.008    5.062034   -1.192622    0.268201
  61 H     1.0000    0     1.008    7.394355   -6.210150   -0.704267
  62 H     1.0000    0     1.008    5.078389   -1.801081   -3.925453
  63 H     1.0000    0     1.008    5.047148   -5.047157   -8.028099
  64 H     1.0000    0     1.008    4.210545   -1.797266   -8.114983
  65 H     1.0000    0     1.008    0.721792   -6.377853   -7.648248
  66 H     1.0000    0     1.008   -2.604977   -3.128549   -8.936946
  67 H     1.0000    0     1.008   -0.087325   -6.144387   -3.896436
  68 H     1.0000    0     1.008   -5.192392   -5.903491   -1.800931
  69 H     1.0000    0     1.008   -0.514929   -2.034394   -0.959623
  70 H     1.0000    0     1.008   -0.937951   -1.149853    4.463859
  71 H     1.0000    0     1.008   -5.254408   -0.026353    3.018349
  72 H     1.0000    0     1.008   -3.619487    2.767260    3.949248
  73 H     1.0000    0     1.008   -3.985857    2.041412    0.673016
  74 H     1.0000    0     1.008   -3.243710   -9.153574    1.281906
  75 H     1.0000    0     1.008   -0.485660   -9.070319   -0.611063
  76 H     1.0000    0     1.008   -3.125418  -12.699007   -1.554064
  77 H     1.0000    0     1.008   -0.601117  -10.775535   -5.131878
  78 H     1.0000    0     1.008   -3.297013  -12.505368   -6.154656
  79 H     1.0000    0     1.008   -3.373894   -9.161193   -6.143120
  80 H     1.0000    0     1.008   -7.358551  -10.856605   -0.442935
  81 H     1.0000    0     1.008   -7.324961   -9.081089   -3.295352
  82 H     1.0000    0     1.008   -7.388301  -12.422552   -3.420917
  83 H     1.0000    0     1.008   -0.343244    1.542062   -4.141981
  84 H     1.0000    0     1.008   -3.367745    1.603548   -5.448834
  85 H     1.0000    0     1.008   -1.589150    4.927721   -8.703688
  86 H     1.0000    0     1.008    1.062240    5.186547   -6.725601
  87 H     1.0000    0     1.008   -4.435332    6.067211   -5.041827
  88 H     1.0000    0     1.008   -2.340320    8.499959   -5.933708
  89 H     1.0000    0     1.008    0.492712    7.539915   -2.364556
  90 H     1.0000    0     1.008   -1.298125    4.865019   -1.537597
  91 H     1.0000    0     1.008   -5.029673    7.548082   -0.546993
  92 H     1.0000    0     1.008   -3.369625   10.287617   -1.463077
  93 H     1.0000    0     1.008   -0.223659    9.608522    1.965959
  94 H     1.0000    0     1.008   -1.695422    6.735677    2.799753
  95 H     1.0000    0     1.008   -5.653763    9.092308    3.959823
  96 H     1.0000    0     1.008   -4.179443   11.969004    3.156959
  97 H     1.0000    0     1.008   -0.865145   11.196963    6.482967
  98 H     1.0000    0     1.008   -2.342979    8.318166    7.281919
  99 H     1.0000    0     1.008   -3.625420   11.740687   10.307188
 100 H     1.0000    0     1.008   -4.807400   13.582970    7.762953
 101 H     1.0000    0     1.008   -6.293422   10.685238    8.563305
 102 H     1.0000    0     1.008    1.293877   -2.689761  -11.423704
 103 H     1.0000    0     1.008    2.159451   -5.718191    1.688323
 104 H     1.0000    0     1.008    4.958057   -5.528289    3.493473
 105 H     1.0000    0     1.008    3.235691   -9.943771    3.504652
 106 H     1.0000    0     1.008    3.584217  -10.092014    0.157283
 107 H     1.0000    0     1.008    6.295687   -9.820158    2.116028
 108 H     1.0000    0     1.008   11.211783    2.543777    4.857149
 109 H     1.0000    0     1.008    8.629531   -0.775979    7.051939
 110 H     1.0000    0     1.008   10.633213   -3.163849    5.762933
 111 H     1.0000    0     1.008   11.844239   -0.927213    7.956569
 112 H     1.0000    0     1.008   14.508146    1.370283    1.708950
 113 H     1.0000    0     1.008   15.340467    0.394003    4.812581
 114 H     1.0000    0     1.008   14.207057   -1.864658    2.577380

--------------------------------
INTERNAL COORDINATES (ANGSTROEM)
--------------------------------
 O      0   0   0     0.000000000000     0.00000000     0.00000000
 C      1   0   0     1.227059715812     0.00000000     0.00000000
 C      2   1   0     1.532966307476   120.31612453     0.00000000
 C      3   2   1     1.543748908549   112.25827500   272.41974075
 C      4   3   2     1.535918342929   104.29819637   259.96174688
 C      5   4   3     1.530927008061   103.08807819   323.15874756
 N      6   5   4     1.473544473246   102.68805849    34.72236799
 C      7   6   5     1.355569877946   127.65782579   163.80021914
 O      8   7   6     1.246123819590   120.82485213   185.62607679
 N      2   1   3     1.362906528547   123.96202557   182.41209095
 C     10   2   1     1.453675909330   122.81884224   355.80890904
 C     11  10   2     1.540017290293   111.04864781   237.80863649
 N     12  11  10     1.373822902037   115.94863863    21.62635832
 C     13  12  11     1.456608925890   119.27071433   191.78292704
 C     14  13  12     1.527554740000   113.58485580   226.22649290
 N     15  14  13     1.355448043871   117.81975624     7.46509879
 C     16  15  14     1.467081829822   121.67375011   157.86204981
 C     17  16  15     1.546681375542   119.23672130    70.47134128
 C     18  17  16     1.554422357481   117.47853785    57.06941340
 C     19  18  17     1.530579226753   119.76636229   268.34590851
 N     20  19  18     1.360040540192   118.06539921     9.20547885
 C     21  20  19     1.457651390235   120.76609037   186.64164100
 C     22  21  20     1.542806791547   113.11098756   276.13476828
 N     23  22  21     1.358291952081   115.38943515   359.01595626
 C     24  23  22     1.445522578775   122.53027945   168.04580817
 C     25  24  23     1.542838638290   111.21974847   291.23742657
 O     23  22  21     1.231690695624   121.45826459   178.28616759
 C     22  21  20     1.533923178772   111.91451443   150.42163441
 C     28  22  21     1.541868954344   116.21979378   283.89801667
 C     29  28  22     1.534803924989   113.79070745    66.09205411
 C     29  28  22     1.532878328411   112.02046796   299.07357562
 O     20  19  18     1.236771604263   119.98637194   191.56072158
 C     19  18  17     1.541831935980   110.32651102    46.62061621
 C     33  19  18     1.500338160822   120.49822981   221.00327056
 C     34  33  19     1.527948890377   114.36442534   188.43090158
 C     35  34  33     1.532661039747   112.40284439   164.77969133
 C     36  35  34     1.530017196257   114.21727304    67.61986531
 C     37  36  35     1.529280926075   113.45386974   187.50010839
 C     38  37  36     1.528314988040   112.95002693   182.58833359
 C     39  38  37     1.528424253293   114.52195563   185.03784532
 C     40  39  38     1.531079720347   113.31239554   179.15955394
 C     41  40  39     1.529369746959   113.36476667   180.27277423
 O     33  19  18     1.229931414053   117.45248531    41.34326180
 O     18  17  16     1.428518738846   106.07184161   179.56752793
 O     15  14  13     1.241917141481   120.59377765   186.62588291
 C     14  13  12     1.547417542150   111.79310786    96.93995997
 C     46  14  13     1.528440409354   114.08654119   206.92820954
 O     12  11  10     1.229648283615   121.79696341   201.21768666
 C     11  10   2     1.551122312787   110.95602350   110.22660736
 C     49  11  10     1.532773302870   112.10924333    70.76826062
 C     49  11  10     1.531722972200   112.78529652   198.25530602
 H      3   2   1     1.097513940873   104.97491718    34.56586575
 H      4   3   2     1.098160463023   109.29109347   142.30161297
 H      4   3   2     1.096153888821   111.54716411    22.95041811
 H      5   4   3     1.100323904260   110.65691876    81.05183979
 H      5   4   3     1.096859400664   112.91177597   202.07798919
 H      6   5   4     1.097649052786   113.71093437   154.63748506
 H      6   5   4     1.102043847606   110.65405433   276.60930969
 H     10   2   1     1.015375116182   118.13289534   179.39402923
 H     11  10   2     1.103116205992   104.93941109   353.56494504
 H     13  12  11     1.023105058492   119.58099981   356.03015108
 H     14  13  12     1.104461174067   104.59953763   340.37049908
 H     16  15  14     1.017192695806   116.58478189     1.67264781
 H     17  16  15     1.100302355718   108.96505085   309.60760332
 H     17  16  15     1.096629082584   106.72694667   193.31454633
 H     18  17  16     1.097949095602   108.96506241   292.91693923
 H     19  18  17     1.105840491379   103.35924906   155.87660491
 H     21  20  19     1.026281234046   121.55202757   358.55381598
 H     22  21  20     1.101772651889   107.11804178    29.30034782
 H     24  23  22     1.018668652956   119.70219168     2.84541238
 H     25  24  23     1.101890987066   108.68629903    51.21291989
 H     26  25  24     1.096256589319   108.46779430    59.28662555
 H     26  25  24     1.097716651227   111.95052618   179.16651824
 H     26  25  24     1.097910949111   109.88778979   300.30031252
 H     28  22  21     1.099576563589   106.24752828   162.72391323
 H     28  22  21     1.101183473395   108.67389191    47.72584669
 H     29  28  22     1.104488899803   104.87981463   182.82676019
 H     30  29  28     1.099682225168   111.57866332    49.53341463
 H     30  29  28     1.099785920412   110.50340402   169.70397734
 H     30  29  28     1.099798487791   111.34668348   288.69158846
 H     31  29  28     1.099844257703   111.52192892   308.13570734
 H     31  29  28     1.100971623594   111.42797420    68.63103590
 H     31  29  28     1.099612548562   110.74567197   187.70365705
 H     34  33  19     1.107443048714   106.71861465    63.93901855
 H     34  33  19     1.102949867975   106.93247774   312.92416986
 H     35  34  33     1.100124497236   108.56149451    43.46286041
 H     35  34  33     1.101398084785   110.09381708   288.08376911
 H     36  35  34     1.104548308030   108.85136424   305.40312092
 H     36  35  34     1.102489974748   109.31790485   189.97571430
 H     37  36  35     1.104608873530   109.02701943    64.73208856
 H     37  36  35     1.102266963114   109.64313803   309.48010560
 H     38  37  36     1.104085041914   109.08277869    60.82651753
 H     38  37  36     1.103703806926   109.79773205   305.08996387
 H     39  38  37     1.104528320628   109.02857986    62.22350138
 H     39  38  37     1.104011725849   108.63640078   307.09661311
 H     40  39  38     1.104058201218   109.27476973    57.07575244
 H     40  39  38     1.103718559793   109.50105894   301.44821219
 H     41  40  39     1.103877359470   109.17405577    57.79092909
 H     41  40  39     1.104818883797   109.03422640   302.42052110
 H     42  41  40     1.099266513612   111.69324178   179.90006461
 H     42  41  40     1.100241411526   110.97663161   300.09396787
 H     42  41  40     1.100358358267   111.04099088    59.59200276
 H     44  18  17     0.983516609534   104.43035779   285.97854115
 H     46  14  13     1.100126899860   109.32883251    82.00623551
 H     46  14  13     1.100939678035   106.24924760   327.28268672
 H     47  46  14     1.099011453324   110.46204088   180.10803669
 H     47  46  14     1.096040247480   111.19514436   300.77052565
 H     47  46  14     1.100169142502   110.52772446    60.61562067
 H     49  11  10     1.103604318779   103.63652428   314.38905331
 H     50  49  11     1.102007650037   112.02957174   305.98417945
 H     50  49  11     1.098552615090   110.81655590    67.21394824
 H     50  49  11     1.098947161984   110.46812108   186.82023347
 H     51  49  11     1.100044976911   110.93405827    53.18015614
 H     51  49  11     1.099854054572   109.96440473   172.29872427
 H     51  49  11     1.095974387230   111.02345538   292.74625536

---------------------------
INTERNAL COORDINATES (A.U.)
---------------------------
 O      0   0   0     0.000000000000     0.00000000     0.00000000
 C      1   0   0     2.318806812851     0.00000000     0.00000000
 C      2   1   0     2.896886493658   120.31612453     0.00000000
 C      3   2   1     2.917262656697   112.25827500   272.41974075
 C      4   3   2     2.902465032202   104.29819637   259.96174688
 C      5   4   3     2.893032776259   103.08807819   323.15874756
 N      6   5   4     2.784595500588   102.68805849    34.72236799
 C      7   6   5     2.561655824711   127.65782579   163.80021914
 O      8   7   6     2.354832747981   120.82485213   185.62607679
 N      2   1   3     2.575520085087   123.96202557   182.41209095
 C     10   2   1     2.747049356112   122.81884224   355.80890904
 C     11  10   2     2.910210920158   111.04864781   237.80863649
 N     12  11  10     2.596149041359   115.94863863    21.62635832
 C     13  12  11     2.752591954157   119.27071433   191.78292704
 C     14  13  12     2.886660113173   113.58485580   226.22649290
 N     15  14  13     2.561425591676   117.81975624     7.46509879
 C     16  15  14     2.772382874416   121.67375011   157.86204981
 C     17  16  15     2.922804216211   119.23672130    70.47134128
 C     18  17  16     2.937432552083   117.47853785    57.06941340
 C     19  18  17     2.892375564832   119.76636229   268.34590851
 N     20  19  18     2.570104151994   118.06539921     9.20547885
 C     21  20  19     2.754561926274   120.76609037   186.64164100
 C     22  21  20     2.915482313578   113.11098756   276.13476828
 N     23  22  21     2.566799799343   115.38943515   359.01595626
 C     24  23  22     2.731641794285   122.53027945   168.04580817
 C     25  24  23     2.915542495201   111.21974847   291.23742657
 O     23  22  21     2.327558096429   121.45826459   178.28616759
 C     22  21  20     2.898694718353   111.91451443   150.42163441
 C     28  22  21     2.913710058105   116.21979378   283.89801667
 C     29  28  22     2.900359087497   113.79070745    66.09205411
 C     29  28  22     2.896720237320   112.02046796   299.07357562
 O     20  19  18     2.337159622267   119.98637194   191.56072158
 C     19  18  17     2.913640103536   110.32651102    46.62061621
 C     33  19  18     2.835228232225   120.49822981   221.00327056
 C     34  33  19     2.887404949442   114.36442534   188.43090158
 C     35  34  33     2.896309621254   112.40284439   164.77969133
 C     36  35  34     2.891313481116   114.21727304    67.61986531
 C     37  36  35     2.889922132111   113.45386974   187.50010839
 C     38  37  36     2.888096773763   112.95002693   182.58833359
 C     39  38  37     2.888303255166   114.52195563   185.03784532
 C     40  39  38     2.893321360656   113.31239554   179.15955394
 C     41  40  39     2.890089979256   113.36476667   180.27277423
 O     33  19  18     2.324233536067   117.45248531    41.34326180
 O     18  17  16     2.699509193593   106.07184161   179.56752793
 O     15  14  13     2.346883278421   120.59377765   186.62588291
 C     14  13  12     2.924195369490   111.79310786    96.93995997
 C     46  14  13     2.888333785697   114.08654119   206.92820954
 O     12  11  10     2.323698497079   121.79696341   201.21768666
 C     11  10   2     2.931196371383   110.95602350   110.22660736
 C     49  11  10     2.896521767811   112.10924333    70.76826062
 C     49  11  10     2.894536930493   112.78529652   198.25530602
 H      3   2   1     2.074000776410   104.97491718    34.56586575
 H      4   3   2     2.075222526214   109.29109347   142.30161297
 H      4   3   2     2.071430650504   111.54716411    22.95041811
 H      5   4   3     2.079310837658   110.65691876    81.05183979
 H      5   4   3     2.072763874671   112.91177597   202.07798919
 H      6   5   4     2.074256100923   113.71093437   154.63748506
 H      6   5   4     2.082561059547   110.65405433   276.60930969
[...]
freq.      92.02  E(vib)   ...       0.47 
freq.      93.96  E(vib)   ...       0.47 
freq.     100.78  E(vib)   ...       0.46 
freq.     103.67  E(vib)   ...       0.46 
freq.     104.71  E(vib)   ...       0.46 
freq.     112.57  E(vib)   ...       0.45 
freq.     121.34  E(vib)   ...       0.44 
freq.     125.70  E(vib)   ...       0.43 
freq.     131.32  E(vib)   ...       0.42 
freq.     133.87  E(vib)   ...       0.42 
freq.     136.14  E(vib)   ...       0.42 
freq.     139.86  E(vib)   ...       0.41 
freq.     143.39  E(vib)   ...       0.41 
freq.     151.10  E(vib)   ...       0.40 
freq.     152.35  E(vib)   ...       0.40 
freq.     159.03  E(vib)   ...       0.39 
freq.     162.52  E(vib)   ...       0.39 
freq.     165.26  E(vib)   ...       0.39 
freq.     169.99  E(vib)   ...       0.38 
freq.     193.44  E(vib)   ...       0.36 
freq.     193.94  E(vib)   ...       0.36 
freq.     203.42  E(vib)   ...       0.35 
freq.     212.96  E(vib)   ...       0.34 
freq.     220.39  E(vib)   ...       0.33 
freq.     222.08  E(vib)   ...       0.33 
freq.     226.65  E(vib)   ...       0.33 
freq.     229.86  E(vib)   ...       0.32 
freq.     234.39  E(vib)   ...       0.32 
freq.     236.87  E(vib)   ...       0.32 
freq.     237.29  E(vib)   ...       0.32 
freq.     237.83  E(vib)   ...       0.32 
freq.     244.06  E(vib)   ...       0.31 
freq.     249.13  E(vib)   ...       0.31 
freq.     256.34  E(vib)   ...       0.30 
freq.     258.83  E(vib)   ...       0.30 
freq.     261.87  E(vib)   ...       0.29 
freq.     270.54  E(vib)   ...       0.29 
freq.     274.83  E(vib)   ...       0.28 
freq.     278.90  E(vib)   ...       0.28 
freq.     293.02  E(vib)   ...       0.27 
freq.     296.41  E(vib)   ...       0.27 
freq.     305.82  E(vib)   ...       0.26 
freq.     313.45  E(vib)   ...       0.25 
freq.     328.60  E(vib)   ...       0.24 
freq.     340.51  E(vib)   ...       0.23 
freq.     342.08  E(vib)   ...       0.23 
freq.     349.48  E(vib)   ...       0.23 
freq.     360.58  E(vib)   ...       0.22 
freq.     366.07  E(vib)   ...       0.22 
freq.     369.61  E(vib)   ...       0.21 
freq.     388.12  E(vib)   ...       0.20 
freq.     391.89  E(vib)   ...       0.20 
freq.     394.65  E(vib)   ...       0.20 
freq.     412.22  E(vib)   ...       0.19 
freq.     414.22  E(vib)   ...       0.19 
freq.     436.49  E(vib)   ...       0.17 
freq.     442.25  E(vib)   ...       0.17 
freq.     458.42  E(vib)   ...       0.16 
freq.     460.20  E(vib)   ...       0.16 
freq.     465.10  E(vib)   ...       0.16 
freq.     473.05  E(vib)   ...       0.15 
freq.     474.92  E(vib)   ...       0.15 
freq.     483.40  E(vib)   ...       0.15 
freq.     494.06  E(vib)   ...       0.14 
freq.     499.34  E(vib)   ...       0.14 
freq.     504.64  E(vib)   ...       0.14 
freq.     527.10  E(vib)   ...       0.13 
freq.     541.07  E(vib)   ...       0.12 
freq.     555.53  E(vib)   ...       0.12 
freq.     569.03  E(vib)   ...       0.11 
freq.     580.87  E(vib)   ...       0.11 
freq.     586.99  E(vib)   ...       0.10 
freq.     594.28  E(vib)   ...       0.10 
freq.     597.92  E(vib)   ...       0.10 
freq.     626.48  E(vib)   ...       0.09 
freq.     632.48  E(vib)   ...       0.09 
freq.     642.67  E(vib)   ...       0.09 
freq.     657.43  E(vib)   ...       0.08 
freq.     673.76  E(vib)   ...       0.08 
freq.     697.93  E(vib)   ...       0.07 
freq.     710.54  E(vib)   ...       0.07 
freq.     712.05  E(vib)   ...       0.07 
freq.     715.98  E(vib)   ...       0.07 
freq.     718.75  E(vib)   ...       0.07 
freq.     725.57  E(vib)   ...       0.06 
freq.     729.83  E(vib)   ...       0.06 
freq.     738.98  E(vib)   ...       0.06 
freq.     749.48  E(vib)   ...       0.06 
freq.     755.20  E(vib)   ...       0.06 
freq.     763.58  E(vib)   ...       0.06 
freq.     765.41  E(vib)   ...       0.06 
freq.     789.86  E(vib)   ...       0.05 
freq.     797.87  E(vib)   ...       0.05 
freq.     800.38  E(vib)   ...       0.05 
freq.     805.01  E(vib)   ...       0.05 
freq.     809.06  E(vib)   ...       0.05 
freq.     822.84  E(vib)   ...       0.05 
freq.     826.98  E(vib)   ...       0.04 
freq.     838.82  E(vib)   ...       0.04 
freq.     845.08  E(vib)   ...       0.04 
freq.     859.79  E(vib)   ...       0.04 
freq.     865.43  E(vib)   ...       0.04 
freq.     869.92  E(vib)   ...       0.04 
freq.     877.49  E(vib)   ...       0.04 
freq.     882.29  E(vib)   ...       0.04 
freq.     884.77  E(vib)   ...       0.04 
freq.     892.05  E(vib)   ...       0.03 
freq.     899.83  E(vib)   ...       0.03 
freq.     905.24  E(vib)   ...       0.03 
freq.     906.70  E(vib)   ...       0.03 
freq.     907.76  E(vib)   ...       0.03 
freq.     916.90  E(vib)   ...       0.03 
freq.     928.71  E(vib)   ...       0.03 
freq.     939.86  E(vib)   ...       0.03 
freq.     943.38  E(vib)   ...       0.03 
freq.     947.54  E(vib)   ...       0.03 
freq.     949.00  E(vib)   ...       0.03 
freq.     954.10  E(vib)   ...       0.03 
freq.     954.90  E(vib)   ...       0.03 
freq.     967.91  E(vib)   ...       0.03 
freq.     976.87  E(vib)   ...       0.03 
freq.     979.01  E(vib)   ...       0.03 
freq.     985.78  E(vib)   ...       0.02 
freq.     998.94  E(vib)   ...       0.02 
freq.     999.55  E(vib)   ...       0.02 
freq.    1008.47  E(vib)   ...       0.02 
freq.    1012.55  E(vib)   ...       0.02 
freq.    1015.84  E(vib)   ...       0.02 
freq.    1021.00  E(vib)   ...       0.02 
freq.    1028.73  E(vib)   ...       0.02 
freq.    1032.89  E(vib)   ...       0.02 
freq.    1037.36  E(vib)   ...       0.02 
freq.    1039.52  E(vib)   ...       0.02 
freq.    1050.83  E(vib)   ...       0.02 
freq.    1052.57  E(vib)   ...       0.02 
freq.    1054.49  E(vib)   ...       0.02 
freq.    1059.10  E(vib)   ...       0.02 
freq.    1061.52  E(vib)   ...       0.02 
freq.    1067.19  E(vib)   ...       0.02 
freq.    1067.24  E(vib)   ...       0.02 
freq.    1077.20  E(vib)   ...       0.02 
freq.    1082.21  E(vib)   ...       0.02 
freq.    1094.47  E(vib)   ...       0.02 
freq.    1097.73  E(vib)   ...       0.02 
freq.    1103.02  E(vib)   ...       0.02 
freq.    1111.92  E(vib)   ...       0.01 
freq.    1116.41  E(vib)   ...       0.01 
freq.    1123.60  E(vib)   ...       0.01 
freq.    1125.74  E(vib)   ...       0.01 
freq.    1131.05  E(vib)   ...       0.01 
freq.    1135.22  E(vib)   ...       0.01 
freq.    1136.65  E(vib)   ...       0.01 
freq.    1145.04  E(vib)   ...       0.01 
freq.    1151.44  E(vib)   ...       0.01 
freq.    1154.24  E(vib)   ...       0.01 
freq.    1160.84  E(vib)   ...       0.01 
freq.    1170.05  E(vib)   ...       0.01 
freq.    1174.04  E(vib)   ...       0.01 
freq.    1176.66  E(vib)   ...       0.01 
freq.    1179.59  E(vib)   ...       0.01 
freq.    1185.82  E(vib)   ...       0.01 
freq.    1188.49  E(vib)   ...       0.01 
freq.    1197.65  E(vib)   ...       0.01 
freq.    1200.30  E(vib)   ...       0.01 
freq.    1209.50  E(vib)   ...       0.01 
freq.    1220.59  E(vib)   ...       0.01 
freq.    1230.02  E(vib)   ...       0.01 
freq.    1231.50  E(vib)   ...       0.01 
freq.    1233.50  E(vib)   ...       0.01 
freq.    1239.93  E(vib)   ...       0.01 
freq.    1243.91  E(vib)   ...       0.01 
freq.    1247.12  E(vib)   ...       0.01 
freq.    1251.22  E(vib)   ...       0.01 
freq.    1253.35  E(vib)   ...       0.01 
freq.    1256.99  E(vib)   ...       0.01 
freq.    1261.10  E(vib)   ...       0.01 
freq.    1264.67  E(vib)   ...       0.01 
freq.    1268.48  E(vib)   ...       0.01 
freq.    1275.36  E(vib)   ...       0.01 
freq.    1277.22  E(vib)   ...       0.01 
freq.    1278.66  E(vib)   ...       0.01 
freq.    1282.82  E(vib)   ...       0.01 
freq.    1285.12  E(vib)   ...       0.01 
freq.    1287.45  E(vib)   ...       0.01 
freq.    1289.09  E(vib)   ...       0.01 
freq.    1293.40  E(vib)   ...       0.01 
freq.    1295.88  E(vib)   ...       0.01 
freq.    1296.95  E(vib)   ...       0.01 
freq.    1303.37  E(vib)   ...       0.01 
freq.    1304.27  E(vib)   ...       0.01 
freq.    1307.86  E(vib)   ...       0.01 
freq.    1309.13  E(vib)   ...       0.01 
freq.    1310.35  E(vib)   ...       0.01 
freq.    1316.14  E(vib)   ...       0.01 
freq.    1318.78  E(vib)   ...       0.01 
freq.    1319.33  E(vib)   ...       0.01 
freq.    1321.69  E(vib)   ...       0.01 
freq.    1323.05  E(vib)   ...       0.01 
freq.    1331.80  E(vib)   ...       0.01 
freq.    1335.79  E(vib)   ...       0.01 
freq.    1338.78  E(vib)   ...       0.01 
freq.    1345.39  E(vib)   ...       0.01 
freq.    1346.47  E(vib)   ...       0.01 
freq.    1347.20  E(vib)   ...       0.01 
freq.    1347.53  E(vib)   ...       0.01 
freq.    1349.14  E(vib)   ...       0.01 
freq.    1351.98  E(vib)   ...       0.01 
freq.    1353.52  E(vib)   ...       0.01 
freq.    1355.16  E(vib)   ...       0.01 
freq.    1358.66  E(vib)   ...       0.01 
freq.    1365.71  E(vib)   ...       0.01 
freq.    1367.80  E(vib)   ...       0.01 
freq.    1374.71  E(vib)   ...       0.01 
freq.    1395.06  E(vib)   ...       0.00 
freq.    1410.92  E(vib)   ...       0.00 
freq.    1420.58  E(vib)   ...       0.00 
freq.    1427.02  E(vib)   ...       0.00 
freq.    1427.64  E(vib)   ...       0.00 
freq.    1428.61  E(vib)   ...       0.00 
freq.    1431.78  E(vib)   ...       0.00 
freq.    1435.22  E(vib)   ...       0.00 
freq.    1436.41  E(vib)   ...       0.00 
freq.    1436.52  E(vib)   ...       0.00 
freq.    1439.52  E(vib)   ...       0.00 
freq.    1440.61  E(vib)   ...       0.00 
freq.    1441.97  E(vib)   ...       0.00 
freq.    1443.24  E(vib)   ...       0.00 
freq.    1445.23  E(vib)   ...       0.00 
freq.    1446.23  E(vib)   ...       0.00 
freq.    1447.45  E(vib)   ...       0.00 
freq.    1448.65  E(vib)   ...       0.00 
freq.    1449.30  E(vib)   ...       0.00 
freq.    1450.79  E(vib)   ...       0.00 
freq.    1451.20  E(vib)   ...       0.00 
freq.    1453.33  E(vib)   ...       0.00 
freq.    1454.97  E(vib)   ...       0.00 
freq.    1458.51  E(vib)   ...       0.00 
freq.    1458.87  E(vib)   ...       0.00 
freq.    1460.46  E(vib)   ...       0.00 
freq.    1462.80  E(vib)   ...       0.00 
freq.    1464.65  E(vib)   ...       0.00 
freq.    1465.47  E(vib)   ...       0.00 
freq.    1466.89  E(vib)   ...       0.00 
freq.    1467.84  E(vib)   ...       0.00 
freq.    1468.17  E(vib)   ...       0.00 
freq.    1485.06  E(vib)   ...       0.00 
freq.    1497.49  E(vib)   ...       0.00 
freq.    1509.72  E(vib)   ...       0.00 
freq.    1608.01  E(vib)   ...       0.00 
freq.    1642.09  E(vib)   ...       0.00 
freq.    1647.89  E(vib)   ...       0.00 
freq.    1665.70  E(vib)   ...       0.00 
freq.    1676.12  E(vib)   ...       0.00 
freq.    1677.55  E(vib)   ...       0.00 
freq.    1698.83  E(vib)   ...       0.00 
freq.    2924.60  E(vib)   ...       0.00 
freq.    2924.68  E(vib)   ...       0.00 
freq.    2927.02  E(vib)   ...       0.00 
freq.    2929.65  E(vib)   ...       0.00 
freq.    2930.60  E(vib)   ...       0.00 
freq.    2933.43  E(vib)   ...       0.00 
freq.    2940.02  E(vib)   ...       0.00 
freq.    2943.01  E(vib)   ...       0.00 
freq.    2943.19  E(vib)   ...       0.00 
freq.    2945.62  E(vib)   ...       0.00 
freq.    2947.85  E(vib)   ...       0.00 
freq.    2953.68  E(vib)   ...       0.00 
freq.    2954.09  E(vib)   ...       0.00 
freq.    2954.47  E(vib)   ...       0.00 
freq.    2954.69  E(vib)   ...       0.00 
freq.    2956.80  E(vib)   ...       0.00 
freq.    2960.66  E(vib)   ...       0.00 
freq.    2961.12  E(vib)   ...       0.00 
freq.    2961.52  E(vib)   ...       0.00 
freq.    2967.26  E(vib)   ...       0.00 
freq.    2967.36  E(vib)   ...       0.00 
freq.    2968.69  E(vib)   ...       0.00 
freq.    2969.62  E(vib)   ...       0.00 
freq.    2971.00  E(vib)   ...       0.00 
freq.    2972.22  E(vib)   ...       0.00 
freq.    2972.97  E(vib)   ...       0.00 
freq.    2974.14  E(vib)   ...       0.00 
freq.    2979.91  E(vib)   ...       0.00 
freq.    2981.17  E(vib)   ...       0.00 
freq.    2981.99  E(vib)   ...       0.00 
freq.    2983.00  E(vib)   ...       0.00 
freq.    2983.22  E(vib)   ...       0.00 
freq.    2986.73  E(vib)   ...       0.00 
freq.    2997.61  E(vib)   ...       0.00 
freq.    3004.33  E(vib)   ...       0.00 
freq.    3009.14  E(vib)   ...       0.00 
freq.    3010.38  E(vib)   ...       0.00 
freq.    3014.79  E(vib)   ...       0.00 
freq.    3018.04  E(vib)   ...       0.00 
freq.    3019.44  E(vib)   ...       0.00 
freq.    3022.20  E(vib)   ...       0.00 
freq.    3024.37  E(vib)   ...       0.00 
freq.    3025.22  E(vib)   ...       0.00 
freq.    3025.43  E(vib)   ...       0.00 
freq.    3026.41  E(vib)   ...       0.00 
freq.    3026.70  E(vib)   ...       0.00 
freq.    3030.48  E(vib)   ...       0.00 
freq.    3030.84  E(vib)   ...       0.00 
freq.    3033.36  E(vib)   ...       0.00 
freq.    3034.71  E(vib)   ...       0.00 
freq.    3045.08  E(vib)   ...       0.00 
freq.    3045.57  E(vib)   ...       0.00 
freq.    3053.19  E(vib)   ...       0.00 
freq.    3057.31  E(vib)   ...       0.00 
freq.    3058.61  E(vib)   ...       0.00 
freq.    3066.36  E(vib)   ...       0.00 
freq.    3068.67  E(vib)   ...       0.00 
freq.    3071.77  E(vib)   ...       0.00 
freq.    3308.95  E(vib)   ...       0.00 
freq.    3387.60  E(vib)   ...       0.00 
freq.    3465.37  E(vib)   ...       0.00 
freq.    3488.57  E(vib)   ...       0.00 
freq.    3504.39  E(vib)   ...       0.00 
freq.    3508.25  E(vib)   ...       0.00 

------------
INNER ENERGY
------------

The inner energy is: U= E(el) + E(ZPE) + E(vib) + E(rot) + E(trans)
    E(el)   - is the total energy from the electronic structure calculation
              = E(kin-el) + E(nuc-el) + E(el-el) + E(nuc-nuc)
    E(ZPE)  - the the zero temperature vibrational energy from the frequency calculation
    E(vib)  - the the finite temperature correction to E(ZPE) due to population
              of excited vibrational states
    E(rot)  - is the rotational thermal energy
    E(trans)- is the translational thermal energy

Summary of contributions to the inner energy U:
Electronic energy                ...  -2380.08393203 Eh
Zero point energy                ...      0.97797845 Eh     613.69 kcal/mol
Thermal vibrational correction   ...      0.05524940 Eh      34.67 kcal/mol
Thermal rotational correction    ...      0.00141627 Eh       0.89 kcal/mol
Thermal translational correction ...      0.00141627 Eh       0.89 kcal/mol
-----------------------------------------------------------------------
Total thermal energy                  -2379.04787164 Eh


Summary of corrections to the electronic energy:
(perhaps to be used in another calculation)
Total thermal correction                  0.05808194 Eh      36.45 kcal/mol
Non-thermal (ZPE) correction              0.97797845 Eh     613.69 kcal/mol
-----------------------------------------------------------------------
Total correction                          1.03606039 Eh     650.14 kcal/mol


--------
ENTHALPY
--------

The enthalpy is H = U + kB*T
                kB is Boltzmann's constant
Total free energy                 ...  -2379.04787164 Eh 
Thermal Enthalpy correction       ...      0.00094421 Eh       0.59 kcal/mol
-----------------------------------------------------------------------
Total Enthalpy                    ...  -2379.04692743 Eh


Note: Only C1 symmetry has been detected, increase convergence thresholds 
      if your molecule has a higher symmetry. Symmetry factor of 1.0 is   
      used for the rotational entropy correction. 
 

Note: Rotational entropy computed according to Herzberg 
Infrared and Raman Spectra, Chapter V,1, Van Nostrand Reinhold, 1945 
Point Group:  C1, Symmetry Number:   1  
Rotational constants in cm-1:     0.002145     0.001568     0.001272 

Vibrational entropy computed according to the QRRHO of S. Grimme
Chem.Eur.J. 2012 18 9955


-------
ENTROPY
-------

The entropy contributions are T*S = T*(S(el)+S(vib)+S(rot)+S(trans))
     S(el)   - electronic entropy
     S(vib)  - vibrational entropy
     S(rot)  - rotational entropy
     S(trans)- translational entropy
The entropies will be listed as mutliplied by the temperature to get
units of energy

Electronic entropy                ...      0.00000000 Eh      0.00 kcal/mol
Vibrational entropy               ...      0.10071939 Eh     63.20 kcal/mol
Rotational entropy                ...      0.01860790 Eh     11.68 kcal/mol
Translational entropy             ...      0.02166895 Eh     13.60 kcal/mol
-----------------------------------------------------------------------
Final entropy term                ...      0.14099623 Eh     88.48 kcal/mol

In case the symmetry of your molecule has not been determined correctly
or in case you have a reason to use a different symmetry number we print 
out the resulting rotational entropy values for sn=1,12 :
 --------------------------------------------------------
|  sn= 1 | S(rot)=       0.01860790 Eh     11.68 kcal/mol|
|  sn= 2 | S(rot)=       0.01795344 Eh     11.27 kcal/mol|
|  sn= 3 | S(rot)=       0.01757061 Eh     11.03 kcal/mol|
|  sn= 4 | S(rot)=       0.01729898 Eh     10.86 kcal/mol|
|  sn= 5 | S(rot)=       0.01708829 Eh     10.72 kcal/mol|
|  sn= 6 | S(rot)=       0.01691615 Eh     10.62 kcal/mol|
|  sn= 7 | S(rot)=       0.01677060 Eh     10.52 kcal/mol|
|  sn= 8 | S(rot)=       0.01664453 Eh     10.44 kcal/mol|
|  sn= 9 | S(rot)=       0.01653332 Eh     10.37 kcal/mol|
|  sn=10 | S(rot)=       0.01643384 Eh     10.31 kcal/mol|
|  sn=11 | S(rot)=       0.01634385 Eh     10.26 kcal/mol|
|  sn=12 | S(rot)=       0.01626169 Eh     10.20 kcal/mol|
 --------------------------------------------------------


-------------------
GIBBS FREE ENERGY
-------------------

The Gibbs free energy is G = H - T*S

Total enthalpy                    ...  -2379.04692743 Eh 
Total entropy correction          ...     -0.14099623 Eh    -88.48 kcal/mol
-----------------------------------------------------------------------
Final Gibbs free energy         ...  -2379.18792366 Eh

For completeness - the Gibbs free energy minus the electronic energy
G-E(el)                           ...      0.89600837 Eh    562.25 kcal/mol

--------------------------------------------------------------------------
WARNING: No preset parameters were found for the device that Open MPI
detected:

  Local host:            eu-g1-011-4
  Device name:           mlx5_0
  Device vendor ID:      0x02c9
  Device vendor part ID: 4123

Default device parameters will be used, which may result in lower
performance.  You can edit any of the files specified by the
btl_openib_device_param_files MCA parameter to set values for your
device.

NOTE: You can turn off this warning by setting the MCA parameter
      btl_openib_warn_no_device_params_found to 0.
--------------------------------------------------------------------------
--------------------------------------------------------------------------
WARNING: There was an error initializing an OpenFabrics device.

  Local host:   eu-g1-011-4
  Local device: mlx5_0
--------------------------------------------------------------------------

Timings for individual modules:

Sum of individual times         ...    39748.738 sec (= 662.479 min)
GTO integral calculation        ...       74.283 sec (=   1.238 min)   0.2 %
SCF iterations                  ...     2137.183 sec (=  35.620 min)   5.4 %
SCF Gradient evaluation         ...      871.858 sec (=  14.531 min)   2.2 %
Geometry relaxation             ...       31.937 sec (=   0.532 min)   0.1 %
Analytical frequency calculation...    36633.477 sec (= 610.558 min)  92.2 %
                             ****ORCA TERMINATED NORMALLY****
TOTAL RUN TIME: 0 days 11 hours 3 minutes 5 seconds 277 msec
