
                                 *****************
                                 * O   R   C   A *
                                 *****************

           --- An Ab Initio, DFT and Semiempirical electronic structure package ---

                  #######################################################
                  #                        -***-                        #
                  #          Department of theory and spectroscopy      #
                  #               Directorship: Frank Neese             #
                  #        Max Planck Institute fuer Kohlenforschung    #
                  #                Kaiser Wilhelm Platz 1               #
                  #                 D-45470 Muelheim/Ruhr               #
                  #                      Germany                        #
                  #                                                     #
                  #                  All rights reserved                #
                  #                        -***-                        #
                  #######################################################


                         Program Version 4.2.0 -  RELEASE  -


 With contributions from (in alphabetic order):
   Daniel Aravena         : Magnetic Suceptibility
   Michael Atanasov       : Ab Initio Ligand Field Theory (pilot matlab implementation)
   Alexander A. Auer      : GIAO ZORA, VPT2
   Ute Becker             : Parallelization
   Giovanni Bistoni       : ED, misc. LED, open-shell LED, HFLED
   Martin Brehm           : Molecular dynamics
   Dmytro Bykov           : SCF Hessian
   Vijay G. Chilkuri      : MRCI spin determinant printing, contributions to CSF-ICE
   Dipayan Datta          : RHF DLPNO-CCSD density
   Achintya Kumar Dutta   : EOM-CC, STEOM-CC
   Dmitry Ganyushin       : Spin-Orbit,Spin-Spin,Magnetic field MRCI
   Miquel Garcia          : C-PCM Hessian, Gaussian charge scheme
   Yang Guo               : DLPNO-NEVPT2, CIM, IAO-localization
   Andreas Hansen         : Spin unrestricted coupled pair/coupled cluster methods
   Benjamin Helmich-Paris : CASSCF linear response (MC-RPA)
   Lee Huntington         : MR-EOM, pCC
   Robert Izsak           : Overlap fitted RIJCOSX, COSX-SCS-MP3, EOM
   Christian Kollmar      : KDIIS, OOCD, Brueckner-CCSD(T), CCSD density
   Simone Kossmann        : Meta GGA functionals, TD-DFT gradient, OOMP2, MP2 Hessian
   Martin Krupicka        : AUTO-CI
   Lucas Lang             : DCDCAS
   Dagmar Lenk            : GEPOL surface, SMD
   Dimitrios Liakos       : Extrapolation schemes; Compound Job, initial MDCI parallelization
   Dimitrios Manganas     : Further ROCIS development; embedding schemes
   Dimitrios Pantazis     : SARC Basis sets
   Taras Petrenko         : DFT Hessian,TD-DFT gradient, ASA, ECA, R-Raman, ABS, FL, XAS/XES, NRVS
   Peter Pinski           : DLPNO-MP2, DLPNO-MP2 Gradient
   Christoph Reimann      : Effective Core Potentials
   Marius Retegan         : Local ZFS, SOC
   Christoph Riplinger    : Optimizer, TS searches, QM/MM, DLPNO-CCSD(T), (RO)-DLPNO pert. Triples
   Tobias Risthaus        : Range-separated hybrids, TD-DFT gradient, RPA, STAB
   Michael Roemelt        : Original ROCIS implementation
   Masaaki Saitow         : Open-shell DLPNO-CCSD energy and density
   Barbara Sandhoefer     : DKH picture change effects
   Avijit Sen             : IP-ROCIS
   Kantharuban Sivalingam : CASSCF convergence, NEVPT2, FIC-MRCI
   Bernardo de Souza      : ESD, SOC TD-DFT
   Georgi Stoychev        : AutoAux, RI-MP2 NMR
   Willem Van den Heuvel  : Paramagnetic NMR
   Boris Wezisla          : Elementary symmetry handling
   Frank Wennmohs         : Technical directorship


 We gratefully acknowledge several colleagues who have allowed us to
 interface, adapt or use parts of their codes:
   Stefan Grimme, W. Hujo, H. Kruse,             : VdW corrections, initial TS optimization,
                  C. Bannwarth                     DFT functionals, gCP, sTDA/sTD-DF
   Ed Valeev, F. Pavosevic, A. Kumar             : LibInt (2-el integral package), F12 methods
   Garnet Chan, S. Sharma, J. Yang, R. Olivares  : DMRG
   Ulf Ekstrom                                   : XCFun DFT Library
   Mihaly Kallay                                 : mrcc  (arbitrary order and MRCC methods)
   Andreas Klamt, Michael Diedenhofen            : otool_cosmo (COSMO solvation model)
   Jiri Pittner, Ondrej Demel                    : Mk-CCSD
   Frank Weinhold                                : gennbo (NPA and NBO analysis)
   Christopher J. Cramer and Donald G. Truhlar   : smd solvation model
   Lars Goerigk                                  : TD-DFT with DH, B97 family of functionals
   V. Asgeirsson, H. Jonsson                     : NEB implementation
   FAccTs GmbH                                   : IRC, NEB, NEB-TS, Multilevel, MM, QM/MM, CI optimization
   S Lehtola, MJT Oliveira, MAL Marques          : LibXC Library


 Your calculation uses the libint2 library for the computation of 2-el integrals
 For citations please refer to: http://libint.valeyev.net

 Your ORCA version has been built with support for libXC version: 4.2.3
 For citations please refer to: https://tddft.org/programs/libxc/

 This ORCA versions uses:
   CBLAS   interface :  Fast vector & matrix operations
   LAPACKE interface :  Fast linear algebra routines
   SCALAPACK package :  Parallel linear algebra routines




***************************************
The coordinates will be read from file: 59.xyz
***************************************


Your calculation utilizes the atom-pairwise dispersion correction
with the Becke-Johnson damping scheme (D3BJ)
Cite in your paper:
S.Grimme, S.Ehrlich, L.Goerigk, J Comput Chem, (2011), 32, 1456–1465 
S.Grimme, J.Antony, S.Ehrlich and H.Krieg, J.Chem.Phys., 132, (2010), 154104 
   

----- Orbital basis set information -----
Your calculation utilizes the basis: def2-TZVP
   F. Weigend and R. Ahlrichs, Phys. Chem. Chem. Phys. 7, 3297 (2005).

----- AuxJ basis set information -----
Your calculation utilizes the auxiliary basis: def2/J
   F. Weigend, Phys. Chem. Chem. Phys. 8, 1057 (2006).

================================================================================
                                        WARNINGS
                       Please study these warnings very carefully!
================================================================================


WARNING: Geometry Optimization
  ===> : Switching off AutoStart
         For restart on a previous wavefunction, please use MOREAD

INFO   : the flag for use of LIBINT has been found!

================================================================================
                                       INPUT FILE
================================================================================
NAME = 59.inp
|  1> !RI BP86 def2-tzvp def2/J D3BJ TIGHTSCF TightOpt Grid5 FinalGrid6 freq
|  2> %maxcore 4000
|  3> %pal nprocs 24
|  4> end
|  5> * xyzfile 0 1 59.xyz 
|  6> 
|  7>                          ****END OF INPUT****
================================================================================

                       *****************************
                       * Geometry Optimization Run *
                       *****************************

Geometry optimization settings:
Update method            Update   .... BFGS
Choice of coordinates    CoordSys .... Z-matrix Internals
Initial Hessian          InHess   .... Almoef's Model

Convergence Tolerances:
Energy Change            TolE     ....  1.0000e-06 Eh
Max. Gradient            TolMAXG  ....  1.0000e-04 Eh/bohr
RMS Gradient             TolRMSG  ....  3.0000e-05 Eh/bohr
Max. Displacement        TolMAXD  ....  1.0000e-03 bohr
RMS Displacement         TolRMSD  ....  6.0000e-04 bohr
Strict Convergence                ....  False
------------------------------------------------------------------------------
                        ORCA OPTIMIZATION COORDINATE SETUP
------------------------------------------------------------------------------

The optimization will be done in new redundant internal coordinates
Making redundant internal coordinates   ...  (new redundants) done
Evaluating the initial hessian          ...  (Almloef) done
Evaluating the coordinates              ...  done
Calculating the B-matrix                .... done
Calculating the G-matrix                .... done
Diagonalizing the G-matrix              .... done
Small eigenvalue found = 1.246e-03
Small eigenvalue found = 2.438e-03
Small eigenvalue found = 4.130e-03
Small eigenvalue found = 4.928e-03
Small eigenvalue found = 6.225e-03
Small eigenvalue found = 6.766e-03
Small eigenvalue found = 8.172e-03
Small eigenvalue found = 8.944e-03
Small eigenvalue found = 1.048e-02
Small eigenvalue found = 1.217e-02
Small eigenvalue found = 1.464e-02
Small eigenvalue found = 1.706e-02
Small eigenvalue found = 1.837e-02
Small eigenvalue found = 2.117e-02
Small eigenvalue found = 2.216e-02
Small eigenvalue found = 2.596e-02
Small eigenvalue found = 2.704e-02
Small eigenvalue found = 2.900e-02
The first mode is                       ....  329
The number of degrees of freedom        ....  339

    -----------------------------------------------------------------
                    Redundant Internal Coordinates


    -----------------------------------------------------------------
         Definition                    Initial Value    Approx d2E/dq
    -----------------------------------------------------------------
      1. B(C   1,O   0)                  1.2313         1.002427   
      2. B(C   2,C   1)                  1.5375         0.363485   
      3. B(C   3,C   2)                  1.5398         0.360336   
      4. B(C   4,C   3)                  1.5358         0.365637   
      5. B(C   5,C   4)                  1.5335         0.368833   
      6. B(N   6,C   5)                  1.4821         0.398931   
      7. B(N   6,C   2)                  1.4665         0.422538   
      8. B(C   7,N   6)                  1.3642         0.615291   
      9. B(O   8,C   7)                  1.2347         0.990111   
     10. B(N   9,C   1)                  1.3595         0.625842   
     11. B(C  10,N   9)                  1.4441         0.458757   
     12. B(C  11,C  10)                  1.5269         0.377901   
     13. B(N  12,C  11)                  1.3535         0.639995   
     14. B(C  13,N  12)                  1.4718         0.414282   
     15. B(C  14,C  13)                  1.5399         0.360268   
     16. B(N  15,C  14)                  1.3603         0.624189   
     17. B(C  16,N  15)                  1.4480         0.452224   
     18. B(C  17,C  16)                  1.5349         0.366860   
     19. B(C  18,C  17)                  1.5787         0.312359   
     20. B(C  19,C  18)                  1.5435         0.355481   
     21. B(N  20,C  19)                  1.3581         0.629091   
     22. B(C  21,N  20)                  1.4559         0.439264   
     23. B(C  22,C  21)                  1.5472         0.350699   
     24. B(N  23,C  22)                  1.3610         0.622498   
     25. B(C  24,C   7)                  1.5385         0.362053   
     26. B(C  24,N  23)                  1.4591         0.434201   
     27. B(C  25,C  24)                  1.5261         0.378929   
     28. B(O  26,C  22)                  1.2332         0.995378   
     29. B(C  27,C  21)                  1.5334         0.368968   
     30. B(C  28,C  27)                  1.5412         0.358528   
     31. B(C  29,C  28)                  1.5338         0.368463   
     32. B(C  30,C  28)                  1.5349         0.366876   
     33. B(O  31,C  19)                  1.2330         0.996403   
     34. B(C  32,C  18)                  1.5223         0.384360   
     35. B(C  33,C  32)                  1.5074         0.405946   
     36. B(C  34,C  33)                  1.5315         0.371559   
     37. B(C  35,C  34)                  1.5363         0.365014   
     38. B(C  36,C  35)                  1.5330         0.369546   
     39. B(C  37,C  36)                  1.5299         0.373699   
     40. B(C  38,C  37)                  1.5299         0.373700   
     41. B(C  39,C  38)                  1.5289         0.375056   
     42. B(C  40,C  39)                  1.5302         0.373316   
     43. B(C  41,C  40)                  1.5306         0.372748   
     44. B(O  42,C  32)                  1.2301         1.006847   
     45. B(O  43,C  17)                  1.4301         0.482962   
     46. B(O  44,C  14)                  1.2319         1.000095   
     47. B(C  45,C  13)                  1.5446         0.354029   
     48. B(C  46,C  45)                  1.5270         0.377725   
     49. B(O  47,C  11)                  1.2408         0.968132   
     50. B(C  48,C  10)                  1.5633         0.330521   
     51. B(C  49,C  48)                  1.5312         0.371875   
     52. B(C  50,C  48)                  1.5299         0.373736   
     53. B(H  51,C   2)                  1.0974         0.350499   
     54. B(H  52,C   3)                  1.1000         0.347155   
     55. B(H  53,C   3)                  1.0959         0.352352   
     56. B(H  54,C   4)                  1.1001         0.346993   
     57. B(H  55,C   4)                  1.0970         0.350980   
     58. B(H  56,C   5)                  1.0981         0.349527   
     59. B(H  57,C   5)                  1.1026         0.343781   
     60. B(H  58,N   9)                  1.0193         0.418215   
     61. B(H  59,C  10)                  1.1012         0.345566   
     62. B(H  60,N  12)                  1.0154         0.424160   
     63. B(H  61,C  13)                  1.0985         0.349073   
     64. B(H  62,O   8)                  4.9989         0.000000   
     65. B(H  62,N  15)                  1.0209         0.415692   
     66. B(H  63,C  16)                  1.0967         0.351300   
     67. B(H  64,C  16)                  1.0996         0.347668   
     68. B(H  65,C  17)                  1.1045         0.341448   
     69. B(H  66,C  18)                  1.0966         0.351530   
     70. B(H  67,O  47)                  2.0434         0.009717   
     71. B(H  67,N  20)                  1.0213         0.415066   
     72. B(H  68,C  21)                  1.1017         0.344904   
     73. B(H  69,N  23)                  1.0188         0.418877   
     74. B(H  70,C  24)                  1.0971         0.350790   
     75. B(H  71,C  25)                  1.0976         0.350187   
     76. B(H  72,C  25)                  1.0989         0.348553   
     77. B(H  73,C  25)                  1.0973         0.350557   
     78. B(H  74,C  27)                  1.0995         0.347710   
     79. B(H  75,C  27)                  1.1001         0.346967   
     80. B(H  76,C  28)                  1.1049         0.340974   
     81. B(H  77,C  29)                  1.0995         0.347760   
     82. B(H  78,C  29)                  1.1009         0.345996   
     83. B(H  79,C  29)                  1.0997         0.347435   
     84. B(H  80,C  30)                  1.0989         0.348493   
     85. B(H  81,C  30)                  1.0998         0.347321   
     86. B(H  82,C  30)                  1.0999         0.347248   
     87. B(H  83,C  33)                  1.1068         0.338522   
     88. B(H  84,C  33)                  1.1068         0.338607   
     89. B(H  85,H  73)                  2.3596         0.000650   
     90. B(H  85,C  34)                  1.1010         0.345780   
     91. B(H  86,C  34)                  1.1005         0.346435   
     92. B(H  87,C  35)                  1.1027         0.343682   
     93. B(H  88,C  35)                  1.1040         0.342083   
     94. B(H  89,C  36)                  1.1031         0.343143   
     95. B(H  90,C  36)                  1.1034         0.342799   
     96. B(H  91,C  37)                  1.1002         0.346837   
     97. B(H  92,C  37)                  1.1045         0.341365   
     98. B(H  93,C  38)                  1.1051         0.340627   
     99. B(H  94,H  64)                  2.9455         0.000076   
    100. B(H  94,C  38)                  1.1049         0.340869   
    101. B(H  95,H  51)                  3.7984         0.000003   
    102. B(H  95,C  39)                  1.1024         0.344029   
    103. B(H  96,C  39)                  1.1040         0.342010   
    104. B(H  97,C  40)                  1.1033         0.342881   
    105. B(H  98,H  60)                  2.1699         0.001305   
    106. B(H  98,C  40)                  1.1051         0.340730   
    107. B(H  99,C  41)                  1.1002         0.346915   
    108. B(H 100,C  41)                  1.1002         0.346835   
    109. B(H 101,C  41)                  1.1006         0.346379   
    110. B(H 102,O  43)                  0.9729         0.495916   
    111. B(H 103,H  80)                  2.2438         0.000995   
    112. B(H 103,C  45)                  1.0979         0.349858   
    113. B(H 104,C  45)                  1.1017         0.344940   
    114. B(H 105,C  46)                  1.0986         0.348889   
    115. B(H 106,C  46)                  1.0970         0.350947   
    116. B(H 107,C  46)                  1.0996         0.347672   
    117. B(H 108,C  48)                  1.1040         0.342018   
    118. B(H 109,H  76)                  3.9842         0.000002   
    119. B(H 109,C  49)                  1.0985         0.349027   
    120. B(H 110,C  49)                  1.0986         0.348887   
    121. B(H 111,C  49)                  1.1000         0.347099   
    122. B(H 112,C  50)                  1.0974         0.350456   
    123. B(H 113,C  50)                  1.0989         0.348498   
    124. B(H 114,C  50)                  1.0994         0.347816   
    125. A(O   0,C   1,N   9)          123.9394         0.468206   
    126. A(C   2,C   1,N   9)          115.7733         0.392911   
    127. A(O   0,C   1,C   2)          120.1732         0.427106   
    128. A(C   1,C   2,H  51)          106.5463         0.321439   
    129. A(N   6,C   2,H  51)          110.0974         0.327516   
    130. A(C   1,C   2,N   6)          114.1584         0.367057   
    131. A(C   1,C   2,C   3)          109.7743         0.359439   
    132. A(C   3,C   2,H  51)          113.4807         0.320982   
    133. A(C   3,C   2,N   6)          102.9607         0.366510   
    134. A(C   4,C   3,H  53)          114.2194         0.322028   
    135. A(C   4,C   3,H  52)          110.5578         0.321245   
    136. A(C   2,C   3,C   4)          102.7322         0.359801   
    137. A(C   2,C   3,H  53)          111.5132         0.321259   
    138. A(C   2,C   3,H  52)          109.3484         0.320479   
    139. A(H  52,C   3,H  53)          108.3407         0.288191   
    140. A(H  54,C   4,H  55)          107.7740         0.287994   
    141. A(C   3,C   4,H  55)          113.3746         0.321822   
    142. A(C   3,C   4,C   5)          103.5249         0.361233   
    143. A(C   3,C   4,H  54)          110.1037         0.321221   
    144. A(C   5,C   4,H  55)          111.9862         0.322281   
    145. A(C   5,C   4,H  54)          110.0509         0.321679   
    146. A(H  56,C   5,H  57)          107.9540         0.287389   
    147. A(C   4,C   5,N   6)          103.1874         0.364371   
    148. A(C   4,C   5,H  56)          113.7043         0.322062   
    149. A(N   6,C   5,H  57)          109.8388         0.323404   
    150. A(N   6,C   5,H  56)          111.4025         0.324285   
    151. A(C   4,C   5,H  57)          110.7038         0.321189   
    152. A(C   5,N   6,C   7)          126.7437         0.395643   
    153. A(C   2,N   6,C   7)          120.1872         0.399660   
    154. A(C   2,N   6,C   5)          112.3353         0.370639   
    155. A(O   8,C   7,C  24)          121.2825         0.425860   
    156. A(N   6,C   7,O   8)          122.1802         0.465694   
    157. A(N   6,C   7,C  24)          116.3880         0.391474   
    158. A(C   1,N   9,C  10)          122.5743         0.406717   
    159. A(C  10,N   9,H  58)          116.6953         0.338962   
    160. A(C   1,N   9,H  58)          119.6516         0.357166   
    161. A(C  48,C  10,H  59)          108.2448         0.315762   
    162. A(C  11,C  10,H  59)          110.5384         0.322743   
    163. A(N   9,C  10,C  11)          108.5488         0.374786   
    164. A(N   9,C  10,C  48)          112.4627         0.366251   
    165. A(N   9,C  10,H  59)          107.8222         0.331220   
    166. A(C  11,C  10,C  48)          109.2223         0.356549   
    167. A(N  12,C  11,O  47)          123.7365         0.467139   
    168. A(C  10,C  11,O  47)          121.1947         0.427419   
    169. A(C  10,C  11,N  12)          114.9620         0.397154   
    170. A(C  13,N  12,H  60)          115.8500         0.334041   
    171. A(C  11,N  12,C  13)          127.1302         0.401043   
    172. A(C  11,N  12,H  60)          116.0038         0.359389   
    173. A(C  14,C  13,C  45)          110.9449         0.357819   
    174. A(N  12,C  13,H  61)          105.3102         0.326234   
    175. A(C  14,C  13,H  61)          103.6126         0.320758   
    176. A(N  12,C  13,C  14)          116.6206         0.365261   
    177. A(C  45,C  13,H  61)          108.2718         0.319843   
    178. A(N  12,C  13,C  45)          111.3189         0.364171   
    179. A(C  13,C  14,N  15)          117.5801         0.392119   
    180. A(N  15,C  14,O  44)          123.8721         0.467779   
    181. A(C  13,C  14,O  44)          118.4842         0.426249   
    182. A(C  14,N  15,H  62)          120.2460         0.356639   
    183. A(C  16,N  15,H  62)          119.1939         0.337811   
    184. A(C  14,N  15,C  16)          120.5600         0.405498   
    185. A(H  63,C  16,H  64)          108.2393         0.288122   
    186. A(C  17,C  16,H  64)          110.4632         0.321498   
    187. A(N  15,C  16,H  63)          106.8234         0.331335   
    188. A(C  17,C  16,H  63)          106.8113         0.322046   
    189. A(N  15,C  16,C  17)          114.0136         0.371955   
    190. A(N  15,C  16,H  64)          110.2165         0.330766   
    191. A(O  43,C  17,H  65)          110.5390         0.333391   
    192. A(C  18,C  17,H  65)          108.0382         0.312273   
    193. A(C  16,C  17,H  65)          107.9942         0.320550   
    194. A(C  16,C  17,C  18)          116.6788         0.351381   
    195. A(C  18,C  17,O  43)          109.0440         0.365931   
    196. A(C  16,C  17,O  43)          104.4781         0.376198   
    197. A(C  19,C  18,H  66)          103.2324         0.320424   
    198. A(C  17,C  18,H  66)          105.4164         0.313749   
    199. A(C  17,C  18,C  32)          114.6565         0.354163   
    200. A(C  17,C  18,C  19)          114.2524         0.349517   
    201. A(C  19,C  18,C  32)          109.9326         0.362039   
    202. A(C  32,C  18,H  66)          108.4454         0.324552   
    203. A(C  18,C  19,N  20)          116.7582         0.391738   
    204. A(N  20,C  19,O  31)          123.7449         0.468133   
    205. A(C  18,C  19,O  31)          119.4864         0.424948   
    206. A(C  19,N  20,H  67)          119.8554         0.357021   
    207. A(C  19,N  20,C  21)          121.7933         0.403979   
    208. A(C  21,N  20,H  67)          116.6271         0.336095   
    209. A(C  27,C  21,H  68)          109.9771         0.321380   
    210. A(C  22,C  21,H  68)          104.1264         0.318725   
    211. A(N  20,C  21,H  68)          105.7943         0.328747   
    212. A(N  20,C  21,C  22)          112.0250         0.367247   
    213. A(C  22,C  21,C  27)          111.5339         0.358697   
    214. A(N  20,C  21,C  27)          112.8439         0.370463   
    215. A(C  21,C  22,N  23)          115.5832         0.390093   
    216. A(C  21,C  22,O  26)          120.6892         0.423842   
    217. A(N  23,C  22,O  26)          123.6426         0.467142   
    218. A(C  22,N  23,C  24)          123.6453         0.402405   
    219. A(C  24,N  23,H  69)          117.0424         0.335958   
    220. A(C  22,N  23,H  69)          119.2572         0.356937   
    221. A(C  25,C  24,H  70)          110.5701         0.323683   
    222. A(N  23,C  24,H  70)          105.6208         0.329036   
    223. A(C   7,C  24,H  70)          111.4043         0.321275   
    224. A(N  23,C  24,C  25)          111.0695         0.371423   
    225. A(C   7,C  24,N  23)          106.9364         0.368526   
    226. A(C   7,C  24,C  25)          111.0565         0.362292   
    227. A(H  71,C  25,H  73)          109.5767         0.288353   
    228. A(C  24,C  25,H  73)          110.3010         0.323647   
    229. A(H  71,C  25,H  72)          108.8747         0.288094   
    230. A(C  24,C  25,H  72)          110.5384         0.323343   
    231. A(C  24,C  25,H  71)          109.8064         0.323591   
    232. A(H  72,C  25,H  73)          107.7019         0.288142   
    233. A(C  28,C  27,H  75)          110.5861         0.320187   
    234. A(C  21,C  27,C  28)          115.1948         0.360048   
    235. A(H  74,C  27,H  75)          106.8738         0.287569   
    236. A(C  21,C  27,H  75)          107.7834         0.321694   
    237. A(C  28,C  27,H  74)          108.9004         0.320299   
    238. A(C  21,C  27,H  74)          107.1393         0.321807   
    239. A(C  29,C  28,C  30)          110.3936         0.361380   
    240. A(C  27,C  28,C  30)          113.8820         0.359700   
    241. A(C  27,C  28,C  29)          111.2887         0.359964   
    242. A(C  30,C  28,H  76)          107.7059         0.320480   
    243. A(C  29,C  28,H  76)          107.5478         0.320706   
    244. A(C  27,C  28,H  76)          105.6556         0.319277   
    245. A(C  28,C  29,H  79)          110.8930         0.321693   
    246. A(H  78,C  29,H  79)          107.1493         0.287408   
    247. A(H  77,C  29,H  79)          108.2082         0.287637   
    248. A(H  77,C  29,H  78)          107.7807         0.287450   
    249. A(C  28,C  29,H  78)          111.2135         0.321474   
    250. A(C  28,C  29,H  77)          111.4207         0.321742   
    251. A(H  81,C  30,H  82)          107.4570         0.287555   
    252. A(H  80,C  30,H  82)          107.8898         0.287707   
    253. A(C  28,C  30,H  82)          111.0630         0.321437   
    254. A(H  80,C  30,H  81)          107.8286         0.287716   
    255. A(C  28,C  30,H  81)          110.3527         0.321448   
    256. A(C  28,C  30,H  80)          112.0704         0.321626   
    257. A(C  33,C  32,O  42)          122.6752         0.436013   
    258. A(C  18,C  32,O  42)          120.7511         0.431748   
    259. A(C  18,C  32,C  33)          116.4522         0.370367   
    260. A(C  32,C  33,C  34)          116.3568         0.368219   
    261. A(C  34,C  33,H  84)          112.2422         0.320780   
    262. A(H  83,C  33,H  84)          103.7522         0.285283   
    263. A(C  32,C  33,H  84)          107.2734         0.325470   
    264. A(C  34,C  33,H  83)          111.3909         0.320767   
    265. A(C  32,C  33,H  83)          104.8244         0.325457   
    266. A(C  33,C  34,C  35)          113.9451         0.361582   
    267. A(H  85,C  34,H  86)          106.6057         0.287250   
    268. A(C  35,C  34,H  86)          108.2916         0.321046   
    269. A(C  33,C  34,H  86)          108.1979         0.321982   
    270. A(C  35,C  34,H  85)          110.2968         0.320947   
    271. A(C  33,C  34,H  85)          109.2204         0.321882   
    272. A(C  34,C  35,C  36)          115.3055         0.361247   
    273. A(H  87,C  35,H  88)          106.1143         0.286412   
    274. A(C  36,C  35,H  88)          109.3039         0.321031   
    275. A(C  34,C  35,H  88)          108.6044         0.320384   
    276. A(C  36,C  35,H  87)          108.7047         0.321276   
    277. A(C  34,C  35,H  87)          108.4161         0.320628   
    278. A(C  35,C  36,C  37)          114.0394         0.362700   
    279. A(H  89,C  36,H  90)          105.3578         0.286435   
    280. A(C  37,C  36,H  90)          109.4415         0.321728   
    281. A(C  35,C  36,H  90)          109.7085         0.321141   
    282. A(C  37,C  36,H  89)          109.0735         0.321781   
    283. A(C  35,C  36,H  89)          108.8547         0.321193   
    284. A(C  36,C  37,C  38)          113.0630         0.363393   
    285. A(H  91,C  37,H  92)          106.3085         0.286727   
    286. A(C  38,C  37,H  92)          109.2092         0.321508   
    287. A(C  36,C  37,H  92)          108.6380         0.321508   
    288. A(C  38,C  37,H  91)          109.1698         0.322346   
    289. A(C  36,C  37,H  91)          110.2234         0.322346   
    290. A(C  37,C  38,C  39)          112.9413         0.363618   
    291. A(H  93,C  38,H  94)          105.8568         0.285855   
    292. A(C  39,C  38,H  94)          109.6585         0.321622   
    293. A(C  37,C  38,H  94)          109.2229         0.321431   
    294. A(C  39,C  38,H  93)          109.1973         0.321585   
    295. A(C  37,C  38,H  93)          109.7191         0.321394   
    296. A(C  38,C  39,C  40)          113.9036         0.363554   
    297. A(H  95,C  39,H  96)          105.1730         0.286448   
    298. A(C  40,C  39,H  96)          108.8413         0.321553   
    299. A(C  38,C  39,H  96)          109.1711         0.321798   
    300. A(C  40,C  39,H  95)          109.6409         0.321863   
    301. A(C  38,C  39,H  95)          109.7394         0.322108   
    302. A(C  39,C  40,C  41)          113.1640         0.363171   
    303. A(H  97,C  40,H  98)          105.0553         0.286131   
    304. A(C  41,C  40,H  98)          110.2504         0.321276   
    305. A(C  39,C  40,H  98)          108.8052         0.321356   
    306. A(C  41,C  40,H  97)          109.8514         0.321607   
    307. A(C  39,C  40,H  97)          109.3915         0.321687   
    308. A(H 100,C  41,H 101)          106.6036         0.287380   
    309. A(H  99,C  41,H 101)          108.7000         0.287390   
    310. A(C  40,C  41,H 101)          111.3156         0.322142   
    311. A(H  99,C  41,H 100)          107.5869         0.287449   
    312. A(C  40,C  41,H 100)          110.6079         0.322211   
    313. A(C  40,C  41,H  99)          111.8149         0.322223   
    314. A(C  17,O  43,H 102)          107.9959         0.351833   
    315. A(C  13,C  45,C  46)          113.9784         0.360713   
    316. A(C  46,C  45,H 104)          109.9668         0.322623   
    317. A(C  13,C  45,H 104)          106.9414         0.319222   
    318. A(C  46,C  45,H 103)          110.3123         0.323372   
    319. A(C  13,C  45,H 103)          108.6395         0.319961   
    320. A(H 103,C  45,H 104)          106.6987         0.287583   
    321. A(H 106,C  46,H 107)          107.2438         0.288078   
    322. A(H 105,C  46,H 107)          108.1762         0.287813   
    323. A(C  45,C  46,H 107)          111.3573         0.323040   
    324. A(H 105,C  46,H 106)          108.2666         0.288235   
    325. A(C  45,C  46,H 106)          111.7524         0.323537   
    326. A(C  45,C  46,H 105)          109.9083         0.323225   
    327. A(C  50,C  48,H 108)          108.1373         0.321614   
    328. A(C  49,C  48,H 108)          108.4656         0.321351   
    329. A(C  10,C  48,H 108)          105.9468         0.315233   
    330. A(C  49,C  48,C  50)          111.3219         0.363095   
    331. A(C  10,C  48,C  50)          110.9702         0.355878   
    332. A(C  10,C  48,C  49)          111.7561         0.355577   
    333. A(H 110,C  49,H 111)          107.6470         0.287738   
    334. A(H 109,C  49,H 111)          107.5332         0.287757   
    335. A(C  48,C  49,H 111)          110.6987         0.322128   
    336. A(H 109,C  49,H 110)          107.9938         0.287988   
    337. A(C  48,C  49,H 110)          110.3204         0.322399   
    338. A(C  48,C  49,H 109)          112.4686         0.322420   
    339. A(H 113,C  50,H 114)          107.7669         0.287781   
    340. A(H 112,C  50,H 114)          108.8487         0.288033   
    341. A(C  48,C  50,H 114)          109.9944         0.322500   
    342. A(H 112,C  50,H 113)          107.3742         0.288122   
    343. A(C  48,C  50,H 113)          110.8390         0.322604   
    344. A(C  48,C  50,H 112)          111.8856         0.322900   
    345. D(H  51,C   2,C   1,N   9)   -129.0930         0.009920   
    346. D(C   3,C   2,C   1,N   9)    107.6423         0.009920   
    347. D(N   6,C   2,C   1,N   9)     -7.3487         0.009920   
    348. D(N   6,C   2,C   1,O   0)    176.3836         0.009920   
    349. D(C   3,C   2,C   1,O   0)    -68.6254         0.009920   
    350. D(H  51,C   2,C   1,O   0)     54.6393         0.009920   
    351. D(C   4,C   3,C   2,N   6)     33.4374         0.010416   
    352. D(H  53,C   3,C   2,H  51)    -84.8279         0.010416   
    353. D(H  53,C   3,C   2,C   1)     34.2590         0.010416   
    354. D(C   4,C   3,C   2,H  51)    152.4113         0.010416   
    355. D(H  53,C   3,C   2,N   6)    156.1981         0.010416   
    356. D(H  52,C   3,C   2,H  51)     34.9665         0.010416   
    357. D(C   4,C   3,C   2,C   1)    -88.5017         0.010416   
    358. D(H  52,C   3,C   2,C   1)    154.0534         0.010416   
    359. D(H  52,C   3,C   2,N   6)    -84.0075         0.010416   
    360. D(H  55,C   4,C   3,H  53)     78.2915         0.010703   
    361. D(H  55,C   4,C   3,H  52)    -44.2020         0.010703   
    362. D(H  54,C   4,C   3,H  52)   -165.0211         0.010703   
    363. D(H  55,C   4,C   3,C   2)   -160.7856         0.010703   
    364. D(H  54,C   4,C   3,H  53)    -42.5277         0.010703   
    365. D(C   5,C   4,C   3,C   2)    -39.2215         0.010703   
    366. D(H  54,C   4,C   3,C   2)     78.3952         0.010703   
    367. D(C   5,C   4,C   3,H  53)   -160.1444         0.010703   
    368. D(C   5,C   4,C   3,H  52)     77.3621         0.010703   
    369. D(N   6,C   5,C   4,C   3)     29.4145         0.010879   
    370. D(H  57,C   5,C   4,C   3)    -88.0495         0.010879   
    371. D(H  56,C   5,C   4,H  55)    -87.2824         0.010879   
    372. D(H  56,C   5,C   4,C   3)    150.2260         0.010879   
    373. D(H  57,C   5,C   4,H  54)    154.2970         0.010879   
    374. D(H  56,C   5,C   4,H  54)     32.5724         0.010879   
    375. D(H  57,C   5,C   4,H  55)     34.4422         0.010879   
    376. D(N   6,C   5,C   4,H  54)    -88.2391         0.010879   
    377. D(N   6,C   5,C   4,H  55)    151.9061         0.010879   
    378. D(C   5,N   6,C   2,C   3)    -15.7353         0.015223   
    379. D(C   7,N   6,C   5,H  57)    -60.5871         0.013589   
    380. D(C   7,N   6,C   5,H  56)     58.9762         0.013589   
    381. D(C   7,N   6,C   5,C   4)   -178.6577         0.013589   
    382. D(C   2,N   6,C   5,H  57)    109.5159         0.013589   
    383. D(C   2,N   6,C   5,H  56)   -130.9209         0.013589   
    384. D(C   7,N   6,C   2,H  51)     33.7925         0.015223   
    385. D(C   2,N   6,C   5,C   4)     -8.5548         0.013589   
    386. D(C   7,N   6,C   2,C   3)    155.0962         0.015223   
    387. D(C   5,N   6,C   2,C   1)    103.1931         0.015223   
    388. D(C   7,N   6,C   2,C   1)    -85.9754         0.015223   
    389. D(C   5,N   6,C   2,H  51)   -137.0391         0.015223   
    390. D(C  24,C   7,N   6,C   5)    -12.3107         0.030620   
    391. D(C  24,C   7,N   6,C   2)    178.2878         0.030620   
    392. D(O   8,C   7,N   6,C   5)    172.0793         0.030620   
    393. D(O   8,C   7,N   6,C   2)      2.6778         0.030620   
    394. D(H  58,N   9,C   1,O   0)   -169.0932         0.031763   
    395. D(C  10,N   9,C   1,C   2)   -177.4780         0.031763   
    396. D(H  58,N   9,C   1,C   2)     14.7963         0.031763   
    397. D(C  10,N   9,C   1,O   0)     -1.3675         0.031763   
    398. D(H  59,C  10,N   9,C   1)    -24.0935         0.017964   
    399. D(C  48,C  10,N   9,H  58)    -96.7677         0.017964   
    400. D(C  48,C  10,N   9,C   1)     95.1669         0.017964   
    401. D(C  11,C  10,N   9,C   1)   -143.8680         0.017964   
    402. D(H  59,C  10,N   9,H  58)    143.9718         0.017964   
    403. D(C  11,C  10,N   9,H  58)     24.1974         0.017964   
    404. D(O  47,C  11,C  10,N   9)    -19.8542         0.010664   
    405. D(N  12,C  11,C  10,H  59)     45.7043         0.010664   
    406. D(N  12,C  11,C  10,C  48)    -73.2884         0.010664   
    407. D(N  12,C  11,C  10,N   9)    163.7683         0.010664   
    408. D(O  47,C  11,C  10,H  59)   -137.9182         0.010664   
    409. D(O  47,C  11,C  10,C  48)    103.0891         0.010664   
    410. D(H  60,N  12,C  11,O  47)    174.3786         0.033338   
    411. D(H  60,N  12,C  11,C  10)     -9.3478         0.033338   
    412. D(C  13,N  12,C  11,O  47)    -17.7098         0.033338   
    413. D(C  13,N  12,C  11,C  10)    158.5639         0.033338   
    414. D(H  61,C  13,N  12,C  11)   -166.9936         0.014638   
    415. D(H  61,C  13,N  12,H  60)      0.9340         0.014638   
    416. D(C  45,C  13,N  12,H  60)    118.0490         0.014638   
    417. D(C  45,C  13,N  12,C  11)    -49.8787         0.014638   
    418. D(C  14,C  13,N  12,C  11)     78.7914         0.014638   
    419. D(C  14,C  13,N  12,H  60)   -113.2810         0.014638   
    420. D(O  44,C  14,C  13,C  45)    -84.4861         0.009759   
    421. D(O  44,C  14,C  13,N  12)    146.6639         0.009759   
    422. D(N  15,C  14,C  13,H  61)   -151.2887         0.009759   
    423. D(N  15,C  14,C  13,C  45)     92.7287         0.009759   
    424. D(O  44,C  14,C  13,H  61)     31.4966         0.009759   
    425. D(N  15,C  14,C  13,N  12)    -36.1214         0.009759   
    426. D(H  62,N  15,C  14,O  44)    179.6471         0.031582   
    427. D(H  62,N  15,C  14,C  13)      2.5957         0.031582   
    428. D(C  16,N  15,C  14,O  44)     -0.2718         0.031582   
    429. D(C  16,N  15,C  14,C  13)   -177.3232         0.031582   
    430. D(H  64,C  16,N  15,H  62)     52.5502         0.017448   
    431. D(H  64,C  16,N  15,C  14)   -127.5300         0.017448   
    432. D(H  63,C  16,N  15,H  62)    169.9240         0.017448   
    433. D(H  63,C  16,N  15,C  14)    -10.1561         0.017448   
    434. D(C  17,C  16,N  15,C  14)    107.5858         0.017448   
    435. D(C  17,C  16,N  15,H  62)    -72.3340         0.017448   
    436. D(H  65,C  17,C  16,H  64)   -171.7111         0.010770   
    437. D(H  65,C  17,C  16,H  63)     70.7905         0.010770   
    438. D(H  65,C  17,C  16,N  15)    -46.9584         0.010770   
    439. D(O  43,C  17,C  16,H  64)     70.5880         0.010770   
    440. D(O  43,C  17,C  16,H  63)    -46.9104         0.010770   
    441. D(O  43,C  17,C  16,N  15)   -164.6592         0.010770   
    442. D(C  18,C  17,C  16,H  64)    -49.8691         0.010770   
    443. D(C  18,C  17,C  16,H  63)   -167.3676         0.010770   
    444. D(C  18,C  17,C  16,N  15)     74.8836         0.010770   
    445. D(H  66,C  18,C  17,H  65)   -104.5213         0.008044   
    446. D(H  66,C  18,C  17,O  43)     15.6613         0.008044   
    447. D(H  66,C  18,C  17,C  16)    133.6598         0.008044   
    448. D(C  32,C  18,C  17,O  43)   -103.5292         0.008044   
    449. D(C  32,C  18,C  17,C  16)     14.4693         0.008044   
    450. D(C  32,C  18,C  17,H  65)    136.2882         0.008044   
    451. D(C  19,C  18,C  17,H  65)      8.1014         0.008044   
    452. D(C  19,C  18,C  17,O  43)    128.2840         0.008044   
    453. D(C  19,C  18,C  17,C  16)   -113.7175         0.008044   
    454. D(O  31,C  19,C  18,H  66)      6.5215         0.009522   
    455. D(O  31,C  19,C  18,C  32)    122.0534         0.009522   
    456. D(O  31,C  19,C  18,C  17)   -107.3980         0.009522   
    457. D(N  20,C  19,C  18,H  66)   -172.3410         0.009522   
    458. D(N  20,C  19,C  18,C  17)     73.7395         0.009522   
    459. D(N  20,C  19,C  18,C  32)    -56.8090         0.009522   
    460. D(H  67,N  20,C  19,O  31)   -178.9125         0.032121   
    461. D(H  67,N  20,C  19,C  18)     -0.1034         0.032121   
    462. D(C  21,N  20,C  19,O  31)    -14.3790         0.032121   
    463. D(C  21,N  20,C  19,C  18)    164.4302         0.032121   
    464. D(H  68,C  21,N  20,H  67)    179.5963         0.016453   
    465. D(H  68,C  21,N  20,C  19)     14.5905         0.016453   
    466. D(C  27,C  21,N  20,H  67)    -60.1104         0.016453   
    467. D(C  27,C  21,N  20,C  19)    134.8839         0.016453   
    468. D(C  22,C  21,N  20,H  67)     66.7641         0.016453   
    469. D(C  22,C  21,N  20,C  19)    -98.2417         0.016453   
    470. D(N  23,C  22,C  21,C  27)    134.6311         0.009290   
    471. D(N  23,C  22,C  21,N  20)      7.0534         0.009290   
    472. D(O  26,C  22,C  21,H  68)     69.9574         0.009290   
    473. D(O  26,C  22,C  21,C  27)    -48.6002         0.009290   
    474. D(O  26,C  22,C  21,N  20)   -176.1779         0.009290   
    475. D(N  23,C  22,C  21,H  68)   -106.8113         0.009290   
    476. D(H  69,N  23,C  22,O  26)    171.2621         0.031398   
    477. D(H  69,N  23,C  22,C  21)    -12.0758         0.031398   
    478. D(C  24,N  23,C  22,O  26)     -5.9536         0.031398   
    479. D(C  24,N  23,C  22,C  21)    170.7084         0.031398   
    480. D(H  70,C  24,N  23,H  69)   -178.1102         0.016074   
    481. D(H  70,C  24,N  23,C  22)     -0.8374         0.016074   
    482. D(C  25,C  24,N  23,H  69)     61.9770         0.016074   
    483. D(C  25,C  24,N  23,C  22)   -120.7502         0.016074   
    484. D(C   7,C  24,N  23,H  69)    -59.3421         0.016074   
    485. D(C   7,C  24,N  23,C  22)    117.9307         0.016074   
    486. D(H  70,C  24,C   7,O   8)   -162.2118         0.009848   
    487. D(H  70,C  24,C   7,N   6)     22.1359         0.009848   
    488. D(C  25,C  24,C   7,O   8)    -38.4807         0.009848   
    489. D(C  25,C  24,C   7,N   6)    145.8670         0.009848   
    490. D(N  23,C  24,C   7,O   8)     82.8466         0.009848   
    491. D(N  23,C  24,C   7,N   6)    -92.8057         0.009848   
    492. D(H  73,C  25,C  24,H  70)    179.5224         0.011447   
    493. D(H  73,C  25,C  24,N  23)    -63.5548         0.011447   
    494. D(H  73,C  25,C  24,C   7)     55.3163         0.011447   
    495. D(H  72,C  25,C  24,H  70)     60.5227         0.011447   
    496. D(H  72,C  25,C  24,N  23)    177.4456         0.011447   
    497. D(H  72,C  25,C  24,C   7)    -63.6833         0.011447   
    498. D(H  71,C  25,C  24,H  70)    -59.6168         0.011447   
    499. D(H  71,C  25,C  24,N  23)     57.3060         0.011447   
    500. D(H  71,C  25,C  24,C   7)    176.1771         0.011447   
    501. D(H  75,C  27,C  21,H  68)    160.4239         0.010887   
    502. D(H  75,C  27,C  21,C  22)    -84.5763         0.010887   
    503. D(H  75,C  27,C  21,N  20)     42.5585         0.010887   
    504. D(H  74,C  27,C  21,H  68)    -84.8733         0.010887   
    505. D(H  74,C  27,C  21,C  22)     30.1265         0.010887   
    506. D(H  74,C  27,C  21,N  20)    157.2613         0.010887   
    507. D(C  28,C  27,C  21,H  68)     36.4388         0.010887   
    508. D(C  28,C  27,C  21,C  22)    151.4386         0.010887   
    509. D(C  28,C  27,C  21,N  20)    -81.4266         0.010887   
    510. D(H  76,C  28,C  27,H  75)     49.5604         0.010319   
    511. D(H  76,C  28,C  27,H  74)    -67.5903         0.010319   
    512. D(H  76,C  28,C  27,C  21)    172.0574         0.010319   
    513. D(C  30,C  28,C  27,H  75)    -68.4419         0.010319   
    514. D(C  30,C  28,C  27,H  74)    174.4074         0.010319   
    515. D(C  30,C  28,C  27,C  21)     54.0551         0.010319   
    516. D(C  29,C  28,C  27,H  75)    165.9997         0.010319   
    517. D(C  29,C  28,C  27,H  74)     48.8490         0.010319   
    518. D(C  29,C  28,C  27,C  21)    -71.5032         0.010319   
    519. D(H  79,C  29,C  28,C  30)     56.8441         0.010859   
    520. D(H  79,C  29,C  28,C  27)   -175.6804         0.010859   
    521. D(H  78,C  29,C  28,H  76)   -179.5304         0.010859   
    522. D(H  78,C  29,C  28,C  30)    -62.2811         0.010859   
    523. D(H  78,C  29,C  28,C  27)     65.1943         0.010859   
    524. D(H  77,C  29,C  28,H  76)     60.1944         0.010859   
    525. D(H  77,C  29,C  28,C  30)    177.4437         0.010859   
    526. D(H  79,C  29,C  28,H  76)    -60.4052         0.010859   
    527. D(H  77,C  29,C  28,C  27)    -55.0808         0.010859   
    528. D(H  82,C  30,C  28,H  76)    173.5982         0.010771   
    529. D(H  82,C  30,C  28,C  29)     56.4466         0.010771   
    530. D(H  82,C  30,C  28,C  27)    -69.5842         0.010771   
    531. D(H  81,C  30,C  28,H  76)     54.5372         0.010771   
    532. D(H  81,C  30,C  28,C  29)    -62.6144         0.010771   
    533. D(H  81,C  30,C  28,C  27)    171.3548         0.010771   
    534. D(H  80,C  30,C  28,H  76)    -65.6472         0.010771   
    535. D(H  80,C  30,C  28,C  29)    177.2012         0.010771   
    536. D(H  80,C  30,C  28,C  27)     51.1703         0.010771   
    537. D(O  42,C  32,C  18,H  66)    172.5659         0.011009   
    538. D(O  42,C  32,C  18,C  19)     60.3791         0.011009   
    539. D(O  42,C  32,C  18,C  17)    -69.9538         0.011009   
    540. D(C  33,C  32,C  18,H  66)     -3.5315         0.011009   
    541. D(C  33,C  32,C  18,C  19)   -115.7183         0.011009   
    542. D(C  33,C  32,C  18,C  17)    113.9488         0.011009   
    543. D(H  84,C  33,C  32,O  42)    129.6923         0.012214   
    544. D(H  84,C  33,C  32,C  18)    -54.2923         0.012214   
    545. D(H  83,C  33,C  32,O  42)   -120.4417         0.012214   
    546. D(H  83,C  33,C  32,C  18)     55.5738         0.012214   
    547. D(C  34,C  33,C  32,O  42)      3.0757         0.012214   
    548. D(C  34,C  33,C  32,C  18)    179.0912         0.012214   
    549. D(H  86,C  34,C  33,H  84)     88.1710         0.011031   
    550. D(H  86,C  34,C  33,H  83)    -27.6796         0.011031   
    551. D(H  86,C  34,C  33,C  32)   -147.7289         0.011031   
    552. D(H  85,C  34,C  33,H  84)   -156.1582         0.011031   
    553. D(H  85,C  34,C  33,H  83)     87.9912         0.011031   
    554. D(H  85,C  34,C  33,C  32)    -32.0581         0.011031   
    555. D(C  35,C  34,C  33,H  84)    -32.3250         0.011031   
    556. D(C  35,C  34,C  33,H  83)   -148.1756         0.011031   
    557. D(C  35,C  34,C  33,C  32)     91.7751         0.011031   
    558. D(H  88,C  35,C  34,H  86)    -64.1049         0.010669   
    559. D(H  88,C  35,C  34,H  85)    179.5885         0.010669   
    560. D(H  88,C  35,C  34,C  33)     56.3385         0.010669   
    561. D(H  87,C  35,C  34,H  86)     50.7770         0.010669   
    562. D(H  87,C  35,C  34,H  85)    -65.5296         0.010669   
    563. D(H  87,C  35,C  34,C  33)    171.2205         0.010669   
    564. D(C  36,C  35,C  34,H  86)    172.8710         0.010669   
    565. D(C  36,C  35,C  34,H  85)     56.5644         0.010669   
    566. D(C  36,C  35,C  34,C  33)    -66.6856         0.010669   
    567. D(H  90,C  36,C  35,H  87)    176.0661         0.010919   
    568. D(H  90,C  36,C  35,C  34)     54.1270         0.010919   
    569. D(H  89,C  36,C  35,H  88)     46.2850         0.010919   
    570. D(H  89,C  36,C  35,H  87)    -69.1242         0.010919   
    571. D(H  89,C  36,C  35,C  34)    168.9368         0.010919   
    572. D(C  37,C  36,C  35,H  88)    168.3194         0.010919   
    573. D(C  37,C  36,C  35,H  87)     52.9103         0.010919   
    574. D(H  90,C  36,C  35,H  88)    -68.5248         0.010919   
    575. D(C  37,C  36,C  35,C  34)    -69.0287         0.010919   
    576. D(H  92,C  37,C  36,H  90)    173.8431         0.011151   
    577. D(H  92,C  37,C  36,H  89)     59.0578         0.011151   
    578. D(H  92,C  37,C  36,C  35)    -62.8562         0.011151   
    579. D(H  91,C  37,C  36,H  90)    -70.0486         0.011151   
    580. D(H  91,C  37,C  36,H  89)    175.1661         0.011151   
    581. D(H  91,C  37,C  36,C  35)     53.2521         0.011151   
    582. D(C  38,C  37,C  36,H  90)     52.4441         0.011151   
    583. D(C  38,C  37,C  36,H  89)    -62.3412         0.011151   
    584. D(C  38,C  37,C  36,C  35)    175.7448         0.011151   
    585. D(H  94,C  38,C  37,H  92)    172.8119         0.011151   
    586. D(H  94,C  38,C  37,H  91)     56.9663         0.011151   
    587. D(H  94,C  38,C  37,C  36)    -66.1120         0.011151   
    588. D(H  93,C  38,C  37,H  92)    -71.5700         0.011151   
    589. D(H  93,C  38,C  37,H  91)    172.5845         0.011151   
    590. D(H  93,C  38,C  37,C  36)     49.5061         0.011151   
    591. D(C  39,C  38,C  37,H  92)     50.5043         0.011151   
    592. D(C  39,C  38,C  37,H  91)    -65.3413         0.011151   
    593. D(C  39,C  38,C  37,C  36)    171.5804         0.011151   
    594. D(H  95,C  39,C  38,H  94)    -66.0794         0.011227   
    595. D(H  95,C  39,C  38,H  93)    178.3506         0.011227   
    596. D(H  95,C  39,C  38,C  37)     55.9839         0.011227   
    597. D(C  40,C  39,C  38,H  94)     57.2636         0.011227   
    598. D(C  40,C  39,C  38,H  93)    -58.3064         0.011227   
    599. D(C  40,C  39,C  38,C  37)    179.3269         0.011227   
    600. D(H  96,C  39,C  38,H  94)    179.1393         0.011227   
    601. D(H  96,C  39,C  38,H  93)     63.5693         0.011227   
    602. D(H  96,C  39,C  38,C  37)    -58.7974         0.011227   
    603. D(H  98,C  40,C  39,H  95)     63.8276         0.011129   
    604. D(H  98,C  40,C  39,C  38)    -59.5689         0.011129   
    605. D(H  97,C  40,C  39,H  96)    -67.3738         0.011129   
    606. D(H  97,C  40,C  39,H  95)    178.0804         0.011129   
    607. D(H  97,C  40,C  39,C  38)     54.6839         0.011129   
    608. D(C  41,C  40,C  39,H  96)     55.4578         0.011129   
    609. D(C  41,C  40,C  39,H  95)    -59.0879         0.011129   
    610. D(H  98,C  40,C  39,H  96)    178.3733         0.011129   
    611. D(C  41,C  40,C  39,C  38)    177.5156         0.011129   
    612. D(H 101,C  41,C  40,H  98)    -68.0761         0.011097   
    613. D(H 101,C  41,C  40,H  97)    176.6115         0.011097   
    614. D(H 101,C  41,C  40,C  39)     54.0352         0.011097   
    615. D(H 100,C  41,C  40,H  98)    173.6019         0.011097   
    616. D(H 100,C  41,C  40,H  97)     58.2895         0.011097   
    617. D(H 100,C  41,C  40,C  39)    -64.2868         0.011097   
    618. D(H  99,C  41,C  40,H  98)     53.7193         0.011097   
    619. D(H  99,C  41,C  40,H  97)    -61.5931         0.011097   
    620. D(H  99,C  41,C  40,C  39)    175.8306         0.011097   
    621. D(H 102,O  43,C  17,H  65)     52.0532         0.018406   
    622. D(H 102,O  43,C  17,C  18)    -66.5764         0.018406   
    623. D(H 102,O  43,C  17,C  16)    167.9945         0.018406   
    624. D(H 104,C  45,C  13,H  61)     68.9767         0.010080   
    625. D(H 104,C  45,C  13,C  14)   -177.9588         0.010080   
    626. D(H 104,C  45,C  13,N  12)    -46.3224         0.010080   
    627. D(H 103,C  45,C  13,H  61)   -176.2046         0.010080   
    628. D(H 103,C  45,C  13,C  14)    -63.1401         0.010080   
    629. D(H 103,C  45,C  13,N  12)     68.4963         0.010080   
    630. D(C  46,C  45,C  13,H  61)    -52.7702         0.010080   
    631. D(C  46,C  45,C  13,C  14)     60.2942         0.010080   
    632. D(C  46,C  45,C  13,N  12)   -168.0693         0.010080   
    633. D(H 107,C  46,C  45,H 104)    -60.6501         0.011379   
    634. D(H 107,C  46,C  45,H 103)   -178.0676         0.011379   
    635. D(H 107,C  46,C  45,C  13)     59.4098         0.011379   
    636. D(H 106,C  46,C  45,H 104)    179.4342         0.011379   
    637. D(H 106,C  46,C  45,H 103)     62.0168         0.011379   
    638. D(H 106,C  46,C  45,C  13)    -60.5058         0.011379   
    639. D(H 105,C  46,C  45,H 104)     59.2076         0.011379   
    640. D(H 105,C  46,C  45,H 103)    -58.2099         0.011379   
    641. D(H 105,C  46,C  45,C  13)    179.2675         0.011379   
    642. D(H 108,C  48,C  10,H  59)    -61.3465         0.008893   
    643. D(H 108,C  48,C  10,C  11)     59.0617         0.008893   
    644. D(H 108,C  48,C  10,N   9)    179.6399         0.008893   
    645. D(C  50,C  48,C  10,H  59)     55.7979         0.008893   
    646. D(C  50,C  48,C  10,C  11)    176.2061         0.008893   
    647. D(C  50,C  48,C  10,N   9)    -63.2157         0.008893   
    648. D(C  49,C  48,C  10,H  59)   -179.2971         0.008893   
    649. D(C  49,C  48,C  10,C  11)    -58.8889         0.008893   
    650. D(C  49,C  48,C  10,N   9)     61.6893         0.008893   
    651. D(H 111,C  49,C  48,C  50)     63.5015         0.011048   
    652. D(H 111,C  49,C  48,C  10)    -61.2079         0.011048   
    653. D(H 110,C  49,C  48,H 108)     63.3147         0.011048   
    654. D(H 110,C  49,C  48,C  50)    -55.5437         0.011048   
    655. D(H 110,C  49,C  48,C  10)    179.7470         0.011048   
    656. D(H 109,C  49,C  48,H 108)    -57.3243         0.011048   
    657. D(H 109,C  49,C  48,C  50)   -176.1828         0.011048   
    658. D(H 111,C  49,C  48,H 108)   -177.6401         0.011048   
    659. D(H 109,C  49,C  48,C  10)     59.1079         0.011048   
    660. D(H 114,C  50,C  48,H 108)    -59.3954         0.011153   
    661. D(H 114,C  50,C  48,C  49)     59.6593         0.011153   
    662. D(H 114,C  50,C  48,C  10)   -175.1912         0.011153   
    663. D(H 113,C  50,C  48,H 108)   -178.4699         0.011153   
    664. D(H 113,C  50,C  48,C  49)    -59.4152         0.011153   
    665. D(H 113,C  50,C  48,C  10)     65.7344         0.011153   
    666. D(H 112,C  50,C  48,H 108)     61.7129         0.011153   
    667. D(H 112,C  50,C  48,C  49)   -179.2324         0.011153   
    668. D(H 112,C  50,C  48,C  10)    -54.0828         0.011153   
    -----------------------------------------------------------------

Number of atoms                         .... 115
Number of degrees of freedom            .... 668

         *************************************************************
         *                GEOMETRY OPTIMIZATION CYCLE   1            *
         *************************************************************
---------------------------------
CARTESIAN COORDINATES (ANGSTROEM)
---------------------------------
  O      2.238140   -3.408584   -2.760007
  C      2.573548   -2.324245   -2.282684
  C      3.488472   -1.379318   -3.078793
  C      4.898414   -1.988626   -3.187689
  C      5.591725   -1.466153   -1.920738
  C      5.079386   -0.025883   -1.799571
  N      3.736606   -0.091036   -2.423580
  C      2.864529    0.944144   -2.593441
  O      1.826314    0.828080   -3.251519
  N      2.248029   -1.913886   -1.028091
  C      1.442044   -2.711422   -0.133825
  C      0.550137   -1.776897    0.680106
  N     -0.489795   -2.378784    1.303100
  C     -1.240143   -1.876909    2.465610
  C     -2.298056   -0.792861    2.188361
  N     -2.019838    0.127053    1.225722
  C     -2.942969    1.208553    0.952103
  C     -2.459049    2.581248    1.439503
  C     -1.321630    3.273916    0.591661
  C      0.023383    3.419804    1.334690
  N      0.755699    2.288243    1.501462
  C      2.162037    2.332869    1.875476
  C      3.093568    2.178447    0.649819
  N      2.474915    2.179895   -0.562450
  C      3.187996    2.242399   -1.833855
  C      2.766980    3.468370   -2.639337
  O      4.317295    2.123190    0.792303
  C      2.516029    1.331218    2.981203
  C      2.185618    1.792069    4.414281
  C      3.137543    2.902720    4.875456
  C      0.725608    2.224862    4.606784
  O      0.385551    4.533190    1.721184
  C     -1.091483    2.661160   -0.782681
  C     -1.424665    3.529131   -1.969191
  C     -1.172010    2.918388   -3.350699
  C     -2.388622    2.190594   -3.942665
  C     -2.818306    0.920831   -3.199016
  C     -1.828989   -0.239468   -3.323845
  C     -2.227363   -1.459043   -2.490444
  C     -1.356367   -2.683637   -2.772115
  C     -1.725569   -3.912210   -1.937984
  C     -0.883452   -5.144777   -2.276160
  O     -0.589425    1.544018   -0.897185
  O     -3.628748    3.403531    1.410970
  O     -3.317042   -0.775678    2.880504
  C     -0.289331   -1.442520    3.602773
  C     -0.991256   -1.184901    4.934178
  O      0.822820   -0.572569    0.801729
  C      2.307422   -3.575038    0.840492
  C      3.180452   -2.703836    1.747975
  C      3.149531   -4.592872    0.068866
  H      3.004331   -1.220958   -4.050761
  H      5.395204   -1.599043   -4.088439
  H      4.859437   -3.081416   -3.260709
  H      5.274845   -2.054000   -1.046537
  H      6.686539   -1.509456   -1.974406
  H      5.023164    0.337084   -0.764707
  H      5.722968    0.665912   -2.367905
  H      2.412496   -0.945550   -0.755703
  H      0.830832   -3.391771   -0.747191
  H     -0.658545   -3.348127    1.052104
  H     -1.832430   -2.731637    2.819538
  H     -1.154609    0.062731    0.687652
  H     -3.865918    0.984498    1.500549
  H     -3.180146    1.243347   -0.121013
  H     -2.091750    2.465723    2.474692
  H     -1.648627    4.312055    0.458334
  H      0.405500    1.398476    1.142585
  H      2.346708    3.360995    2.225728
  H      1.460700    2.092246   -0.604005
  H      4.252200    2.299248   -1.573217
  H      2.943826    4.378274   -2.051524
  H      3.341581    3.531604   -3.573871
  H      1.704287    3.402913   -2.904838
  H      3.595998    1.137617    2.909426
  H      2.005868    0.383819    2.752248
  H      2.363078    0.912359    5.058738
  H      4.188779    2.592905    4.787146
  H      3.004651    3.815950    4.275224
  H      2.945918    3.173146    5.924070
  H      0.018697    1.468129    4.239015
  H      0.513994    2.393459    5.672821
  H      0.519129    3.166110    4.076517
  H     -0.831116    4.451497   -1.820895
  H     -2.471293    3.867056   -1.845587
  H     -0.309617    2.236273   -3.293244
  H     -0.886481    3.729171   -4.037920
  H     -2.162050    1.927838   -4.989363
  H     -3.236941    2.896052   -3.980581
  H     -3.801549    0.598975   -3.581819
  H     -2.981210    1.151429   -2.132346
  H     -0.820847    0.086781   -3.027729
  H     -1.760560   -0.532225   -4.386684
  H     -3.285318   -1.713346   -2.683783
  H     -2.170086   -1.200979   -1.417590
  H     -0.295493   -2.431145   -2.610430
  H     -1.431640   -2.943637   -3.842450
  H     -2.796161   -4.140504   -2.076074
  H     -1.621647   -3.660050   -0.867118
  H     -1.115867   -5.992698   -1.614833
  H     -1.069997   -5.469247   -3.310760
  H      0.192764   -4.925973   -2.204396
  H     -3.428594    4.227546    1.887883
  H      0.256983   -0.546499    3.280327
  H      0.457770   -2.243652    3.720191
  H     -0.254449   -0.894035    5.695397
  H     -1.736099   -0.383650    4.852725
  H     -1.516226   -2.082962    5.290446
  H      1.591266   -4.129550    1.471764
  H      2.588139   -2.011064    2.361112
  H      3.774234   -3.333329    2.424813
  H      3.881683   -2.101799    1.151446
  H      2.534319   -5.213496   -0.594915
  H      3.898681   -4.086958   -0.555984
  H      3.685281   -5.247258    0.771388

----------------------------
CARTESIAN COORDINATES (A.U.)
----------------------------
  NO LB      ZA    FRAG     MASS         X           Y           Z
   0 O     8.0000    0    15.999    4.229471   -6.441291   -5.215657
   1 C     6.0000    0    12.011    4.863302   -4.392187   -4.313648
   2 C     6.0000    0    12.011    6.592256   -2.606534   -5.818076
   3 C     6.0000    0    12.011    9.256660   -3.757959   -6.023860
   4 C     6.0000    0    12.011   10.566830   -2.770628   -3.629669
   5 C     6.0000    0    12.011    9.598649   -0.048911   -3.400697
   6 N     7.0000    0    14.007    7.061161   -0.172033   -4.579902
   7 C     6.0000    0    12.011    5.413175    1.784173   -4.900893
   8 O     8.0000    0    15.999    3.451234    1.564845   -6.144481
   9 N     7.0000    0    14.007    4.248159   -3.616720   -1.942810
  10 C     6.0000    0    12.011    2.725069   -5.123846   -0.252892
  11 C     6.0000    0    12.011    1.039608   -3.357849    1.285214
  12 N     7.0000    0    14.007   -0.925578   -4.495250    2.462502
  13 C     6.0000    0    12.011   -2.343530   -3.546844    4.659328
  14 C     6.0000    0    12.011   -4.342696   -1.498289    4.135402
  15 N     7.0000    0    14.007   -3.816941    0.240096    2.316279
  16 C     6.0000    0    12.011   -5.561406    2.283834    1.799213
  17 C     6.0000    0    12.011   -4.646928    4.877853    2.720267
  18 C     6.0000    0    12.011   -2.497520    6.186804    1.118077
  19 C     6.0000    0    12.011    0.044187    6.462493    2.522199
  20 N     7.0000    0    14.007    1.428064    4.324152    2.837352
  21 C     6.0000    0    12.011    4.085658    4.408484    3.544135
  22 C     6.0000    0    12.011    5.845997    4.116668    1.227981
  23 N     7.0000    0    14.007    4.676911    4.119404   -1.062876
  24 C     6.0000    0    12.011    6.024440    4.237520   -3.465484
  25 C     6.0000    0    12.011    5.228834    6.554270   -4.987624
  26 O     8.0000    0    15.999    8.158505    4.012247    1.497235
  27 C     6.0000    0    12.011    4.754605    2.515638    5.633657
  28 C     6.0000    0    12.011    4.130219    3.386520    8.341783
  29 C     6.0000    0    12.011    5.929097    5.485346    9.213277
  30 C     6.0000    0    12.011    1.371200    4.204380    8.705560
  31 O     8.0000    0    15.999    0.728586    8.566487    3.252567
  32 C     6.0000    0    12.011   -2.062604    5.028864   -1.479052
  33 C     6.0000    0    12.011   -2.692227    6.669092   -3.721232
  34 C     6.0000    0    12.011   -2.214778    5.514953   -6.331904
  35 C     6.0000    0    12.011   -4.513841    4.139623   -7.450556
  36 C     6.0000    0    12.011   -5.325826    1.740119   -6.045265
  37 C     6.0000    0    12.011   -3.456289   -0.452528   -6.281156
  38 C     6.0000    0    12.011   -4.209106   -2.757191   -4.706257
  39 C     6.0000    0    12.011   -2.563161   -5.071339   -5.238538
  40 C     6.0000    0    12.011   -3.260853   -7.393005   -3.662259
  41 C     6.0000    0    12.011   -1.669482   -9.722219   -4.301319
  42 O     8.0000    0    15.999   -1.113852    2.917771   -1.695434
  43 O     8.0000    0    15.999   -6.857339    6.431742    2.666347
  44 O     8.0000    0    15.999   -6.268300   -1.465819    5.443363
  45 C     6.0000    0    12.011   -0.546757   -2.725967    6.808254
  46 C     6.0000    0    12.011   -1.873203   -2.239139    9.324245
  47 O     8.0000    0    15.999    1.554904   -1.082000    1.515048
  48 C     6.0000    0    12.011    4.360396   -6.755843    1.588300
  49 C     6.0000    0    12.011    6.010184   -5.109509    3.303195
  50 C     6.0000    0    12.011    5.951750   -8.679271    0.130137
  51 H     1.0000    0     1.008    5.677364   -2.307276   -7.654829
  52 H     1.0000    0     1.008   10.195459   -3.021754   -7.726030
  53 H     1.0000    0     1.008    9.183005   -5.823033   -6.161847
  54 H     1.0000    0     1.008    9.968013   -3.881497   -1.977668
  55 H     1.0000    0     1.008   12.635727   -2.852459   -3.731087
  56 H     1.0000    0     1.008    9.492404    0.636996   -1.445087
  57 H     1.0000    0     1.008   10.814842    1.258391   -4.474693
  58 H     1.0000    0     1.008    4.558957   -1.786831   -1.428072
  59 H     1.0000    0     1.008    1.570045   -6.409518   -1.411987
  60 H     1.0000    0     1.008   -1.244469   -6.327043    1.988188
  61 H     1.0000    0     1.008   -3.462791   -5.162046    5.328155
  62 H     1.0000    0     1.008   -2.181894    0.118545    1.299474
  63 H     1.0000    0     1.008   -7.305526    1.860431    2.835626
  64 H     1.0000    0     1.008   -6.009605    2.349585   -0.228682
  65 H     1.0000    0     1.008   -3.952834    4.659541    4.676491
  66 H     1.0000    0     1.008   -3.115453    8.148604    0.866126
  67 H     1.0000    0     1.008    0.766283    2.642736    2.159172
  68 H     1.0000    0     1.008    4.434635    6.351359    4.206017
  69 H     1.0000    0     1.008    2.760323    3.953771   -1.141405
  70 H     1.0000    0     1.008    8.035494    4.344948   -2.972949
  71 H     1.0000    0     1.008    5.563025    8.273739   -3.876818
  72 H     1.0000    0     1.008    6.314673    6.673764   -6.753638
  73 H     1.0000    0     1.008    3.220635    6.430573   -5.489349
  74 H     1.0000    0     1.008    6.795451    2.149784    5.498018
  75 H     1.0000    0     1.008    3.790542    0.725312    5.200994
  76 H     1.0000    0     1.008    4.465570    1.724108    9.559629
  77 H     1.0000    0     1.008    7.915646    4.899880    9.046396
  78 H     1.0000    0     1.008    5.677967    7.211101    8.079002
  79 H     1.0000    0     1.008    5.566978    5.996378   11.194870
  80 H     1.0000    0     1.008    0.035333    2.774362    8.010577
  81 H     1.0000    0     1.008    0.971308    4.522981   10.720077
  82 H     1.0000    0     1.008    0.981012    5.983082    7.703501
  83 H     1.0000    0     1.008   -1.570581    8.412110   -3.440992
  84 H     1.0000    0     1.008   -4.670067    7.307676   -3.487654
  85 H     1.0000    0     1.008   -0.585091    4.225944   -6.223329
  86 H     1.0000    0     1.008   -1.675207    7.047113   -7.630562
  87 H     1.0000    0     1.008   -4.085682    3.643086   -9.428529
  88 H     1.0000    0     1.008   -6.116932    5.472745   -7.522208
  89 H     1.0000    0     1.008   -7.183886    1.131899   -6.768658
  90 H     1.0000    0     1.008   -5.633670    2.175885   -4.029551
  91 H     1.0000    0     1.008   -1.551176    0.163993   -5.721579
  92 H     1.0000    0     1.008   -3.326976   -1.005760   -8.289632
  93 H     1.0000    0     1.008   -6.208351   -3.237755   -5.071615
  94 H     1.0000    0     1.008   -4.100868   -2.269522   -2.678857
  95 H     1.0000    0     1.008   -0.558400   -4.594198   -4.932998
  96 H     1.0000    0     1.008   -2.705408   -5.562668   -7.261177
  97 H     1.0000    0     1.008   -5.283979   -7.824419   -3.923212
  98 H     1.0000    0     1.008   -3.064469   -6.916491   -1.638616
  99 H     1.0000    0     1.008   -2.108683  -11.324557   -3.051593
 100 H     1.0000    0     1.008   -2.022000  -10.335379   -6.256431
 101 H     1.0000    0     1.008    0.364270   -9.308740   -4.165706
 102 H     1.0000    0     1.008   -6.479104    7.988904    3.567582
 103 H     1.0000    0     1.008    0.485627   -1.032733    6.198920
 104 H     1.0000    0     1.008    0.865060   -4.239888    7.030142
 105 H     1.0000    0     1.008   -0.480839   -1.689480   10.762740
 106 H     1.0000    0     1.008   -3.280751   -0.724994    9.170321
 107 H     1.0000    0     1.008   -2.865253   -3.936228    9.997494
 108 H     1.0000    0     1.008    3.007057   -7.803719    2.781231
 109 H     1.0000    0     1.008    4.890873   -3.800360    4.461856
 110 H     1.0000    0     1.008    7.132268   -6.299079    4.582232
 111 H     1.0000    0     1.008    7.335318   -3.971824    2.175917
 112 H     1.0000    0     1.008    4.789170   -9.852080   -1.124226
 113 H     1.0000    0     1.008    7.367440   -7.723232   -1.050657
 114 H     1.0000    0     1.008    6.964171   -9.915881    1.457711

--------------------------------
INTERNAL COORDINATES (ANGSTROEM)
--------------------------------
 O      0   0   0     0.000000000000     0.00000000     0.00000000
 C      1   0   0     1.231311451313     0.00000000     0.00000000
 C      2   1   0     1.537452823202   120.17320876     0.00000000
 C      3   2   1     1.539821532060   109.77432873   291.37459849
 C      4   3   2     1.535846334903   102.73218255   271.49826471
 C      5   4   3     1.533477046997   103.52494010   320.77851276
 N      3   2   1     1.466474157939   114.15843856   176.38364796
 C      7   3   2     1.364173061124   120.18717994   274.02459490
 O      8   7   3     1.234676717771   122.18021017     2.67784664
 N      2   1   3     1.359544758570   123.93938306   184.05175082
 C     10   2   1     1.444087406945   122.57427890   358.63253373
 C     11  10   2     1.526865937789   108.54884720   216.13203976
 N     12  11  10     1.353457396761   114.96199666   163.76833370
 C     13  12  11     1.471845784766   127.13018879   158.56385723
 C     14  13  12     1.539873035640   116.62058229    78.79135029
 N     15  14  13     1.360264591104   117.58014484   323.87863744
 C     16  15  14     1.447991594125   120.56003163   182.67678478
 C     17  16  15     1.534937086321   114.01361028   107.58576969
 C     18  17  16     1.578716205706   116.67882656    74.88358947
 C     19  18  17     1.543514338928   114.25244163   246.28250753
 N     20  19  18     1.358135160093   116.75820469    73.73950244
 C     21  20  19     1.455906632945   121.79326684   164.43019200
 C     22  21  20     1.547200567585   112.02504418   261.75832083
 N     23  22  21     1.361003417863   115.58323310     7.05340986
 C     24  23  22     1.459062666935   123.64528985   170.70844145
 C     25  24  23     1.526125996616   111.06947103   239.24976417
 O     23  22  21     1.233232365279   120.68922247   183.82211976
 C     22  21  20     1.533377684448   112.84393660   134.88388224
 C     28  22  21     1.541190772337   115.19480293   278.57340814
 C     29  28  22     1.533750196596   111.28866521   288.49676087
 C     29  28  22     1.534925343691   113.88198117    54.05509479
 O     20  19  18     1.232952316640   119.48636450   252.60197856
 C     19  18  17     1.522252179707   114.65651593    14.46932450
 C     33  19  18     1.507378828779   116.45216506   113.94878730
 C     34  33  19     1.531472443608   116.35683341   179.09116878
 C     35  34  33     1.536310605234   113.94509022    91.77512495
 C     36  35  34     1.532951262893   115.30550363   293.31443506
 C     37  36  35     1.529909486007   114.03938067   290.97125278
 C     38  37  36     1.529909037440   113.06297836   175.74480880
 C     39  38  37     1.528922655085   112.94130225   171.58035473
 C     40  39  38     1.530188335350   113.90358945   179.32687114
 C     41  40  39     1.530603052562   113.16401882   177.51561187
 O     33  19  18     1.230113926904   120.75114892   290.04618167
 O     18  17  16     1.430090695089   104.47807251   195.34078015
 O     15  14  13     1.231945430450   118.48417967   146.66387704
 C     14  13  12     1.544628100803   111.31887164   310.12133764
 C     46  14  13     1.526992223608   113.97842882   191.93071065
 O     12  11  10     1.240787386443   121.19465508   340.14582620
 C     11  10   2     1.563331451206   112.46266884    95.16690426
 C     49  11  10     1.531241646559   111.75614878    61.68930554
 C     49  11  10     1.529882248033   110.97017730   296.78430290
 H      3   2   1     1.097356466104   106.54633702    54.63928671
 H      4   3   2     1.099966119515   109.34836255   154.05343275
 H      4   3   2     1.095920657187   111.51324310    34.25901904
 H      5   4   3     1.100093041835   110.10366316    78.39524658
 H      5   4   3     1.096982887281   113.37455836   199.21439753
 H      6   5   4     1.098111775167   113.70425230   150.22595176
 H      6   5   4     1.102624118755   110.70375651   271.95054467
 H     10   2   1     1.019273230804   119.65161735   190.90680108
 H     11  10   2     1.101214312119   107.82217634   335.90645990
 H     13  12  11     1.015431453799   116.00376545   350.65219608
 H     14  13  12     1.098466296485   105.31017799   193.00638992
 H     16  15  14     1.020920453631   120.24598554     2.59574705
 H     17  16  15     1.096734938377   106.82340327   349.84385352
 H     17  16  15     1.099564133051   110.21647354   232.46999587
 H     18  17  16     1.104477980614   107.99417116   313.04164113
 H     19  18  17     1.096556543004   105.41636097   133.65979991
 H     21  20  19     1.021331206229   119.85538036   359.89664468
 H     22  21  20     1.101736154486   105.79428424    14.59049407
 H     24  23  22     1.018842904241   119.25715600   347.92420316
 H     25  24  23     1.097130222869   105.62075120   359.16260795
 H     26  25  24     1.097598955221   109.80644784    57.30597832
 H     26  25  24     1.098872098102   110.53841546   177.44555845
 H     26  25  24     1.097311387543   110.30102334   296.44520673
 H     28  22  21     1.099530509898   107.13929306   157.26128265
 H     28  22  21     1.100113513577   107.78341882    42.55853355
 H     29  28  22     1.104855960690   105.65560038   172.05743236
 H     30  29  28     1.099491482970   111.42069639   304.91916214
 H     30  29  28     1.100876285428   111.21354805    65.19431234
 H     30  29  28     1.099746237793   110.89302378   184.31956016
 H     31  29  28     1.098918418529   112.07037528    51.17034946
 H     31  29  28     1.099835978945   110.35269802   171.35476709
 H     31  29  28     1.099893185709   111.06300672   290.41576350
 H     34  33  19     1.106820336098   104.82440185    55.57375740
 H     34  33  19     1.106752371126   107.27336338   305.70769248
 H     35  34  33     1.101046257295   109.22040946   327.94185674
 H     35  34  33     1.100531019137   108.19786431   212.27107163
 H     36  35  34     1.102702494785   108.41610953   171.22045003
 H     36  35  34     1.103971922845   108.60443500    56.33849216
 H     37  36  35     1.103130161504   108.85471795   168.93681169
 H     37  36  35     1.103402951623   109.70849565    54.12703989
 H     38  37  36     1.100215468186   110.22343540    53.25212082
 H     38  37  36     1.104544073784   108.63802327   297.14377915
 H     39  38  37     1.105133245639   109.71905315    49.50614743
 H     39  38  37     1.104940130123   109.22286821   293.88798979
 H     40  39  38     1.102428070186   109.73940222    55.98389096
 H     40  39  38     1.104029950616   109.17105850   301.20261824
 H     41  40  39     1.103337897450   109.39148201    54.68392097
 H     41  40  39     1.105051049819   108.80523268   300.43110432
 H     42  41  40     1.100154123710   111.81493325   175.83061180
 H     42  41  40     1.100217112530   110.60785264   295.71320103
 H     42  41  40     1.100574906810   111.31560648    54.03522954
 H     44  18  17     0.972885744864   107.99593363   167.99451497
 H     46  14  13     1.097854189568   108.63945855    68.49634103
 H     46  14  13     1.101707755120   106.94137986   313.67762909
 H     47  46  14     1.098609813080   109.90833710   179.26753259
 H     47  46  14     1.097008728732   111.75235237   299.49419201
 H     47  46  14     1.099560532215   111.35727949    59.40982514
 H     49  11  10     1.104023493086   105.94684222   179.63994201
 H     50  49  11     1.098501644737   112.46857805    59.10788516
 H     50  49  11     1.098611310947   110.32044298   179.74695326
 H     50  49  11     1.100009424754   110.69871977   298.79211661
 H     51  49  11     1.097389377541   111.88559269   305.91716863
 H     51  49  11     1.098914404076   110.83903586    65.73436697
 H     51  49  11     1.099448293636   109.99436787   184.80884361

---------------------------
INTERNAL COORDINATES (A.U.)
---------------------------
 O      0   0   0     0.000000000000     0.00000000     0.00000000
 C      1   0   0     2.326841428542     0.00000000     0.00000000
 C      2   1   0     2.905364779676   120.17320876     0.00000000
 C      3   2   1     2.909840990708   109.77432873   291.37459849
 C      4   3   2     2.902328956753   102.73218255   271.49826471
 C      5   4   3     2.897851651479   103.52494010   320.77851276
 N      3   2   1     2.771234540978   114.15843856   176.38364796
 C      7   3   2     2.577913484798   120.18717994   274.02459490
 O      8   7   3     2.333200860516   122.18021017     2.67784664
 N      2   1   3     2.569167260505   123.93938306   184.05175082
 C     10   2   1     2.728929712570   122.57427890   358.63253373
 C     11  10   2     2.885358465634   108.54884720   216.13203976
 N     12  11  10     2.557663813809   114.96199666   163.76833370
 C     13  12  11     2.781385444574   127.13018879   158.56385723
 C     14  13  12     2.909938318369   116.62058229    78.79135029
 N     15  14  13     2.570527546858   117.58014484   323.87863744
 C     16  15  14     2.736307557116   120.56003163   182.67678478
 C     17  16  15     2.900610725946   114.01361028   107.58576969
 C     18  17  16     2.983341271968   116.67882656    74.88358947
 C     19  18  17     2.916819384355   114.25244163   246.28250753
 N     20  19  18     2.566503505425   116.75820469    73.73950244
 C     21  20  19     2.751264812826   121.79326684   164.43019200
 C     22  21  20     2.923785346984   112.02504418   261.75832083
 N     23  22  21     2.571923727091   115.58323310     7.05340986
 C     24  23  22     2.757228852736   123.64528985   170.70844145
 C     25  24  23     2.883960179463   111.06947103   239.24976417
 O     23  22  21     2.330471429864   120.68922247   183.82211976
 C     22  21  20     2.897663883472   112.84393660   134.88388224
 C     28  22  21     2.912428479843   115.19480293   278.57340814
 C     29  28  22     2.898367829414   111.28866521   288.49676087
 C     29  28  22     2.900588535591   113.88198117    54.05509479
 O     20  19  18     2.329942214634   119.48636450   252.60197856
 C     19  18  17     2.876639726412   114.65651593    14.46932450
 C     33  19  18     2.848533166464   116.45216506   113.94878730
 C     34  33  19     2.894063500066   116.35683341   179.09116878
 C     35  34  33     2.903206300532   113.94509022    91.77512495
 C     36  35  34     2.896858063516   115.30550363   293.31443506
 C     37  36  35     2.891109938241   114.03938067   290.97125278
 C     38  37  36     2.891109090573   113.06297836   175.74480880
 C     39  38  37     2.889245098059   112.94130225   171.58035473
 C     40  39  38     2.891636887133   113.90358945   179.32687114
 C     41  40  39     2.892420589087   113.16401882   177.51561187
 O     33  19  18     2.324578435370   120.75114892   290.04618167
 O     18  17  16     2.702479760387   104.47807251   195.34078015
 O     15  14  13     2.328039475487   118.48417967   146.66387704
 C     14  13  12     2.918924089276   111.31887164   310.12133764
 C     46  14  13     2.885597111247   113.97842882   191.93071065
 O     12  11  10     2.344748350801   121.19465508   340.14582620
 C     11  10   2     2.954268299325   112.46266884    95.16690426
 C     49  11  10     2.893627356851   111.75614878    61.68930554
 C     49  11  10     2.891058465930   110.97017730   296.78430290
 H      3   2   1     2.073703192225   106.54633702    54.63928671
 H      4   3   2     2.078634722475   109.34836255   154.05343275
 H      4   3   2     2.070989906591   111.51324310    34.25901904
 H      5   4   3     2.078874570900   110.10366316    78.39524658
 H      5   4   3     2.072997230560   113.37455836   199.21439753
[...]
freq.      85.18  E(vib)   ...       0.48 
freq.      89.47  E(vib)   ...       0.47 
freq.      95.03  E(vib)   ...       0.47 
freq.      96.11  E(vib)   ...       0.47 
freq.     102.71  E(vib)   ...       0.46 
freq.     104.49  E(vib)   ...       0.46 
freq.     107.59  E(vib)   ...       0.45 
freq.     118.63  E(vib)   ...       0.44 
freq.     124.58  E(vib)   ...       0.43 
freq.     132.06  E(vib)   ...       0.42 
freq.     138.91  E(vib)   ...       0.42 
freq.     147.76  E(vib)   ...       0.41 
freq.     148.62  E(vib)   ...       0.41 
freq.     153.05  E(vib)   ...       0.40 
freq.     155.13  E(vib)   ...       0.40 
freq.     159.33  E(vib)   ...       0.39 
freq.     168.66  E(vib)   ...       0.38 
freq.     182.29  E(vib)   ...       0.37 
freq.     185.30  E(vib)   ...       0.37 
freq.     189.99  E(vib)   ...       0.36 
freq.     195.99  E(vib)   ...       0.36 
freq.     210.21  E(vib)   ...       0.34 
freq.     214.45  E(vib)   ...       0.34 
freq.     215.22  E(vib)   ...       0.34 
freq.     219.64  E(vib)   ...       0.33 
freq.     222.08  E(vib)   ...       0.33 
freq.     224.82  E(vib)   ...       0.33 
freq.     227.68  E(vib)   ...       0.33 
freq.     231.44  E(vib)   ...       0.32 
freq.     237.74  E(vib)   ...       0.32 
freq.     241.27  E(vib)   ...       0.31 
freq.     242.58  E(vib)   ...       0.31 
freq.     254.15  E(vib)   ...       0.30 
freq.     259.51  E(vib)   ...       0.30 
freq.     261.85  E(vib)   ...       0.29 
freq.     268.62  E(vib)   ...       0.29 
freq.     285.13  E(vib)   ...       0.28 
freq.     289.78  E(vib)   ...       0.27 
freq.     291.71  E(vib)   ...       0.27 
freq.     296.05  E(vib)   ...       0.27 
freq.     297.76  E(vib)   ...       0.27 
freq.     308.25  E(vib)   ...       0.26 
freq.     315.62  E(vib)   ...       0.25 
freq.     321.45  E(vib)   ...       0.25 
freq.     329.19  E(vib)   ...       0.24 
freq.     331.09  E(vib)   ...       0.24 
freq.     336.52  E(vib)   ...       0.24 
freq.     348.73  E(vib)   ...       0.23 
freq.     351.25  E(vib)   ...       0.23 
freq.     365.82  E(vib)   ...       0.22 
freq.     371.42  E(vib)   ...       0.21 
freq.     381.84  E(vib)   ...       0.21 
freq.     384.87  E(vib)   ...       0.20 
freq.     397.39  E(vib)   ...       0.20 
freq.     408.35  E(vib)   ...       0.19 
freq.     411.91  E(vib)   ...       0.19 
freq.     423.66  E(vib)   ...       0.18 
freq.     433.58  E(vib)   ...       0.17 
freq.     443.78  E(vib)   ...       0.17 
freq.     448.49  E(vib)   ...       0.17 
freq.     459.00  E(vib)   ...       0.16 
freq.     477.09  E(vib)   ...       0.15 
freq.     487.15  E(vib)   ...       0.15 
freq.     491.91  E(vib)   ...       0.14 
freq.     495.72  E(vib)   ...       0.14 
freq.     515.05  E(vib)   ...       0.13 
freq.     518.58  E(vib)   ...       0.13 
freq.     537.06  E(vib)   ...       0.12 
freq.     540.66  E(vib)   ...       0.12 
freq.     565.47  E(vib)   ...       0.11 
freq.     570.22  E(vib)   ...       0.11 
freq.     572.17  E(vib)   ...       0.11 
freq.     595.43  E(vib)   ...       0.10 
freq.     610.41  E(vib)   ...       0.10 
freq.     631.90  E(vib)   ...       0.09 
freq.     636.62  E(vib)   ...       0.09 
freq.     642.03  E(vib)   ...       0.09 
freq.     651.70  E(vib)   ...       0.08 
freq.     668.16  E(vib)   ...       0.08 
freq.     671.95  E(vib)   ...       0.08 
freq.     692.28  E(vib)   ...       0.07 
freq.     701.78  E(vib)   ...       0.07 
freq.     706.36  E(vib)   ...       0.07 
freq.     715.32  E(vib)   ...       0.07 
freq.     722.81  E(vib)   ...       0.07 
freq.     730.13  E(vib)   ...       0.06 
freq.     738.56  E(vib)   ...       0.06 
freq.     747.46  E(vib)   ...       0.06 
freq.     756.14  E(vib)   ...       0.06 
freq.     758.59  E(vib)   ...       0.06 
freq.     776.55  E(vib)   ...       0.05 
freq.     783.02  E(vib)   ...       0.05 
freq.     794.95  E(vib)   ...       0.05 
freq.     800.53  E(vib)   ...       0.05 
freq.     812.45  E(vib)   ...       0.05 
freq.     813.85  E(vib)   ...       0.05 
freq.     822.71  E(vib)   ...       0.05 
freq.     827.55  E(vib)   ...       0.04 
freq.     838.63  E(vib)   ...       0.04 
freq.     857.63  E(vib)   ...       0.04 
freq.     858.30  E(vib)   ...       0.04 
freq.     860.87  E(vib)   ...       0.04 
freq.     867.41  E(vib)   ...       0.04 
freq.     877.86  E(vib)   ...       0.04 
freq.     881.64  E(vib)   ...       0.04 
freq.     888.04  E(vib)   ...       0.04 
freq.     897.35  E(vib)   ...       0.03 
freq.     898.58  E(vib)   ...       0.03 
freq.     905.09  E(vib)   ...       0.03 
freq.     905.63  E(vib)   ...       0.03 
freq.     910.23  E(vib)   ...       0.03 
freq.     912.64  E(vib)   ...       0.03 
freq.     924.12  E(vib)   ...       0.03 
freq.     930.13  E(vib)   ...       0.03 
freq.     936.10  E(vib)   ...       0.03 
freq.     941.07  E(vib)   ...       0.03 
freq.     941.51  E(vib)   ...       0.03 
freq.     944.26  E(vib)   ...       0.03 
freq.     950.43  E(vib)   ...       0.03 
freq.     961.80  E(vib)   ...       0.03 
freq.     971.10  E(vib)   ...       0.03 
freq.     972.74  E(vib)   ...       0.03 
freq.     974.81  E(vib)   ...       0.03 
freq.     987.45  E(vib)   ...       0.02 
freq.     998.07  E(vib)   ...       0.02 
freq.    1000.50  E(vib)   ...       0.02 
freq.    1008.75  E(vib)   ...       0.02 
freq.    1012.54  E(vib)   ...       0.02 
freq.    1016.97  E(vib)   ...       0.02 
freq.    1019.61  E(vib)   ...       0.02 
freq.    1023.17  E(vib)   ...       0.02 
freq.    1033.71  E(vib)   ...       0.02 
freq.    1037.29  E(vib)   ...       0.02 
freq.    1040.53  E(vib)   ...       0.02 
freq.    1041.79  E(vib)   ...       0.02 
freq.    1043.36  E(vib)   ...       0.02 
freq.    1051.07  E(vib)   ...       0.02 
freq.    1060.05  E(vib)   ...       0.02 
freq.    1062.99  E(vib)   ...       0.02 
freq.    1073.62  E(vib)   ...       0.02 
freq.    1079.38  E(vib)   ...       0.02 
freq.    1082.41  E(vib)   ...       0.02 
freq.    1090.36  E(vib)   ...       0.02 
freq.    1092.16  E(vib)   ...       0.02 
freq.    1096.65  E(vib)   ...       0.02 
freq.    1102.79  E(vib)   ...       0.02 
freq.    1108.72  E(vib)   ...       0.02 
freq.    1112.35  E(vib)   ...       0.01 
freq.    1115.32  E(vib)   ...       0.01 
freq.    1123.74  E(vib)   ...       0.01 
freq.    1131.46  E(vib)   ...       0.01 
freq.    1132.74  E(vib)   ...       0.01 
freq.    1147.52  E(vib)   ...       0.01 
freq.    1152.57  E(vib)   ...       0.01 
freq.    1158.28  E(vib)   ...       0.01 
freq.    1162.48  E(vib)   ...       0.01 
freq.    1168.48  E(vib)   ...       0.01 
freq.    1172.15  E(vib)   ...       0.01 
freq.    1177.08  E(vib)   ...       0.01 
freq.    1179.47  E(vib)   ...       0.01 
freq.    1185.59  E(vib)   ...       0.01 
freq.    1190.80  E(vib)   ...       0.01 
freq.    1204.81  E(vib)   ...       0.01 
freq.    1205.19  E(vib)   ...       0.01 
freq.    1208.70  E(vib)   ...       0.01 
freq.    1216.44  E(vib)   ...       0.01 
freq.    1217.54  E(vib)   ...       0.01 
freq.    1219.76  E(vib)   ...       0.01 
freq.    1230.14  E(vib)   ...       0.01 
freq.    1231.85  E(vib)   ...       0.01 
freq.    1235.01  E(vib)   ...       0.01 
freq.    1240.23  E(vib)   ...       0.01 
freq.    1242.37  E(vib)   ...       0.01 
freq.    1244.57  E(vib)   ...       0.01 
freq.    1248.29  E(vib)   ...       0.01 
freq.    1254.79  E(vib)   ...       0.01 
freq.    1260.10  E(vib)   ...       0.01 
freq.    1270.88  E(vib)   ...       0.01 
freq.    1276.17  E(vib)   ...       0.01 
freq.    1277.34  E(vib)   ...       0.01 
freq.    1282.52  E(vib)   ...       0.01 
freq.    1286.00  E(vib)   ...       0.01 
freq.    1287.92  E(vib)   ...       0.01 
freq.    1290.02  E(vib)   ...       0.01 
freq.    1292.25  E(vib)   ...       0.01 
freq.    1297.18  E(vib)   ...       0.01 
freq.    1298.37  E(vib)   ...       0.01 
freq.    1299.25  E(vib)   ...       0.01 
freq.    1300.21  E(vib)   ...       0.01 
freq.    1301.95  E(vib)   ...       0.01 
freq.    1304.94  E(vib)   ...       0.01 
freq.    1307.42  E(vib)   ...       0.01 
freq.    1312.77  E(vib)   ...       0.01 
freq.    1314.43  E(vib)   ...       0.01 
freq.    1321.97  E(vib)   ...       0.01 
freq.    1325.01  E(vib)   ...       0.01 
freq.    1327.07  E(vib)   ...       0.01 
freq.    1331.66  E(vib)   ...       0.01 
freq.    1334.87  E(vib)   ...       0.01 
freq.    1336.54  E(vib)   ...       0.01 
freq.    1340.47  E(vib)   ...       0.01 
freq.    1342.03  E(vib)   ...       0.01 
freq.    1342.48  E(vib)   ...       0.01 
freq.    1349.25  E(vib)   ...       0.01 
freq.    1352.99  E(vib)   ...       0.01 
freq.    1354.45  E(vib)   ...       0.01 
freq.    1354.78  E(vib)   ...       0.01 
freq.    1357.67  E(vib)   ...       0.01 
freq.    1359.02  E(vib)   ...       0.01 
freq.    1370.10  E(vib)   ...       0.01 
freq.    1373.44  E(vib)   ...       0.01 
freq.    1375.44  E(vib)   ...       0.01 
freq.    1375.71  E(vib)   ...       0.01 
freq.    1378.72  E(vib)   ...       0.01 
freq.    1387.42  E(vib)   ...       0.00 
freq.    1390.94  E(vib)   ...       0.00 
freq.    1427.42  E(vib)   ...       0.00 
freq.    1427.70  E(vib)   ...       0.00 
freq.    1432.32  E(vib)   ...       0.00 
freq.    1433.27  E(vib)   ...       0.00 
freq.    1434.08  E(vib)   ...       0.00 
freq.    1434.42  E(vib)   ...       0.00 
freq.    1435.46  E(vib)   ...       0.00 
freq.    1437.06  E(vib)   ...       0.00 
freq.    1438.47  E(vib)   ...       0.00 
freq.    1441.38  E(vib)   ...       0.00 
freq.    1441.82  E(vib)   ...       0.00 
freq.    1442.93  E(vib)   ...       0.00 
freq.    1443.85  E(vib)   ...       0.00 
freq.    1444.95  E(vib)   ...       0.00 
freq.    1447.33  E(vib)   ...       0.00 
freq.    1448.09  E(vib)   ...       0.00 
freq.    1448.85  E(vib)   ...       0.00 
freq.    1449.85  E(vib)   ...       0.00 
freq.    1450.37  E(vib)   ...       0.00 
freq.    1452.59  E(vib)   ...       0.00 
freq.    1456.44  E(vib)   ...       0.00 
freq.    1458.21  E(vib)   ...       0.00 
freq.    1458.49  E(vib)   ...       0.00 
freq.    1459.18  E(vib)   ...       0.00 
freq.    1464.92  E(vib)   ...       0.00 
freq.    1465.55  E(vib)   ...       0.00 
freq.    1468.79  E(vib)   ...       0.00 
freq.    1473.17  E(vib)   ...       0.00 
freq.    1482.73  E(vib)   ...       0.00 
freq.    1486.60  E(vib)   ...       0.00 
freq.    1502.97  E(vib)   ...       0.00 
freq.    1508.41  E(vib)   ...       0.00 
freq.    1651.99  E(vib)   ...       0.00 
freq.    1653.56  E(vib)   ...       0.00 
freq.    1666.18  E(vib)   ...       0.00 
freq.    1670.39  E(vib)   ...       0.00 
freq.    1673.22  E(vib)   ...       0.00 
freq.    1677.06  E(vib)   ...       0.00 
freq.    1680.73  E(vib)   ...       0.00 
freq.    2921.01  E(vib)   ...       0.00 
freq.    2924.30  E(vib)   ...       0.00 
freq.    2925.27  E(vib)   ...       0.00 
freq.    2928.04  E(vib)   ...       0.00 
freq.    2932.40  E(vib)   ...       0.00 
freq.    2932.78  E(vib)   ...       0.00 
freq.    2935.09  E(vib)   ...       0.00 
freq.    2940.11  E(vib)   ...       0.00 
freq.    2942.26  E(vib)   ...       0.00 
freq.    2944.84  E(vib)   ...       0.00 
freq.    2945.75  E(vib)   ...       0.00 
freq.    2945.90  E(vib)   ...       0.00 
freq.    2953.27  E(vib)   ...       0.00 
freq.    2954.61  E(vib)   ...       0.00 
freq.    2955.98  E(vib)   ...       0.00 
freq.    2957.86  E(vib)   ...       0.00 
freq.    2962.68  E(vib)   ...       0.00 
freq.    2965.11  E(vib)   ...       0.00 
freq.    2965.64  E(vib)   ...       0.00 
freq.    2968.37  E(vib)   ...       0.00 
freq.    2970.52  E(vib)   ...       0.00 
freq.    2972.32  E(vib)   ...       0.00 
freq.    2973.30  E(vib)   ...       0.00 
freq.    2978.49  E(vib)   ...       0.00 
freq.    2978.63  E(vib)   ...       0.00 
freq.    2981.01  E(vib)   ...       0.00 
freq.    2982.86  E(vib)   ...       0.00 
freq.    2987.74  E(vib)   ...       0.00 
freq.    2988.68  E(vib)   ...       0.00 
freq.    2988.90  E(vib)   ...       0.00 
freq.    2989.67  E(vib)   ...       0.00 
freq.    2990.88  E(vib)   ...       0.00 
freq.    3007.69  E(vib)   ...       0.00 
freq.    3008.60  E(vib)   ...       0.00 
freq.    3012.97  E(vib)   ...       0.00 
freq.    3020.15  E(vib)   ...       0.00 
freq.    3020.91  E(vib)   ...       0.00 
freq.    3022.31  E(vib)   ...       0.00 
freq.    3023.91  E(vib)   ...       0.00 
freq.    3024.77  E(vib)   ...       0.00 
freq.    3026.80  E(vib)   ...       0.00 
freq.    3027.06  E(vib)   ...       0.00 
freq.    3027.96  E(vib)   ...       0.00 
freq.    3028.22  E(vib)   ...       0.00 
freq.    3030.21  E(vib)   ...       0.00 
freq.    3031.64  E(vib)   ...       0.00 
freq.    3033.02  E(vib)   ...       0.00 
freq.    3036.61  E(vib)   ...       0.00 
freq.    3037.98  E(vib)   ...       0.00 
freq.    3043.36  E(vib)   ...       0.00 
freq.    3043.46  E(vib)   ...       0.00 
freq.    3043.99  E(vib)   ...       0.00 
freq.    3050.75  E(vib)   ...       0.00 
freq.    3053.52  E(vib)   ...       0.00 
freq.    3053.77  E(vib)   ...       0.00 
freq.    3057.66  E(vib)   ...       0.00 
freq.    3058.56  E(vib)   ...       0.00 
freq.    3066.16  E(vib)   ...       0.00 
freq.    3413.73  E(vib)   ...       0.00 
freq.    3433.05  E(vib)   ...       0.00 
freq.    3457.83  E(vib)   ...       0.00 
freq.    3463.65  E(vib)   ...       0.00 
freq.    3510.24  E(vib)   ...       0.00 
freq.    3683.59  E(vib)   ...       0.00 

------------
INNER ENERGY
------------

The inner energy is: U= E(el) + E(ZPE) + E(vib) + E(rot) + E(trans)
    E(el)   - is the total energy from the electronic structure calculation
              = E(kin-el) + E(nuc-el) + E(el-el) + E(nuc-nuc)
    E(ZPE)  - the the zero temperature vibrational energy from the frequency calculation
    E(vib)  - the the finite temperature correction to E(ZPE) due to population
              of excited vibrational states
    E(rot)  - is the rotational thermal energy
    E(trans)- is the translational thermal energy

Summary of contributions to the inner energy U:
Electronic energy                ...  -2380.08476146 Eh
Zero point energy                ...      0.97785152 Eh     613.61 kcal/mol
Thermal vibrational correction   ...      0.05546895 Eh      34.81 kcal/mol
Thermal rotational correction    ...      0.00141627 Eh       0.89 kcal/mol
Thermal translational correction ...      0.00141627 Eh       0.89 kcal/mol
-----------------------------------------------------------------------
Total thermal energy                  -2379.04860845 Eh


Summary of corrections to the electronic energy:
(perhaps to be used in another calculation)
Total thermal correction                  0.05830149 Eh      36.58 kcal/mol
Non-thermal (ZPE) correction              0.97785152 Eh     613.61 kcal/mol
-----------------------------------------------------------------------
Total correction                          1.03615301 Eh     650.19 kcal/mol


--------
ENTHALPY
--------

The enthalpy is H = U + kB*T
                kB is Boltzmann's constant
Total free energy                 ...  -2379.04860845 Eh 
Thermal Enthalpy correction       ...      0.00094421 Eh       0.59 kcal/mol
-----------------------------------------------------------------------
Total Enthalpy                    ...  -2379.04766424 Eh


Note: Only C1 symmetry has been detected, increase convergence thresholds 
      if your molecule has a higher symmetry. Symmetry factor of 1.0 is   
      used for the rotational entropy correction. 
 

Note: Rotational entropy computed according to Herzberg 
Infrared and Raman Spectra, Chapter V,1, Van Nostrand Reinhold, 1945 
Point Group:  C1, Symmetry Number:   1  
Rotational constants in cm-1:     0.002182     0.001824     0.001762 

Vibrational entropy computed according to the QRRHO of S. Grimme
Chem.Eur.J. 2012 18 9955


-------
ENTROPY
-------

The entropy contributions are T*S = T*(S(el)+S(vib)+S(rot)+S(trans))
     S(el)   - electronic entropy
     S(vib)  - vibrational entropy
     S(rot)  - rotational entropy
     S(trans)- translational entropy
The entropies will be listed as mutliplied by the temperature to get
units of energy

Electronic entropy                ...      0.00000000 Eh      0.00 kcal/mol
Vibrational entropy               ...      0.10098169 Eh     63.37 kcal/mol
Rotational entropy                ...      0.01837471 Eh     11.53 kcal/mol
Translational entropy             ...      0.02166895 Eh     13.60 kcal/mol
-----------------------------------------------------------------------
Final entropy term                ...      0.14102535 Eh     88.49 kcal/mol

In case the symmetry of your molecule has not been determined correctly
or in case you have a reason to use a different symmetry number we print 
out the resulting rotational entropy values for sn=1,12 :
 --------------------------------------------------------
|  sn= 1 | S(rot)=       0.01837471 Eh     11.53 kcal/mol|
|  sn= 2 | S(rot)=       0.01772026 Eh     11.12 kcal/mol|
|  sn= 3 | S(rot)=       0.01733742 Eh     10.88 kcal/mol|
|  sn= 4 | S(rot)=       0.01706580 Eh     10.71 kcal/mol|
|  sn= 5 | S(rot)=       0.01685511 Eh     10.58 kcal/mol|
|  sn= 6 | S(rot)=       0.01668297 Eh     10.47 kcal/mol|
|  sn= 7 | S(rot)=       0.01653742 Eh     10.38 kcal/mol|
|  sn= 8 | S(rot)=       0.01641134 Eh     10.30 kcal/mol|
|  sn= 9 | S(rot)=       0.01630014 Eh     10.23 kcal/mol|
|  sn=10 | S(rot)=       0.01620066 Eh     10.17 kcal/mol|
|  sn=11 | S(rot)=       0.01611067 Eh     10.11 kcal/mol|
|  sn=12 | S(rot)=       0.01602851 Eh     10.06 kcal/mol|
 --------------------------------------------------------


-------------------
GIBBS FREE ENERGY
-------------------

The Gibbs free energy is G = H - T*S

Total enthalpy                    ...  -2379.04766424 Eh 
Total entropy correction          ...     -0.14102535 Eh    -88.49 kcal/mol
-----------------------------------------------------------------------
Final Gibbs free energy         ...  -2379.18868959 Eh

For completeness - the Gibbs free energy minus the electronic energy
G-E(el)                           ...      0.89607187 Eh    562.29 kcal/mol

--------------------------------------------------------------------------
WARNING: No preset parameters were found for the device that Open MPI
detected:

  Local host:            eu-g1-041-2
  Device name:           mlx5_0
  Device vendor ID:      0x02c9
  Device vendor part ID: 4123

Default device parameters will be used, which may result in lower
performance.  You can edit any of the files specified by the
btl_openib_device_param_files MCA parameter to set values for your
device.

NOTE: You can turn off this warning by setting the MCA parameter
      btl_openib_warn_no_device_params_found to 0.
--------------------------------------------------------------------------
--------------------------------------------------------------------------
WARNING: There was an error initializing an OpenFabrics device.

  Local host:   eu-g1-041-2
  Local device: mlx5_0
--------------------------------------------------------------------------

Timings for individual modules:

Sum of individual times         ...    39002.919 sec (= 650.049 min)
GTO integral calculation        ...       13.352 sec (=   0.223 min)   0.0 %
SCF iterations                  ...      404.560 sec (=   6.743 min)   1.0 %
SCF Gradient evaluation         ...       81.174 sec (=   1.353 min)   0.2 %
Geometry relaxation             ...        3.974 sec (=   0.066 min)   0.0 %
Analytical frequency calculation...    38499.860 sec (= 641.664 min)  98.7 %
                             ****ORCA TERMINATED NORMALLY****
TOTAL RUN TIME: 0 days 10 hours 50 minutes 21 seconds 649 msec
