
                                 *****************
                                 * O   R   C   A *
                                 *****************

           --- An Ab Initio, DFT and Semiempirical electronic structure package ---

                  #######################################################
                  #                        -***-                        #
                  #          Department of theory and spectroscopy      #
                  #               Directorship: Frank Neese             #
                  #        Max Planck Institute fuer Kohlenforschung    #
                  #                Kaiser Wilhelm Platz 1               #
                  #                 D-45470 Muelheim/Ruhr               #
                  #                      Germany                        #
                  #                                                     #
                  #                  All rights reserved                #
                  #                        -***-                        #
                  #######################################################


                         Program Version 4.2.0 -  RELEASE  -


 With contributions from (in alphabetic order):
   Daniel Aravena         : Magnetic Suceptibility
   Michael Atanasov       : Ab Initio Ligand Field Theory (pilot matlab implementation)
   Alexander A. Auer      : GIAO ZORA, VPT2
   Ute Becker             : Parallelization
   Giovanni Bistoni       : ED, misc. LED, open-shell LED, HFLED
   Martin Brehm           : Molecular dynamics
   Dmytro Bykov           : SCF Hessian
   Vijay G. Chilkuri      : MRCI spin determinant printing, contributions to CSF-ICE
   Dipayan Datta          : RHF DLPNO-CCSD density
   Achintya Kumar Dutta   : EOM-CC, STEOM-CC
   Dmitry Ganyushin       : Spin-Orbit,Spin-Spin,Magnetic field MRCI
   Miquel Garcia          : C-PCM Hessian, Gaussian charge scheme
   Yang Guo               : DLPNO-NEVPT2, CIM, IAO-localization
   Andreas Hansen         : Spin unrestricted coupled pair/coupled cluster methods
   Benjamin Helmich-Paris : CASSCF linear response (MC-RPA)
   Lee Huntington         : MR-EOM, pCC
   Robert Izsak           : Overlap fitted RIJCOSX, COSX-SCS-MP3, EOM
   Christian Kollmar      : KDIIS, OOCD, Brueckner-CCSD(T), CCSD density
   Simone Kossmann        : Meta GGA functionals, TD-DFT gradient, OOMP2, MP2 Hessian
   Martin Krupicka        : AUTO-CI
   Lucas Lang             : DCDCAS
   Dagmar Lenk            : GEPOL surface, SMD
   Dimitrios Liakos       : Extrapolation schemes; Compound Job, initial MDCI parallelization
   Dimitrios Manganas     : Further ROCIS development; embedding schemes
   Dimitrios Pantazis     : SARC Basis sets
   Taras Petrenko         : DFT Hessian,TD-DFT gradient, ASA, ECA, R-Raman, ABS, FL, XAS/XES, NRVS
   Peter Pinski           : DLPNO-MP2, DLPNO-MP2 Gradient
   Christoph Reimann      : Effective Core Potentials
   Marius Retegan         : Local ZFS, SOC
   Christoph Riplinger    : Optimizer, TS searches, QM/MM, DLPNO-CCSD(T), (RO)-DLPNO pert. Triples
   Tobias Risthaus        : Range-separated hybrids, TD-DFT gradient, RPA, STAB
   Michael Roemelt        : Original ROCIS implementation
   Masaaki Saitow         : Open-shell DLPNO-CCSD energy and density
   Barbara Sandhoefer     : DKH picture change effects
   Avijit Sen             : IP-ROCIS
   Kantharuban Sivalingam : CASSCF convergence, NEVPT2, FIC-MRCI
   Bernardo de Souza      : ESD, SOC TD-DFT
   Georgi Stoychev        : AutoAux, RI-MP2 NMR
   Willem Van den Heuvel  : Paramagnetic NMR
   Boris Wezisla          : Elementary symmetry handling
   Frank Wennmohs         : Technical directorship


 We gratefully acknowledge several colleagues who have allowed us to
 interface, adapt or use parts of their codes:
   Stefan Grimme, W. Hujo, H. Kruse,             : VdW corrections, initial TS optimization,
                  C. Bannwarth                     DFT functionals, gCP, sTDA/sTD-DF
   Ed Valeev, F. Pavosevic, A. Kumar             : LibInt (2-el integral package), F12 methods
   Garnet Chan, S. Sharma, J. Yang, R. Olivares  : DMRG
   Ulf Ekstrom                                   : XCFun DFT Library
   Mihaly Kallay                                 : mrcc  (arbitrary order and MRCC methods)
   Andreas Klamt, Michael Diedenhofen            : otool_cosmo (COSMO solvation model)
   Jiri Pittner, Ondrej Demel                    : Mk-CCSD
   Frank Weinhold                                : gennbo (NPA and NBO analysis)
   Christopher J. Cramer and Donald G. Truhlar   : smd solvation model
   Lars Goerigk                                  : TD-DFT with DH, B97 family of functionals
   V. Asgeirsson, H. Jonsson                     : NEB implementation
   FAccTs GmbH                                   : IRC, NEB, NEB-TS, Multilevel, MM, QM/MM, CI optimization
   S Lehtola, MJT Oliveira, MAL Marques          : LibXC Library


 Your calculation uses the libint2 library for the computation of 2-el integrals
 For citations please refer to: http://libint.valeyev.net

 Your ORCA version has been built with support for libXC version: 4.2.3
 For citations please refer to: https://tddft.org/programs/libxc/

 This ORCA versions uses:
   CBLAS   interface :  Fast vector & matrix operations
   LAPACKE interface :  Fast linear algebra routines
   SCALAPACK package :  Parallel linear algebra routines




***************************************
The coordinates will be read from file: 62.xyz
***************************************


Your calculation utilizes the atom-pairwise dispersion correction
with the Becke-Johnson damping scheme (D3BJ)
Cite in your paper:
S.Grimme, S.Ehrlich, L.Goerigk, J Comput Chem, (2011), 32, 1456–1465 
S.Grimme, J.Antony, S.Ehrlich and H.Krieg, J.Chem.Phys., 132, (2010), 154104 
   

----- Orbital basis set information -----
Your calculation utilizes the basis: def2-TZVP
   F. Weigend and R. Ahlrichs, Phys. Chem. Chem. Phys. 7, 3297 (2005).

----- AuxJ basis set information -----
Your calculation utilizes the auxiliary basis: def2/J
   F. Weigend, Phys. Chem. Chem. Phys. 8, 1057 (2006).

================================================================================
                                        WARNINGS
                       Please study these warnings very carefully!
================================================================================


WARNING: Geometry Optimization
  ===> : Switching off AutoStart
         For restart on a previous wavefunction, please use MOREAD

INFO   : the flag for use of LIBINT has been found!

================================================================================
                                       INPUT FILE
================================================================================
NAME = 62.inp
|  1> !RI BP86 def2-tzvp def2/J D3BJ VeryTightSCF VeryTightOpt Grid5 FinalGrid6 freq
|  2> %maxcore 4000
|  3> %pal nprocs 24
|  4> end
|  5> * xyzfile 0 1 62.xyz 
|  6> 
|  7>                          ****END OF INPUT****
================================================================================

                       *****************************
                       * Geometry Optimization Run *
                       *****************************

Geometry optimization settings:
Update method            Update   .... BFGS
Choice of coordinates    CoordSys .... Z-matrix Internals
Initial Hessian          InHess   .... Almoef's Model

Convergence Tolerances:
Energy Change            TolE     ....  2.0000e-07 Eh
Max. Gradient            TolMAXG  ....  3.0000e-05 Eh/bohr
RMS Gradient             TolRMSG  ....  8.0000e-06 Eh/bohr
Max. Displacement        TolMAXD  ....  2.0000e-04 bohr
RMS Displacement         TolRMSD  ....  1.0000e-04 bohr
Strict Convergence                ....  False
------------------------------------------------------------------------------
                        ORCA OPTIMIZATION COORDINATE SETUP
------------------------------------------------------------------------------

The optimization will be done in new redundant internal coordinates
Making redundant internal coordinates   ...  (new redundants) done
Evaluating the initial hessian          ...  (Almloef) done
Evaluating the coordinates              ...  done
Calculating the B-matrix                .... done
Calculating the G-matrix                .... done
Diagonalizing the G-matrix              .... done
Small eigenvalue found = 1.114e-03
Small eigenvalue found = 1.579e-03
Small eigenvalue found = 2.483e-03
Small eigenvalue found = 4.290e-03
Small eigenvalue found = 6.096e-03
Small eigenvalue found = 7.077e-03
Small eigenvalue found = 7.913e-03
Small eigenvalue found = 9.436e-03
Small eigenvalue found = 1.179e-02
Small eigenvalue found = 1.301e-02
Small eigenvalue found = 1.450e-02
Small eigenvalue found = 1.505e-02
Small eigenvalue found = 1.808e-02
Small eigenvalue found = 2.027e-02
Small eigenvalue found = 2.053e-02
Small eigenvalue found = 2.610e-02
Small eigenvalue found = 2.834e-02
Small eigenvalue found = 2.886e-02
The first mode is                       ....  328
The number of degrees of freedom        ....  339

    -----------------------------------------------------------------
                    Redundant Internal Coordinates


    -----------------------------------------------------------------
         Definition                    Initial Value    Approx d2E/dq
    -----------------------------------------------------------------
      1. B(C   1,O   0)                  1.2301         1.006967   
      2. B(C   2,C   1)                  1.5579         0.337153   
      3. B(C   3,C   2)                  1.5258         0.379323   
      4. B(C   4,C   3)                  1.5363         0.365086   
      5. B(C   5,C   4)                  1.5344         0.367616   
      6. B(N   6,C   5)                  1.4802         0.401690   
      7. B(N   6,C   2)                  1.4858         0.393632   
      8. B(C   7,N   6)                  1.3472         0.654819   
      9. B(O   8,C   7)                  1.2504         0.934521   
     10. B(N   9,C   1)                  1.3548         0.636793   
     11. B(C  10,N   9)                  1.4602         0.432470   
     12. B(C  11,C  10)                  1.5341         0.368001   
     13. B(N  12,C  11)                  1.3726         0.596637   
     14. B(C  13,N  12)                  1.4646         0.425428   
     15. B(C  14,C  13)                  1.5369         0.364192   
     16. B(N  15,C  14)                  1.3564         0.633065   
     17. B(C  16,N  15)                  1.4577         0.436350   
     18. B(C  17,C  16)                  1.5410         0.358772   
     19. B(C  18,C  17)                  1.5627         0.331284   
     20. B(C  19,C  18)                  1.5294         0.374390   
     21. B(N  20,C  19)                  1.3671         0.608787   
     22. B(C  21,N  20)                  1.4474         0.453149   
     23. B(C  22,C  21)                  1.5320         0.370806   
     24. B(N  23,C  22)                  1.3643         0.614960   
     25. B(C  24,N  23)                  1.4491         0.450386   
     26. B(C  24,C   7)                  1.5348         0.367036   
     27. B(C  25,C  24)                  1.5353         0.366436   
     28. B(O  26,C  22)                  1.2321         0.999546   
     29. B(C  27,C  21)                  1.5517         0.345011   
     30. B(C  28,C  27)                  1.5412         0.358476   
     31. B(C  29,C  28)                  1.5324         0.370340   
     32. B(C  30,C  28)                  1.5328         0.369766   
     33. B(O  31,C  19)                  1.2345         0.990848   
     34. B(C  32,C  18)                  1.5458         0.352498   
     35. B(C  33,C  32)                  1.5047         0.409992   
     36. B(C  34,C  33)                  1.5277         0.376792   
     37. B(C  35,C  34)                  1.5289         0.375077   
     38. B(C  36,C  35)                  1.5320         0.370782   
     39. B(C  37,C  36)                  1.5406         0.359258   
     40. B(C  38,C  37)                  1.5394         0.360936   
     41. B(C  39,C  38)                  1.5350         0.366780   
     42. B(C  40,C  39)                  1.5316         0.371410   
     43. B(C  41,C  40)                  1.5294         0.374337   
     44. B(O  42,C  32)                  1.2225         1.035392   
     45. B(O  43,C  17)                  1.4070         0.525648   
     46. B(O  44,C  14)                  1.2345         0.990583   
     47. B(C  45,C  13)                  1.5326         0.370027   
     48. B(C  46,C  45)                  1.5272         0.377418   
     49. B(O  47,C  11)                  1.2294         1.009554   
     50. B(C  48,C  10)                  1.5632         0.330649   
     51. B(C  49,C  48)                  1.5308         0.372527   
     52. B(C  50,C  48)                  1.5296         0.374107   
     53. B(H  51,C   2)                  1.0994         0.347879   
     54. B(H  52,C   3)                  1.0997         0.347478   
     55. B(H  53,C   3)                  1.0955         0.352949   
     56. B(H  54,C   4)                  1.0976         0.350142   
     57. B(H  55,C   4)                  1.0967         0.351309   
     58. B(H  56,C   5)                  1.0986         0.348864   
     59. B(H  57,C   5)                  1.1012         0.345633   
     60. B(H  58,N   9)                  1.0256         0.408635   
     61. B(H  59,C  10)                  1.0998         0.347329   
     62. B(H  60,N  12)                  1.0203         0.416586   
     63. B(H  61,C  13)                  1.1046         0.341299   
     64. B(H  62,N  15)                  1.0152         0.424465   
     65. B(H  63,C  16)                  1.0985         0.349030   
     66. B(H  64,C  16)                  1.1014         0.345326   
     67. B(H  65,C  17)                  1.1059         0.339664   
     68. B(H  66,C  18)                  1.1013         0.345506   
     69. B(H  67,N  20)                  1.0169         0.421890   
     70. B(H  68,C  21)                  1.1007         0.346216   
     71. B(H  69,N  23)                  1.0156         0.423925   
     72. B(H  70,C  24)                  1.0982         0.349419   
     73. B(H  71,C  25)                  1.0974         0.350389   
     74. B(H  72,C  25)                  1.0980         0.349702   
     75. B(H  73,C  25)                  1.0995         0.347693   
     76. B(H  74,C  27)                  1.1026         0.343870   
     77. B(H  75,C  27)                  1.1018         0.344823   
     78. B(H  76,C  28)                  1.1048         0.341014   
     79. B(H  77,C  29)                  1.0990         0.348368   
     80. B(H  78,C  29)                  1.0995         0.347737   
     81. B(H  79,C  29)                  1.0968         0.351152   
     82. B(H  80,H  61)                  3.9548         0.000002   
     83. B(H  80,C  30)                  1.1003         0.346778   
     84. B(H  81,C  30)                  1.0989         0.348527   
     85. B(H  82,C  30)                  1.1015         0.345215   
     86. B(H  83,C  33)                  1.1042         0.341753   
     87. B(H  84,C  33)                  1.1018         0.344857   
     88. B(H  85,C  34)                  1.1015         0.345172   
     89. B(H  86,C  34)                  1.1007         0.346165   
     90. B(H  87,C  35)                  1.1040         0.342093   
     91. B(H  88,H  81)                  4.3999         0.000000   
     92. B(H  88,C  35)                  1.1006         0.346293   
     93. B(H  89,C  36)                  1.1050         0.340736   
     94. B(H  90,C  36)                  1.1024         0.344021   
     95. B(H  91,C  37)                  1.1015         0.345158   
     96. B(H  92,C  37)                  1.1030         0.343260   
     97. B(H  93,C  38)                  1.1036         0.342552   
     98. B(H  94,C  38)                  1.1039         0.342199   
     99. B(H  95,H  78)                  2.3217         0.000747   
    100. B(H  95,C  39)                  1.1030         0.343321   
    101. B(H  96,C  39)                  1.1038         0.342259   
    102. B(H  97,C  40)                  1.1035         0.342680   
    103. B(H  98,C  40)                  1.1015         0.345257   
    104. B(H  99,C  41)                  1.0992         0.348113   
    105. B(H 100,C  41)                  1.1011         0.345664   
    106. B(H 101,O  31)                  3.3937         0.000068   
    107. B(H 101,C  41)                  1.1005         0.346487   
    108. B(H 102,O  43)                  0.9935         0.459783   
    109. B(H 103,C  45)                  1.0981         0.349591   
    110. B(H 104,C  45)                  1.0984         0.349138   
    111. B(H 105,C  46)                  1.0986         0.348962   
    112. B(H 106,C  46)                  1.1013         0.345468   
    113. B(H 107,O   8)                  3.0681         0.000225   
    114. B(H 107,C  46)                  1.0997         0.347539   
    115. B(H 108,C  48)                  1.1000         0.347074   
    116. B(H 109,C  49)                  1.0985         0.349063   
    117. B(H 110,C  49)                  1.0992         0.348169   
    118. B(H 111,H  66)                  4.9831         0.000000   
    119. B(H 111,C  49)                  1.0995         0.347783   
    120. B(H 112,C  50)                  1.0982         0.349388   
    121. B(H 113,O  26)                  2.9015         0.000415   
    122. B(H 113,C  50)                  1.1000         0.347061   
    123. B(H 114,C  50)                  1.0984         0.349137   
    124. A(O   0,C   1,N   9)          125.5953         0.470087   
    125. A(C   2,C   1,N   9)          112.0726         0.388958   
    126. A(O   0,C   1,C   2)          122.2978         0.421740   
    127. A(C   1,C   2,H  51)          109.4099         0.317128   
    128. A(N   6,C   2,H  51)          108.4330         0.323323   
    129. A(C   1,C   2,N   6)          109.8716         0.358015   
    130. A(C   1,C   2,C   3)          111.8268         0.357983   
    131. A(C   3,C   2,H  51)          114.0168         0.323295   
    132. A(C   3,C   2,N   6)          103.0290         0.365287   
    133. A(C   4,C   3,H  53)          112.3081         0.322037   
    134. A(C   4,C   3,H  52)          111.2073         0.321215   
    135. A(C   2,C   3,C   4)          103.0505         0.362873   
    136. A(C   2,C   3,H  53)          110.9829         0.324064   
    137. A(C   2,C   3,H  52)          109.8873         0.323234   
    138. A(H  52,C   3,H  53)          109.2804         0.288309   
    139. A(H  54,C   4,H  55)          108.4337         0.288444   
    140. A(C   3,C   4,H  55)          113.2907         0.321792   
    141. A(C   3,C   4,C   5)          103.9882         0.360936   
    142. A(C   3,C   4,H  54)          109.0905         0.321617   
    143. A(C   5,C   4,H  55)          111.7408         0.322156   
    144. A(C   5,C   4,H  54)          110.2248         0.321981   
    145. A(H  56,C   5,H  57)          108.3944         0.287545   
    146. A(C   4,C   5,N   6)          103.8192         0.364595   
    147. A(C   4,C   5,H  56)          112.6776         0.321788   
    148. A(N   6,C   5,H  57)          109.8916         0.324056   
    149. A(N   6,C   5,H  56)          110.6186         0.324551   
    150. A(C   4,C   5,H  57)          111.3896         0.321298   
    151. A(C   5,N   6,C   7)          125.9274         0.400481   
    152. A(C   2,N   6,C   7)          122.5182         0.399056   
    153. A(C   2,N   6,C   5)          111.5115         0.366590   
    154. A(O   8,C   7,C  24)          119.5084         0.422513   
    155. A(N   6,C   7,O   8)          122.8925         0.466076   
    156. A(N   6,C   7,C  24)          117.5654         0.396717   
    157. A(C   1,N   9,C  10)          125.1093         0.403735   
    158. A(C  10,N   9,H  58)          119.2386         0.334356   
    159. A(C   1,N   9,H  58)          114.4735         0.356812   
    160. A(C  48,C  10,H  59)          107.3832         0.316043   
    161. A(C  11,C  10,H  59)          105.1562         0.321611   
    162. A(N   9,C  10,C  11)          110.9174         0.369305   
    163. A(N   9,C  10,C  48)          112.2405         0.362597   
    164. A(N   9,C  10,H  59)          109.7471         0.328281   
    165. A(C  11,C  10,C  48)          111.0858         0.354969   
    166. A(N  12,C  11,O  47)          122.0705         0.464728   
    167. A(C  10,C  11,O  47)          120.4632         0.428596   
    168. A(C  10,C  11,N  12)          117.2548         0.390483   
    169. A(C  13,N  12,H  60)          116.5942         0.334514   
    170. A(C  11,N  12,C  13)          120.8511         0.397979   
    171. A(C  11,N  12,H  60)          120.7344         0.354047   
    172. A(C  14,C  13,C  45)          112.1200         0.361188   
    173. A(N  12,C  13,H  61)          105.6692         0.326451   
    174. A(C  14,C  13,H  61)          104.0530         0.320145   
    175. A(N  12,C  13,C  14)          111.9530         0.367609   
    176. A(C  45,C  13,H  61)          108.4172         0.320979   
    177. A(N  12,C  13,C  45)          113.8658         0.368613   
    178. A(C  13,C  14,N  15)          115.2015         0.393836   
    179. A(N  15,C  14,O  44)          123.2931         0.468171   
    180. A(C  13,C  14,O  44)          121.2444         0.426346   
    181. A(C  14,N  15,H  62)          116.6796         0.358768   
    182. A(C  16,N  15,H  62)          118.8150         0.336977   
    183. A(C  14,N  15,C  16)          123.2823         0.403953   
    184. A(H  63,C  16,H  64)          108.1402         0.287527   
    185. A(C  17,C  16,H  64)          107.6909         0.319975   
    186. A(N  15,C  16,H  63)          107.0048         0.329031   
    187. A(C  17,C  16,H  63)          109.5185         0.320533   
    188. A(N  15,C  16,C  17)          114.8136         0.368263   
    189. A(N  15,C  16,H  64)          109.5035         0.328452   
    190. A(O  43,C  17,H  65)          106.3431         0.337826   
    191. A(C  18,C  17,H  65)          105.0910         0.314998   
    192. A(C  16,C  17,H  65)          105.9258         0.319112   
    193. A(C  16,C  17,C  18)          110.9311         0.353560   
    194. A(C  18,C  17,O  43)          115.2085         0.375075   
    195. A(C  16,C  17,O  43)          112.5074         0.380283   
    196. A(C  19,C  18,H  66)          108.9298         0.322241   
    197. A(C  17,C  18,H  66)          106.6830         0.315872   
    198. A(C  17,C  18,C  32)          112.5180         0.352505   
    199. A(C  17,C  18,C  19)          115.6860         0.356123   
    200. A(C  19,C  18,C  32)          108.0995         0.359903   
    201. A(C  32,C  18,H  66)          104.2593         0.319081   
    202. A(C  18,C  19,N  20)          113.4488         0.393044   
    203. A(N  20,C  19,O  31)          121.9886         0.464852   
    204. A(C  18,C  19,O  31)          124.2893         0.428482   
    205. A(C  19,N  20,H  67)          120.5166         0.356022   
    206. A(C  19,N  20,C  21)          122.8025         0.403858   
    207. A(C  21,N  20,H  67)          116.2220         0.338762   
    208. A(C  27,C  21,H  68)          109.9802         0.318073   
    209. A(C  22,C  21,H  68)          110.8422         0.321842   
    210. A(N  20,C  21,H  68)          106.4665         0.330649   
    211. A(N  20,C  21,C  22)          108.6222         0.372772   
    212. A(C  22,C  21,C  27)          107.4375         0.358003   
    213. A(N  20,C  21,C  27)          113.5185         0.368178   
    214. A(C  21,C  22,N  23)          114.4511         0.393077   
    215. A(C  21,C  22,O  26)          122.0735         0.428414   
    216. A(N  23,C  22,O  26)          123.2885         0.466457   
    217. A(C  22,N  23,C  24)          122.8186         0.404142   
    218. A(C  24,N  23,H  69)          117.9281         0.338688   
    219. A(C  22,N  23,H  69)          119.0032         0.356925   
    220. A(C  25,C  24,H  70)          110.8313         0.321702   
    221. A(N  23,C  24,H  70)          105.7209         0.330818   
    222. A(C   7,C  24,H  70)          109.9747         0.321788   
    223. A(N  23,C  24,C  25)          110.3697         0.371620   
    224. A(C   7,C  24,N  23)          110.2578         0.371725   
    225. A(C   7,C  24,C  25)          109.6299         0.361066   
    226. A(H  71,C  25,H  73)          108.8830         0.288009   
    227. A(C  24,C  25,H  73)          110.2683         0.321441   
    228. A(H  71,C  25,H  72)          108.5145         0.288268   
    229. A(C  24,C  25,H  72)          111.2410         0.321745   
    230. A(C  24,C  25,H  71)          110.0577         0.321848   
    231. A(H  72,C  25,H  73)          107.8053         0.287920   
    232. A(C  28,C  27,H  75)          109.9802         0.319856   
    233. A(C  21,C  27,C  28)          117.3414         0.355952   
    234. A(H  74,C  27,H  75)          106.4761         0.286793   
    235. A(C  21,C  27,H  75)          107.5424         0.317864   
    236. A(C  28,C  27,H  74)          107.6275         0.319711   
    237. A(C  21,C  27,H  74)          107.3445         0.317720   
    238. A(C  29,C  28,C  30)          110.7320         0.362178   
    239. A(C  27,C  28,C  30)          111.9688         0.360172   
    240. A(C  27,C  28,C  29)          114.2064         0.360267   
    241. A(C  30,C  28,H  76)          107.6578         0.320898   
    242. A(C  29,C  28,H  76)          107.4092         0.320979   
    243. A(C  27,C  28,H  76)          104.3575         0.319276   
    244. A(C  28,C  29,H  79)          110.8263         0.322522   
    245. A(H  78,C  29,H  79)          107.1289         0.288112   
    246. A(H  77,C  29,H  79)          108.5286         0.288194   
    247. A(H  77,C  29,H  78)          107.9112         0.287754   
    248. A(C  28,C  29,H  78)          110.1929         0.322006   
    249. A(C  28,C  29,H  77)          112.0792         0.322102   
    250. A(H  81,C  30,H  82)          107.7538         0.287447   
    251. A(H  80,C  30,H  82)          108.6349         0.287222   
    252. A(C  28,C  30,H  82)          111.7105         0.321541   
    253. A(H  80,C  30,H  81)          106.8693         0.287650   
    254. A(C  28,C  30,H  81)          110.6622         0.322044   
    255. A(C  28,C  30,H  80)          111.0268         0.321779   
    256. A(C  33,C  32,O  42)          123.5219         0.439000   
    257. A(C  18,C  32,O  42)          119.0466         0.427233   
    258. A(C  18,C  32,C  33)          117.4100         0.365530   
    259. A(C  32,C  33,C  34)          114.4590         0.369733   
    260. A(C  34,C  33,H  84)          111.5931         0.322479   
    261. A(H  83,C  33,H  84)          102.8568         0.286521   
    262. A(C  32,C  33,H  84)          107.7349         0.326985   
    263. A(C  34,C  33,H  83)          112.3975         0.322002   
    264. A(C  32,C  33,H  83)          107.0215         0.326498   
    265. A(C  33,C  34,C  35)          111.1647         0.364134   
    266. A(H  85,C  34,H  86)          105.6542         0.287137   
    267. A(C  35,C  34,H  86)          110.9815         0.322438   
    268. A(C  33,C  34,H  86)          110.6554         0.322679   
    269. A(C  35,C  34,H  85)          109.2663         0.322286   
    270. A(C  33,C  34,H  85)          108.9425         0.322527   
    271. A(C  34,C  35,C  36)          113.7925         0.363135   
    272. A(H  87,C  35,H  88)          105.5826         0.286752   
    273. A(C  36,C  35,H  88)          109.7423         0.321850   
    274. A(C  34,C  35,H  88)          108.0441         0.322458   
    275. A(C  36,C  35,H  87)          109.2994         0.321208   
    276. A(C  34,C  35,H  87)          110.0514         0.321814   
    277. A(C  35,C  36,C  37)          114.3435         0.360474   
    278. A(H  89,C  36,H  90)          105.6631         0.286280   
    279. A(C  37,C  36,H  90)          109.6572         0.319848   
    280. A(C  35,C  36,H  90)          108.5051         0.321503   
    281. A(C  37,C  36,H  89)          109.1897         0.319347   
    282. A(C  35,C  36,H  89)          109.1214         0.320999   
    283. A(C  36,C  37,C  38)          114.8681         0.358825   
    284. A(H  91,C  37,H  92)          105.5700         0.286757   
    285. A(C  38,C  37,H  92)          110.1296         0.319975   
    286. A(C  36,C  37,H  92)          109.2161         0.319732   
    287. A(C  38,C  37,H  91)          107.3239         0.320264   
    288. A(C  36,C  37,H  91)          109.3089         0.320020   
    289. A(C  37,C  38,C  39)          116.3505         0.360094   
    290. A(H  93,C  38,H  94)          105.9873         0.286280   
    291. A(C  39,C  38,H  94)          108.8340         0.320654   
    292. A(C  37,C  38,H  94)          108.6133         0.319814   
    293. A(C  39,C  38,H  93)          108.4903         0.320708   
    294. A(C  37,C  38,H  93)          108.0819         0.319867   
    295. A(C  38,C  39,C  40)          114.6625         0.361855   
    296. A(H  95,C  39,H  96)          105.4256         0.286388   
    297. A(C  40,C  39,H  96)          108.7187         0.321322   
    298. A(C  38,C  39,H  96)          108.7258         0.320663   
    299. A(C  40,C  39,H  95)          109.2861         0.321485   
    300. A(C  38,C  39,H  95)          109.6116         0.320826   
    301. A(C  39,C  40,C  41)          112.7888         0.363117   
    302. A(H  97,C  40,H  98)          105.8758         0.286694   
    303. A(C  41,C  40,H  98)          109.0421         0.322195   
    304. A(C  39,C  40,H  98)          109.8053         0.321781   
    305. A(C  41,C  40,H  97)          110.0865         0.321800   
    306. A(C  39,C  40,H  97)          109.0101         0.321387   
    307. A(H 100,C  41,H 101)          107.5270         0.287242   
    308. A(H  99,C  41,H 101)          107.4302         0.287559   
    309. A(C  40,C  41,H 101)          111.0512         0.322383   
    310. A(H  99,C  41,H 100)          107.7826         0.287452   
    311. A(C  40,C  41,H 100)          111.2002         0.322257   
    312. A(C  40,C  41,H  99)          111.6533         0.322630   
    313. A(C  17,O  43,H 102)          107.4508         0.352371   
    314. A(C  13,C  45,C  46)          112.3236         0.363395   
    315. A(C  46,C  45,H 104)          111.0180         0.323220   
    316. A(C  13,C  45,H 104)          108.4404         0.322174   
    317. A(C  46,C  45,H 103)          110.9967         0.323289   
    318. A(C  13,C  45,H 103)          107.0719         0.322242   
    319. A(H 103,C  45,H 104)          106.7436         0.288093   
    320. A(H 106,C  46,H 107)          107.4184         0.287353   
    321. A(H 105,C  46,H 107)          107.5486         0.287805   
    322. A(C  45,C  46,H 107)          111.8270         0.322977   
    323. A(H 105,C  46,H 106)          107.6895         0.287536   
    324. A(C  45,C  46,H 106)          111.4142         0.322660   
    325. A(C  45,C  46,H 105)          110.7429         0.323193   
    326. A(C  50,C  48,H 108)          107.5178         0.322440   
    327. A(C  49,C  48,H 108)          108.1396         0.322216   
    328. A(C  10,C  48,H 108)          104.2502         0.316006   
    329. A(C  49,C  48,C  50)          111.8576         0.363265   
    330. A(C  10,C  48,C  50)          113.3117         0.355962   
    331. A(C  10,C  48,C  49)          111.2774         0.355706   
    332. A(H 110,C  49,H 111)          108.1803         0.287734   
    333. A(H 109,C  49,H 111)          106.8561         0.287850   
    334. A(C  48,C  49,H 111)          111.9794         0.322324   
    335. A(H 109,C  49,H 110)          108.2125         0.287900   
    336. A(C  48,C  49,H 110)          109.8722         0.322383   
    337. A(C  48,C  49,H 109)          111.5846         0.322518   
    338. A(H 113,C  50,H 114)          107.0266         0.287766   
    339. A(H 112,C  50,H 114)          107.3438         0.288067   
    340. A(C  48,C  50,H 114)          110.2095         0.322753   
    341. A(H 112,C  50,H 113)          106.8187         0.287798   
    342. A(C  48,C  50,H 113)          113.0180         0.322438   
    343. A(C  48,C  50,H 112)          112.1179         0.322791   
    344. D(H  51,C   2,C   1,N   9)    -52.9859         0.008652   
    345. D(C   3,C   2,C   1,N   9)    179.7149         0.008652   
    346. D(N   6,C   2,C   1,N   9)     65.9497         0.008652   
    347. D(N   6,C   2,C   1,O   0)   -112.0323         0.008652   
    348. D(C   3,C   2,C   1,O   0)      1.7329         0.008652   
    349. D(H  51,C   2,C   1,O   0)    129.0321         0.008652   
    350. D(C   4,C   3,C   2,N   6)     34.3154         0.011470   
    351. D(H  53,C   3,C   2,H  51)    -87.9867         0.011470   
    352. D(H  53,C   3,C   2,C   1)     36.7899         0.011470   
    353. D(C   4,C   3,C   2,H  51)    151.6006         0.011470   
    354. D(H  53,C   3,C   2,N   6)    154.7281         0.011470   
    355. D(H  52,C   3,C   2,H  51)     32.9978         0.011470   
    356. D(C   4,C   3,C   2,C   1)    -83.6227         0.011470   
    357. D(H  52,C   3,C   2,C   1)    157.7745         0.011470   
    358. D(H  52,C   3,C   2,N   6)    -84.2873         0.011470   
    359. D(H  55,C   4,C   3,H  53)     80.9130         0.010673   
    360. D(H  55,C   4,C   3,H  52)    -41.9091         0.010673   
    361. D(H  54,C   4,C   3,H  52)   -162.7918         0.010673   
    362. D(H  55,C   4,C   3,C   2)   -159.5869         0.010673   
    363. D(H  54,C   4,C   3,H  53)    -39.9697         0.010673   
    364. D(C   5,C   4,C   3,C   2)    -38.0646         0.010673   
    365. D(H  54,C   4,C   3,C   2)     79.5304         0.010673   
    366. D(C   5,C   4,C   3,H  53)   -157.5647         0.010673   
    367. D(C   5,C   4,C   3,H  52)     79.6132         0.010673   
    368. D(N   6,C   5,C   4,C   3)     26.5111         0.010812   
    369. D(H  57,C   5,C   4,C   3)    -91.6953         0.010812   
    370. D(H  56,C   5,C   4,H  55)    -91.2165         0.010812   
    371. D(H  56,C   5,C   4,C   3)    146.2343         0.010812   
    372. D(H  57,C   5,C   4,H  54)    151.4981         0.010812   
    373. D(H  56,C   5,C   4,H  54)     29.4277         0.010812   
    374. D(H  57,C   5,C   4,H  55)     30.8538         0.010812   
    375. D(N   6,C   5,C   4,H  54)    -90.2955         0.010812   
    376. D(N   6,C   5,C   4,H  55)    149.0603         0.010812   
    377. D(C   5,N   6,C   2,C   3)    -18.5633         0.013239   
    378. D(C   7,N   6,C   5,H  57)    -63.4316         0.013774   
    379. D(C   7,N   6,C   5,H  56)     56.2171         0.013774   
    380. D(C   7,N   6,C   5,C   4)    177.3322         0.013774   
    381. D(C   2,N   6,C   5,H  57)    114.2216         0.013774   
    382. D(C   2,N   6,C   5,H  56)   -126.1297         0.013774   
    383. D(C   7,N   6,C   2,H  51)     38.0198         0.013239   
    384. D(C   2,N   6,C   5,C   4)     -5.0146         0.013774   
    385. D(C   7,N   6,C   2,C   3)    159.1830         0.013239   
    386. D(C   5,N   6,C   2,C   1)    100.7395         0.013239   
    387. D(C   7,N   6,C   2,C   1)    -81.5141         0.013239   
    388. D(C   5,N   6,C   2,H  51)   -139.7265         0.013239   
    389. D(C  24,C   7,N   6,C   5)      3.6031         0.035039   
    390. D(C  24,C   7,N   6,C   2)   -173.8074         0.035039   
    391. D(O   8,C   7,N   6,C   5)   -178.5224         0.035039   
    392. D(O   8,C   7,N   6,C   2)      4.0671         0.035039   
    393. D(H  58,N   9,C   1,O   0)   -179.4130         0.032978   
    394. D(C  10,N   9,C   1,C   2)   -164.7460         0.032978   
    395. D(H  58,N   9,C   1,C   2)      2.6848         0.032978   
    396. D(C  10,N   9,C   1,O   0)     13.1563         0.032978   
    397. D(H  59,C  10,N   9,C   1)    -69.8535         0.015946   
    398. D(C  48,C  10,N   9,H  58)   -117.4106         0.015946   
    399. D(C  48,C  10,N   9,C   1)     49.4696         0.015946   
    400. D(C  11,C  10,N   9,C   1)    174.3872         0.015946   
    401. D(H  59,C  10,N   9,H  58)    123.2663         0.015946   
    402. D(C  11,C  10,N   9,H  58)      7.5069         0.015946   
    403. D(O  47,C  11,C  10,N   9)    145.7217         0.010149   
    404. D(N  12,C  11,C  10,H  59)   -158.0266         0.010149   
    405. D(N  12,C  11,C  10,C  48)     86.1127         0.010149   
    406. D(N  12,C  11,C  10,N   9)    -39.4540         0.010149   
    407. D(O  47,C  11,C  10,H  59)     27.1490         0.010149   
    408. D(O  47,C  11,C  10,C  48)    -88.7116         0.010149   
    409. D(H  60,N  12,C  11,O  47)   -171.2657         0.028661   
    410. D(H  60,N  12,C  11,C  10)     13.9991         0.028661   
    411. D(C  13,N  12,C  11,O  47)     -7.1507         0.028661   
    412. D(C  13,N  12,C  11,C  10)    178.1141         0.028661   
    413. D(H  61,C  13,N  12,C  11)    174.5768         0.015431   
    414. D(H  61,C  13,N  12,H  60)    -20.6773         0.015431   
    415. D(C  45,C  13,N  12,H  60)     98.1983         0.015431   
    416. D(C  45,C  13,N  12,C  11)    -66.5476         0.015431   
    417. D(C  14,C  13,N  12,C  11)     61.9347         0.015431   
    418. D(C  14,C  13,N  12,H  60)   -133.3193         0.015431   
    419. D(O  44,C  14,C  13,C  45)    -25.3705         0.009956   
    420. D(O  44,C  14,C  13,N  12)   -154.7696         0.009956   
    421. D(N  15,C  14,C  13,H  61)    -82.7314         0.009956   
    422. D(N  15,C  14,C  13,C  45)    160.3131         0.009956   
    423. D(O  44,C  14,C  13,H  61)     91.5850         0.009956   
    424. D(N  15,C  14,C  13,N  12)     30.9140         0.009956   
    425. D(H  62,N  15,C  14,O  44)    176.0916         0.032561   
    426. D(H  62,N  15,C  14,C  13)     -9.7222         0.032561   
    427. D(C  16,N  15,C  14,O  44)      8.9019         0.032561   
    428. D(C  16,N  15,C  14,C  13)   -176.9119         0.032561   
    429. D(H  64,C  16,N  15,H  62)   -117.6344         0.016234   
    430. D(H  64,C  16,N  15,C  14)     49.2972         0.016234   
    431. D(H  63,C  16,N  15,H  62)     -0.6521         0.016234   
    432. D(H  63,C  16,N  15,C  14)    166.2795         0.016234   
    433. D(C  17,C  16,N  15,C  14)    -71.9633         0.016234   
    434. D(C  17,C  16,N  15,H  62)    121.1051         0.016234   
    435. D(H  65,C  17,C  16,H  64)     70.0770         0.010332   
    436. D(H  65,C  17,C  16,H  63)    -47.2966         0.010332   
    437. D(H  65,C  17,C  16,N  15)   -167.6770         0.010332   
    438. D(O  43,C  17,C  16,H  64)    -45.7071         0.010332   
    439. D(O  43,C  17,C  16,H  63)   -163.0808         0.010332   
    440. D(O  43,C  17,C  16,N  15)     76.5389         0.010332   
    441. D(C  18,C  17,C  16,H  64)   -176.4065         0.010332   
    442. D(C  18,C  17,C  16,H  63)     66.2198         0.010332   
    443. D(C  18,C  17,C  16,N  15)    -54.1605         0.010332   
    444. D(H  66,C  18,C  17,H  65)     58.4012         0.008930   
    445. D(H  66,C  18,C  17,O  43)    175.0841         0.008930   
    446. D(H  66,C  18,C  17,C  16)    -55.6410         0.008930   
    447. D(C  32,C  18,C  17,O  43)     61.3432         0.008930   
    448. D(C  32,C  18,C  17,C  16)   -169.3819         0.008930   
    449. D(C  32,C  18,C  17,H  65)    -55.3397         0.008930   
    450. D(C  19,C  18,C  17,H  65)    179.7295         0.008930   
    451. D(C  19,C  18,C  17,O  43)    -63.5875         0.008930   
    452. D(C  19,C  18,C  17,C  16)     65.6874         0.008930   
    453. D(O  31,C  19,C  18,H  66)    169.1894         0.010479   
    454. D(O  31,C  19,C  18,C  32)    -78.1023         0.010479   
    455. D(O  31,C  19,C  18,C  17)     49.0755         0.010479   
    456. D(N  20,C  19,C  18,H  66)    -16.7281         0.010479   
    457. D(N  20,C  19,C  18,C  17)   -136.8420         0.010479   
    458. D(N  20,C  19,C  18,C  32)     95.9802         0.010479   
    459. D(H  67,N  20,C  19,O  31)   -175.0147         0.029927   
    460. D(H  67,N  20,C  19,C  18)     10.7492         0.029927   
    461. D(C  21,N  20,C  19,O  31)     -3.0845         0.029927   
    462. D(C  21,N  20,C  19,C  18)   -177.3206         0.029927   
    463. D(H  68,C  21,N  20,H  67)    160.0488         0.017521   
    464. D(H  68,C  21,N  20,C  19)    -12.2037         0.017521   
    465. D(C  27,C  21,N  20,H  67)    -78.8051         0.017521   
    466. D(C  27,C  21,N  20,C  19)    108.9424         0.017521   
    467. D(C  22,C  21,N  20,H  67)     40.6353         0.017521   
    468. D(C  22,C  21,N  20,C  19)   -131.6172         0.017521   
    469. D(N  23,C  22,C  21,C  27)    -83.4577         0.010293   
    470. D(N  23,C  22,C  21,N  20)    153.3660         0.010293   
    471. D(O  26,C  22,C  21,H  68)   -148.0885         0.010293   
    472. D(O  26,C  22,C  21,C  27)     91.7254         0.010293   
    473. D(O  26,C  22,C  21,N  20)    -31.4510         0.010293   
    474. D(N  23,C  22,C  21,H  68)     36.7285         0.010293   
    475. D(H  69,N  23,C  22,O  26)    170.2788         0.030584   
    476. D(H  69,N  23,C  22,C  21)    -14.6043         0.030584   
    477. D(C  24,N  23,C  22,O  26)     -3.8526         0.030584   
    478. D(C  24,N  23,C  22,C  21)    171.2643         0.030584   
    479. D(H  70,C  24,N  23,H  69)    169.5606         0.017305   
    480. D(H  70,C  24,N  23,C  22)    -16.2484         0.017305   
    481. D(C  25,C  24,N  23,H  69)     49.6536         0.017305   
    482. D(C  25,C  24,N  23,C  22)   -136.1553         0.017305   
    483. D(C   7,C  24,N  23,H  69)    -71.6125         0.017305   
    484. D(C   7,C  24,N  23,C  22)    102.5786         0.017305   
    485. D(H  70,C  24,C   7,O   8)    145.5679         0.010100   
    486. D(H  70,C  24,C   7,N   6)    -36.4829         0.010100   
    487. D(C  25,C  24,C   7,O   8)    -92.3343         0.010100   
    488. D(C  25,C  24,C   7,N   6)     85.6149         0.010100   
    489. D(N  23,C  24,C   7,O   8)     29.3715         0.010100   
    490. D(N  23,C  24,C   7,N   6)   -152.6792         0.010100   
    491. D(H  73,C  25,C  24,H  70)   -177.8136         0.010747   
    492. D(H  73,C  25,C  24,N  23)    -61.0370         0.010747   
    493. D(H  73,C  25,C  24,C   7)     60.6017         0.010747   
    494. D(H  72,C  25,C  24,H  70)     62.6309         0.010747   
    495. D(H  72,C  25,C  24,N  23)    179.4075         0.010747   
    496. D(H  72,C  25,C  24,C   7)    -58.9538         0.010747   
    497. D(H  71,C  25,C  24,H  70)    -57.6743         0.010747   
    498. D(H  71,C  25,C  24,N  23)     59.1023         0.010747   
    499. D(H  71,C  25,C  24,C   7)   -179.2590         0.010747   
    500. D(H  75,C  27,C  21,H  68)    165.6101         0.009613   
    501. D(H  75,C  27,C  21,C  22)    -73.6583         0.009613   
    502. D(H  75,C  27,C  21,N  20)     46.4561         0.009613   
    503. D(H  74,C  27,C  21,H  68)    -80.1634         0.009613   
    504. D(H  74,C  27,C  21,C  22)     40.5682         0.009613   
    505. D(H  74,C  27,C  21,N  20)    160.6825         0.009613   
    506. D(C  28,C  27,C  21,H  68)     41.0774         0.009613   
    507. D(C  28,C  27,C  21,C  22)    161.8090         0.009613   
    508. D(C  28,C  27,C  21,N  20)    -78.0767         0.009613   
    509. D(H  76,C  28,C  27,H  75)     61.4988         0.010316   
    510. D(H  76,C  28,C  27,H  74)    -54.1067         0.010316   
    511. D(H  76,C  28,C  27,C  21)   -175.2001         0.010316   
    512. D(C  30,C  28,C  27,H  75)    177.6589         0.010316   
    513. D(C  30,C  28,C  27,H  74)     62.0534         0.010316   
    514. D(C  30,C  28,C  27,C  21)    -59.0400         0.010316   
    515. D(C  29,C  28,C  27,H  75)    -55.4813         0.010316   
    516. D(C  29,C  28,C  27,H  74)   -171.0869         0.010316   
    517. D(C  29,C  28,C  27,C  21)     67.8198         0.010316   
    518. D(H  79,C  29,C  28,C  30)     51.4124         0.010963   
    519. D(H  79,C  29,C  28,C  27)    -76.0848         0.010963   
    520. D(H  78,C  29,C  28,H  76)     50.3066         0.010963   
    521. D(H  78,C  29,C  28,C  30)    -66.9893         0.010963   
    522. D(H  78,C  29,C  28,C  27)    165.5135         0.010963   
    523. D(H  77,C  29,C  28,H  76)    -69.8790         0.010963   
    524. D(H  77,C  29,C  28,C  30)    172.8250         0.010963   
    525. D(H  79,C  29,C  28,H  76)    168.7083         0.010963   
    526. D(H  77,C  29,C  28,C  27)     45.3278         0.010963   
    527. D(H  82,C  30,C  28,H  76)     61.8520         0.010931   
    528. D(H  82,C  30,C  28,C  29)    178.9952         0.010931   
    529. D(H  82,C  30,C  28,C  27)    -52.2913         0.010931   
    530. D(H  81,C  30,C  28,H  76)    -58.2092         0.010931   
    531. D(H  81,C  30,C  28,C  29)     58.9340         0.010931   
    532. D(H  81,C  30,C  28,C  27)   -172.3524         0.010931   
    533. D(H  80,C  30,C  28,H  76)   -176.7135         0.010931   
    534. D(H  80,C  30,C  28,C  29)    -59.5703         0.010931   
    535. D(H  80,C  30,C  28,C  27)     69.1432         0.010931   
    536. D(O  42,C  32,C  18,H  66)      4.0063         0.009377   
    537. D(O  42,C  32,C  18,C  19)   -111.7923         0.009377   
    538. D(O  42,C  32,C  18,C  17)    119.2209         0.009377   
    539. D(C  33,C  32,C  18,H  66)   -177.6206         0.009377   
    540. D(C  33,C  32,C  18,C  19)     66.5809         0.009377   
    541. D(C  33,C  32,C  18,C  17)    -62.4059         0.009377   
    542. D(H  84,C  33,C  32,O  42)    143.7189         0.012450   
    543. D(H  84,C  33,C  32,C  18)    -34.5751         0.012450   
    544. D(H  83,C  33,C  32,O  42)   -106.2684         0.012450   
    545. D(H  83,C  33,C  32,C  18)     75.4376         0.012450   
    546. D(C  34,C  33,C  32,O  42)     18.9731         0.012450   
    547. D(C  34,C  33,C  32,C  18)   -159.3209         0.012450   
    548. D(H  86,C  34,C  33,H  84)    163.9484         0.011325   
    549. D(H  86,C  34,C  33,H  83)     48.9908         0.011325   
    550. D(H  86,C  34,C  33,C  32)    -73.3726         0.011325   
    551. D(H  85,C  34,C  33,H  84)    -80.3134         0.011325   
    552. D(H  85,C  34,C  33,H  83)    164.7289         0.011325   
    553. D(H  85,C  34,C  33,C  32)     42.3655         0.011325   
    554. D(C  35,C  34,C  33,H  84)     40.1483         0.011325   
    555. D(C  35,C  34,C  33,H  83)    -74.8094         0.011325   
    556. D(C  35,C  34,C  33,C  32)    162.8272         0.011325   
    557. D(H  88,C  35,C  34,H  86)   -173.1513         0.011228   
    558. D(H  88,C  35,C  34,H  85)     70.7333         0.011228   
    559. D(H  88,C  35,C  34,C  33)    -49.5370         0.011228   
    560. D(H  87,C  35,C  34,H  86)    -58.3385         0.011228   
    561. D(H  87,C  35,C  34,H  85)   -174.4540         0.011228   
    562. D(H  87,C  35,C  34,C  33)     65.2758         0.011228   
    563. D(C  36,C  35,C  34,H  86)     64.7155         0.011228   
    564. D(C  36,C  35,C  34,H  85)    -51.3999         0.011228   
    565. D(C  36,C  35,C  34,C  33)   -171.6702         0.011228   
    566. D(H  90,C  36,C  35,H  87)     59.4013         0.010987   
    567. D(H  90,C  36,C  35,C  34)    -64.0628         0.010987   
    568. D(H  89,C  36,C  35,H  88)    -70.5851         0.010987   
    569. D(H  89,C  36,C  35,H  87)    174.0696         0.010987   
    570. D(H  89,C  36,C  35,C  34)     50.6056         0.010987   
    571. D(C  37,C  36,C  35,H  88)     52.0100         0.010987   
    572. D(C  37,C  36,C  35,H  87)    -63.3353         0.010987   
    573. D(H  90,C  36,C  35,H  88)    174.7465         0.010987   
    574. D(C  37,C  36,C  35,C  34)    173.2007         0.010987   
    575. D(H  92,C  37,C  36,H  90)    -88.1268         0.010358   
    576. D(H  92,C  37,C  36,H  89)    156.5403         0.010358   
    577. D(H  92,C  37,C  36,C  35)     33.9824         0.010358   
    578. D(H  91,C  37,C  36,H  90)     26.9174         0.010358   
    579. D(H  91,C  37,C  36,H  89)    -88.4155         0.010358   
    580. D(H  91,C  37,C  36,C  35)    149.0265         0.010358   
    581. D(C  38,C  37,C  36,H  90)    147.5922         0.010358   
    582. D(C  38,C  37,C  36,H  89)     32.2593         0.010358   
    583. D(C  38,C  37,C  36,C  35)    -90.2987         0.010358   
    584. D(H  94,C  38,C  37,H  92)     58.4715         0.010448   
    585. D(H  94,C  38,C  37,H  91)    -55.9718         0.010448   
    586. D(H  94,C  38,C  37,C  36)   -177.7310         0.010448   
    587. D(H  93,C  38,C  37,H  92)    173.0341         0.010448   
    588. D(H  93,C  38,C  37,H  91)     58.5908         0.010448   
    589. D(H  93,C  38,C  37,C  36)    -63.1684         0.010448   
    590. D(C  39,C  38,C  37,H  92)    -64.6878         0.010448   
    591. D(C  39,C  38,C  37,H  91)   -179.1311         0.010448   
    592. D(C  39,C  38,C  37,C  36)     59.1097         0.010448   
    593. D(H  95,C  39,C  38,H  94)    177.5171         0.010766   
    594. D(H  95,C  39,C  38,H  93)     62.6253         0.010766   
    595. D(H  95,C  39,C  38,C  37)    -59.4383         0.010766   
    596. D(C  40,C  39,C  38,H  94)    -59.1555         0.010766   
    597. D(C  40,C  39,C  38,H  93)   -174.0474         0.010766   
    598. D(C  40,C  39,C  38,C  37)     63.8890         0.010766   
    599. D(H  96,C  39,C  38,H  94)     62.7499         0.010766   
    600. D(H  96,C  39,C  38,H  93)    -52.1420         0.010766   
    601. D(H  96,C  39,C  38,C  37)   -174.2055         0.010766   
    602. D(H  98,C  40,C  39,H  95)     70.6995         0.011022   
    603. D(H  98,C  40,C  39,C  38)    -52.8020         0.011022   
    604. D(H  97,C  40,C  39,H  96)    -59.1424         0.011022   
    605. D(H  97,C  40,C  39,H  95)   -173.7316         0.011022   
    606. D(H  97,C  40,C  39,C  38)     62.7669         0.011022   
    607. D(C  41,C  40,C  39,H  96)     63.4562         0.011022   
    608. D(C  41,C  40,C  39,H  95)    -51.1330         0.011022   
    609. D(H  98,C  40,C  39,H  96)   -174.7113         0.011022   
    610. D(C  41,C  40,C  39,C  38)   -174.6345         0.011022   
    611. D(H 101,C  41,C  40,H  98)    -60.2332         0.011187   
    612. D(H 101,C  41,C  40,H  97)   -175.9768         0.011187   
    613. D(H 101,C  41,C  40,C  39)     62.0292         0.011187   
    614. D(H 100,C  41,C  40,H  98)   -179.9297         0.011187   
    615. D(H 100,C  41,C  40,H  97)     64.3267         0.011187   
    616. D(H 100,C  41,C  40,C  39)    -57.6673         0.011187   
    617. D(H  99,C  41,C  40,H  98)     59.6437         0.011187   
    618. D(H  99,C  41,C  40,H  97)    -56.1000         0.011187   
    619. D(H  99,C  41,C  40,C  39)   -178.0940         0.011187   
    620. D(H 102,O  43,C  17,H  65)   -151.0027         0.021926   
    621. D(H 102,O  43,C  17,C  18)     93.0264         0.021926   
    622. D(H 102,O  43,C  17,C  16)    -35.4699         0.021926   
    623. D(H 104,C  45,C  13,H  61)    179.4408         0.010945   
    624. D(H 104,C  45,C  13,C  14)    -66.2533         0.010945   
    625. D(H 104,C  45,C  13,N  12)     62.1439         0.010945   
    626. D(H 103,C  45,C  13,H  61)    -65.7195         0.010945   
    627. D(H 103,C  45,C  13,C  14)     48.5864         0.010945   
    628. D(H 103,C  45,C  13,N  12)    176.9836         0.010945   
    629. D(C  46,C  45,C  13,H  61)     56.3737         0.010945   
    630. D(C  46,C  45,C  13,C  14)    170.6797         0.010945   
    631. D(C  46,C  45,C  13,N  12)    -60.9231         0.010945   
    632. D(H 107,C  46,C  45,H 104)    -61.0885         0.011361   
    633. D(H 107,C  46,C  45,H 103)   -179.6458         0.011361   
    634. D(H 107,C  46,C  45,C  13)     60.5182         0.011361   
    635. D(H 106,C  46,C  45,H 104)    178.6828         0.011361   
    636. D(H 106,C  46,C  45,H 103)     60.1255         0.011361   
    637. D(H 106,C  46,C  45,C  13)    -59.7105         0.011361   
    638. D(H 105,C  46,C  45,H 104)     58.8452         0.011361   
    639. D(H 105,C  46,C  45,H 103)    -59.7121         0.011361   
    640. D(H 105,C  46,C  45,C  13)   -179.5481         0.011361   
    641. D(H 108,C  48,C  10,H  59)     56.7915         0.008899   
    642. D(H 108,C  48,C  10,C  11)    171.2689         0.008899   
    643. D(H 108,C  48,C  10,N   9)    -63.9064         0.008899   
    644. D(C  50,C  48,C  10,H  59)    173.3814         0.008899   
    645. D(C  50,C  48,C  10,C  11)    -72.1412         0.008899   
    646. D(C  50,C  48,C  10,N   9)     52.6836         0.008899   
    647. D(C  49,C  48,C  10,H  59)    -59.5435         0.008899   
    648. D(C  49,C  48,C  10,C  11)     54.9338         0.008899   
    649. D(C  49,C  48,C  10,N   9)    179.7586         0.008899   
    650. D(H 111,C  49,C  48,C  50)     60.5664         0.011085   
    651. D(H 111,C  49,C  48,C  10)    -67.2977         0.011085   
    652. D(H 110,C  49,C  48,H 108)     58.5341         0.011085   
    653. D(H 110,C  49,C  48,C  50)    -59.6753         0.011085   
    654. D(H 110,C  49,C  48,C  10)    172.4605         0.011085   
    655. D(H 109,C  49,C  48,H 108)    -61.4915         0.011085   
    656. D(H 109,C  49,C  48,C  50)   -179.7010         0.011085   
    657. D(H 111,C  49,C  48,H 108)    178.7759         0.011085   
    658. D(H 109,C  49,C  48,C  10)     52.4348         0.011085   
    659. D(H 114,C  50,C  48,H 108)    -59.2298         0.011174   
    660. D(H 114,C  50,C  48,C  49)     59.3497         0.011174   
    661. D(H 114,C  50,C  48,C  10)   -173.8805         0.011174   
    662. D(H 113,C  50,C  48,H 108)   -178.9265         0.011174   
    663. D(H 113,C  50,C  48,C  49)    -60.3471         0.011174   
    664. D(H 113,C  50,C  48,C  10)     66.4228         0.011174   
    665. D(H 112,C  50,C  48,H 108)     60.2756         0.011174   
    666. D(H 112,C  50,C  48,C  49)    178.8550         0.011174   
    667. D(H 112,C  50,C  48,C  10)    -54.3751         0.011174   
    -----------------------------------------------------------------

Number of atoms                         .... 115
Number of degrees of freedom            .... 667

         *************************************************************
         *                GEOMETRY OPTIMIZATION CYCLE   1            *
         *************************************************************
---------------------------------
CARTESIAN COORDINATES (ANGSTROEM)
---------------------------------
  O      7.235595   -0.969501    2.332316
  C      6.529665   -0.036939    1.951407
  C      6.306248    1.243040    2.810978
  C      7.091876    1.192898    4.118064
  C      6.173785    0.380219    5.043669
  C      4.761843    0.854542    4.675227
  N      4.894651    1.302625    3.270693
  C      3.897304    1.760906    2.489482
  O      4.069010    2.100324    1.298337
  N      5.829345   -0.000381    0.792199
  C      5.571694   -1.150345   -0.069913
  C      4.632665   -0.771434   -1.222340
  N      3.593331    0.077140   -0.933184
  C      2.673549    0.522888   -1.982193
  C      1.909943   -0.651780   -2.614014
  N      1.667867   -1.696701   -1.783702
  C      1.016043   -2.927063   -2.215301
  C     -0.492658   -2.794233   -2.499691
  C     -1.241379   -2.187663   -1.269434
  C     -0.880580   -0.743071   -0.920063
  N     -0.718997   -0.531796    0.420879
  C     -0.431360    0.771833    0.980241
  C      0.741591    0.637296    1.956553
  N      1.477484    1.775102    2.115380
  C      2.508197    1.909264    3.125095
  C      2.401778    3.274479    3.819257
  O      0.936068   -0.390281    2.607953
  C     -1.621286    1.385259    1.764720
  C     -2.761849    2.015660    0.941858
  C     -3.582008    1.007760    0.129685
  C     -2.261266    3.154680    0.046596
  O     -0.845554    0.181993   -1.736737
  C     -2.778277   -2.278755   -1.407883
  C     -3.415995   -1.536603   -2.550942
  C     -4.904394   -1.246947   -2.365114
  C     -5.378423   -0.155505   -3.325119
  C     -6.807860    0.325809   -3.056415
  C     -7.240736    1.535940   -3.905982
  C     -6.952411    2.908574   -3.271632
  C     -5.483951    3.212860   -2.944140
  C     -4.558928    3.284235   -4.162738
  C     -3.088294    3.458900   -3.780730
  O     -3.412217   -2.915419   -0.578850
  O     -0.755405   -2.165592   -3.730758
  O      1.462748   -0.581134   -3.762548
  C      3.326107    1.421734   -3.038174
  C      3.889898    2.707561   -2.437200
  O      4.761782   -1.292193   -2.328469
  C      5.017470   -2.375304    0.727575
  C      4.749784   -3.565265   -0.197400
  C      3.798371   -2.036620    1.587112
  H      6.510727    2.133797    2.199898
  H      7.243394    2.211917    4.502785
  H      8.065671    0.712794    3.972267
  H      6.287259   -0.687274    4.814798
  H      6.388102    0.531265    6.108594
  H      4.011854    0.055936    4.757268
  H      4.443113    1.696965    5.308703
  H      5.303867    0.867180    0.640455
  H      6.506610   -1.468968   -0.553686
  H      3.575725    0.600642   -0.057557
  H      1.890136    1.104688   -1.464597
  H      2.135214   -1.680652   -0.882574
  H      1.176043   -3.670522   -1.422602
  H      1.498594   -3.296103   -3.134019
  H     -0.876610   -3.827435   -2.589676
  H     -1.007948   -2.832577   -0.407822
  H     -0.676435   -1.316816    1.065861
  H     -0.163633    1.422409    0.133706
  H      1.364253    2.531974    1.447751
  H      2.333273    1.093403    3.839102
  H      1.415262    3.382645    4.287726
  H      3.170445    3.387222    4.595137
  H      2.539732    4.084869    3.089028
  H     -1.211764    2.169190    2.423027
  H     -2.023080    0.600620    2.425678
  H     -3.435143    2.455838    1.699192
  H     -3.845435    0.118691    0.719600
  H     -4.516149    1.471483   -0.218544
  H     -3.030357    0.683962   -0.761334
  H     -1.629049    2.768646   -0.766949
  H     -3.105362    3.676303   -0.425606
  H     -1.684049    3.898587    0.618179
  H     -3.211623   -2.117423   -3.467575
  H     -2.840079   -0.611490   -2.713392
  H     -5.078134   -0.919249   -1.327914
  H     -5.497303   -2.165980   -2.489502
  H     -5.302653   -0.509657   -4.367986
  H     -4.680310    0.692017   -3.249227
  H     -6.909302    0.578900   -1.985536
  H     -7.498812   -0.515473   -3.230172
  H     -8.325195    1.481567   -4.091389
  H     -6.766781    1.469960   -4.899815
  H     -7.541835    2.986861   -2.341912
  H     -7.338113    3.695126   -3.943287
  H     -5.098256    2.458726   -2.237666
  H     -5.433172    4.174203   -2.404059
  H     -4.883167    4.115567   -4.811939
  H     -4.667013    2.369946   -4.767389
  H     -2.445648    3.541600   -4.668672
  H     -2.939737    4.364733   -3.172535
  H     -2.728314    2.601673   -3.191955
  H     -0.056958   -1.472186   -3.866259
  H      2.558773    1.643099   -3.791791
  H      4.112037    0.846680   -3.546251
  H      4.343560    3.335004   -3.216511
  H      3.102648    3.300800   -1.946132
  H      4.664729    2.501658   -1.684536
  H      5.837127   -2.648411    1.408486
  H      5.629643   -3.807896   -0.808647
  H      4.490976   -4.451426    0.399188
  H      3.922507   -3.367087   -0.893949
  H      3.992317   -1.196131    2.266856
  H      2.913752   -1.766724    0.991553
  H      3.518471   -2.900108    2.205629

----------------------------
CARTESIAN COORDINATES (A.U.)
----------------------------
  NO LB      ZA    FRAG     MASS         X           Y           Z
   0 O     8.0000    0    15.999   13.673294   -1.832091    4.407438
   1 C     6.0000    0    12.011   12.339278   -0.069805    3.687624
   2 C     6.0000    0    12.011   11.917081    2.349006    5.311979
   3 C     6.0000    0    12.011   13.401704    2.254251    7.782012
   4 C     6.0000    0    12.011   11.666764    0.718509    9.531153
   5 C     6.0000    0    12.011    8.998579    1.614850    8.834899
   6 N     7.0000    0    14.007    9.249549    2.461605    6.180714
   7 C     6.0000    0    12.011    7.364837    3.327630    4.704439
   8 O     8.0000    0    15.999    7.689315    3.969038    2.453501
   9 N     7.0000    0    14.007   11.015866   -0.000720    1.497040
  10 C     6.0000    0    12.011   10.528976   -2.173836   -0.132117
  11 C     6.0000    0    12.011    8.754467   -1.457798   -2.309888
  12 N     7.0000    0    14.007    6.790411    0.145773   -1.763462
  13 C     6.0000    0    12.011    5.052276    0.988115   -3.745801
  14 C     6.0000    0    12.011    3.609269   -1.231685   -4.939770
  15 N     7.0000    0    14.007    3.151812   -3.206300   -3.370708
  16 C     6.0000    0    12.011    1.920043   -5.531347   -4.186312
  17 C     6.0000    0    12.011   -0.930988   -5.280335   -4.723731
  18 C     6.0000    0    12.011   -2.345866   -4.134085   -2.398882
  19 C     6.0000    0    12.011   -1.664055   -1.404200   -1.738666
  20 N     7.0000    0    14.007   -1.358707   -1.004949    0.795346
  21 C     6.0000    0    12.011   -0.815152    1.458553    1.852386
  22 C     6.0000    0    12.011    1.401404    1.204315    3.697349
  23 N     7.0000    0    14.007    2.792041    3.354457    3.997490
  24 C     6.0000    0    12.011    4.739806    3.607985    5.905573
  25 C     6.0000    0    12.011    4.538703    6.187869    7.217349
  26 O     8.0000    0    15.999    1.768913   -0.737524    4.928317
  27 C     6.0000    0    12.011   -3.063787    2.617760    3.334837
  28 C     6.0000    0    12.011   -5.219138    3.809046    1.779854
  29 C     6.0000    0    12.011   -6.769014    1.904390    0.245069
  30 C     6.0000    0    12.011   -4.273173    5.961481    0.088054
  31 O     8.0000    0    15.999   -1.597866    0.343916   -3.281958
  32 C     6.0000    0    12.011   -5.250183   -4.306223   -2.660513
  33 C     6.0000    0    12.011   -6.455296   -2.903759   -4.820583
  34 C     6.0000    0    12.011   -9.267961   -2.356389   -4.469418
  35 C     6.0000    0    12.011  -10.163746   -0.293862   -6.283564
  36 C     6.0000    0    12.011  -12.864990    0.615690   -5.775787
  37 C     6.0000    0    12.011  -13.683008    2.902506   -7.381236
  38 C     6.0000    0    12.011  -13.138152    5.496409   -6.182489
  39 C     6.0000    0    12.011  -10.363165    6.071426   -5.563618
  40 C     6.0000    0    12.011   -8.615125    6.206304   -7.866435
  41 C     6.0000    0    12.011   -5.836030    6.536374   -7.144544
  42 O     8.0000    0    15.999   -6.448156   -5.509344   -1.093869
  43 O     8.0000    0    15.999   -1.427508   -4.092376   -7.050110
  44 O     8.0000    0    15.999    2.764193   -1.098184   -7.110186
  45 C     6.0000    0    12.011    6.285431    2.686688   -5.741318
  46 C     6.0000    0    12.011    7.350843    5.116549   -4.605641
  47 O     8.0000    0    15.999    8.998464   -2.441890   -4.400168
  48 C     6.0000    0    12.011    9.481645   -4.488675    1.374917
  49 C     6.0000    0    12.011    8.975790   -6.737375   -0.373032
  50 C     6.0000    0    12.011    7.177881   -3.848654    2.999208
  51 H     1.0000    0     1.008   12.303490    4.032291    4.157204
  52 H     1.0000    0     1.008   13.688031    4.179918    8.509030
  53 H     1.0000    0     1.008   15.241909    1.346985    7.506497
  54 H     1.0000    0     1.008   11.881197   -1.298760    9.098649
  55 H     1.0000    0     1.008   12.071763    1.003945   11.543570
  56 H     1.0000    0     1.008    7.581305    0.105703    8.989933
  57 H     1.0000    0     1.008    8.396267    3.206799   10.031994
  58 H     1.0000    0     1.008   10.022855    1.638733    1.210284
  59 H     1.0000    0     1.008   12.295710   -2.775947   -1.046314
  60 H     1.0000    0     1.008    6.757141    1.135048   -0.108768
  61 H     1.0000    0     1.008    3.571839    2.087559   -2.767688
  62 H     1.0000    0     1.008    4.034970   -3.175971   -1.667823
  63 H     1.0000    0     1.008    2.222399   -6.936281   -2.688329
  64 H     1.0000    0     1.008    2.831933   -6.228732   -5.922438
  65 H     1.0000    0     1.008   -1.656553   -7.232805   -4.893779
  66 H     1.0000    0     1.008   -1.904745   -5.352795   -0.770672
  67 H     1.0000    0     1.008   -1.278277   -2.488421    2.014185
  68 H     1.0000    0     1.008   -0.309222    2.687963    0.252668
  69 H     1.0000    0     1.008    2.578064    4.784738    2.735852
  70 H     1.0000    0     1.008    4.409247    2.066232    7.254852
  71 H     1.0000    0     1.008    2.674457    6.392272    8.102629
  72 H     1.0000    0     1.008    5.991273    6.400923    8.683551
  73 H     1.0000    0     1.008    4.799398    7.719283    5.837416
  74 H     1.0000    0     1.008   -2.289901    4.099175    4.578857
  75 H     1.0000    0     1.008   -3.823068    1.135007    4.583867
  76 H     1.0000    0     1.008   -6.491480    4.640861    3.211008
  77 H     1.0000    0     1.008   -7.266820    0.224294    1.359847
  78 H     1.0000    0     1.008   -8.534284    2.780700   -0.412988
  79 H     1.0000    0     1.008   -5.726545    1.292500   -1.438713
  80 H     1.0000    0     1.008   -3.078457    5.231982   -1.449324
  81 H     1.0000    0     1.008   -5.868284    6.947206   -0.804279
  82 H     1.0000    0     1.008   -3.182391    7.367261    1.168189
  83 H     1.0000    0     1.008   -6.069088   -4.001350   -6.552767
  84 H     1.0000    0     1.008   -5.366972   -1.155548   -5.127568
  85 H     1.0000    0     1.008   -9.596283   -1.737129   -2.509394
  86 H     1.0000    0     1.008  -10.388398   -4.093109   -4.704477
  87 H     1.0000    0     1.008  -10.020562   -0.963112   -8.254298
  88 H     1.0000    0     1.008   -8.844505    1.307722   -6.140148
  89 H     1.0000    0     1.008  -13.056688    1.093963   -3.752120
  90 H     1.0000    0     1.008  -14.170701   -0.974102   -6.104140
  91 H     1.0000    0     1.008  -15.732338    2.799756   -7.731604
  92 H     1.0000    0     1.008  -12.787363    2.777822   -9.259309
  93 H     1.0000    0     1.008  -14.252003    5.644349   -4.425572
  94 H     1.0000    0     1.008  -13.867024    6.982776   -7.451733
  95 H     1.0000    0     1.008   -9.634308    4.646318   -4.228576
  96 H     1.0000    0     1.008  -10.267207    7.888100   -4.543012
  97 H     1.0000    0     1.008   -9.227849    7.777294   -9.093248
  98 H     1.0000    0     1.008   -8.819376    4.478549   -9.009060
  99 H     1.0000    0     1.008   -4.621604    6.692654   -8.822512
 100 H     1.0000    0     1.008   -5.555297    8.248149   -5.995222
 101 H     1.0000    0     1.008   -5.155767    4.916450   -6.031921
 102 H     1.0000    0     1.008   -0.107635   -2.782028   -7.306171
 103 H     1.0000    0     1.008    4.835380    3.105007   -7.165446
 104 H     1.0000    0     1.008    7.770624    1.599993   -6.701444
 105 H     1.0000    0     1.008    8.208138    6.302243   -6.078325
 106 H     1.0000    0     1.008    5.863156    6.237609   -3.677656
 107 H     1.0000    0     1.008    8.815061    4.727449   -3.183311
 108 H     1.0000    0     1.008   11.030571   -5.004771    2.661652
 109 H     1.0000    0     1.008   10.638483   -7.195881   -1.528120
 110 H     1.0000    0     1.008    8.486714   -8.411975    0.754356
 111 H     1.0000    0     1.008    7.412464   -6.362872   -1.689318
 112 H     1.0000    0     1.008    7.544386   -2.260361    4.283738
 113 H     1.0000    0     1.008    5.506192   -3.338625    1.873764
 114 H     1.0000    0     1.008    6.648948   -5.480409    4.168034

--------------------------------
INTERNAL COORDINATES (ANGSTROEM)
--------------------------------
 O      0   0   0     0.000000000000     0.00000000     0.00000000
 C      1   0   0     1.230081610403     0.00000000     0.00000000
 C      2   1   0     1.557923821533   122.29783147     0.00000000
 C      3   2   1     1.525843349543   111.82683500     1.73291036
 C      4   3   2     1.536256567765   103.05046394   276.37726307
 C      5   4   3     1.534376968727   103.98821032   321.93544294
 N      6   5   4     1.480247515178   103.81917262    26.51114333
 C      7   6   5     1.347224155402   125.92739443   177.33220837
 O      8   7   6     1.250405852291   122.89250756   181.47762032
 N      2   1   3     1.354822952103   125.59534083   182.29994576
 C     10   2   1     1.460150033911   125.10932246    13.15626861
 C     11  10   2     1.534091632007   110.91738785   174.38718273
 N     12  11  10     1.372553561662   117.25483864   320.54599671
 C     13  12  11     1.464618869582   120.85108713   178.11414562
 C     14  13  12     1.536924165187   111.95302962    61.93474379
 N     15  14  13     1.356421118314   115.20146393    30.91399338
 C     16  15  14     1.457718332320   123.28228292   183.08805900
 C     17  16  15     1.541006074309   114.81359643   288.03668315
 C     18  17  16     1.562703562615   110.93106875   305.83949861
 C     19  18  17     1.529406614049   115.68604968    65.68736109
 N     20  19  18     1.367066013919   113.44879418   223.15801736
 C     21  20  19     1.447435277343   122.80250347   182.67935473
 C     22  21  20     1.532024627612   108.62222320   228.38280135
 N     23  22  21     1.364319549188   114.45106959   153.36600728
 C     24  23  22     1.449100084239   122.81857334   171.26426720
 C     25  24  23     1.535252194087   110.36970120   223.84471591
 O     23  22  21     1.232094988605   122.07353755   328.54903995
 C     22  21  20     1.551651802235   113.51849108   108.94243150
 C     28  22  21     1.541230227481   117.34136888   281.92331219
 C     29  28  22     1.532366925786   114.20637359    67.81976376
 C     29  28  22     1.532789809643   111.96875529   300.96003849
 O     20  19  18     1.234474180275   124.28934970    49.07549989
 C     19  18  17     1.545808351926   112.51799857   190.61810149
 C     33  19  18     1.504679023020   117.41000056   297.59409523
 C     34  33  19     1.527665752085   114.45895108   200.67910619
 C     35  34  33     1.528907811931   111.16471809   162.82722435
 C     36  35  34     1.532042455681   113.79248305   188.32983188
 C     37  36  35     1.540637306133   114.34353110   173.20066774
 C     38  37  36     1.539368943457   114.86812901   269.70131774
 C     39  38  37     1.534996710914   116.35053760    59.10973799
 C     40  39  38     1.531582051083   114.66248006    63.88900652
 C     41  40  39     1.529444789033   112.78882611   185.36550563
 O     33  19  18     1.222503909033   119.04664746   119.22094272
 O     18  17  16     1.407036204478   112.50738591    76.53889753
 O     15  14  13     1.234547058611   121.24438259   205.23040549
 C     14  13  12     1.532597165421   113.86576125   293.45242707
 C     46  14  13     1.527213850930   112.32364660   299.07686288
 O     12  11  10     1.229383041312   120.46319036   145.72168097
 C     11  10   2     1.563226471364   112.24047672    49.46964161
 C     49  11  10     1.530764736011   111.27741232   179.75861763
 C     49  11  10     1.529612542054   113.31170945    52.68358107
 H      3   2   1     1.099399009136   109.40991339   129.03205900
 H      4   3   2     1.099712739648   109.88733121   157.77449959
 H      4   3   2     1.095460107028   110.98288924    36.78992209
 H      5   4   3     1.097633413855   109.09051783    79.53042893
 H      5   4   3     1.096728049065   113.29071621   200.41314497
 H      6   5   4     1.098628994736   112.67756387   146.23434968
 H      6   5   4     1.101161522308   111.38964216   268.30470546
 H     10   2   1     1.025581375028   114.47347332   180.58699353
 H     11  10   2     1.099829062397   109.74711760   290.14651112
 H     13  12  11     1.020336092762   120.73438061    13.99914513
 H     14  13  12     1.104596515921   105.66918582   174.57679707
 H     16  15  14     1.015235555932   116.67960748   350.27778101
 H     17  16  15     1.098499762240   107.00478860   166.27949905
 H     17  16  15     1.101403813839   109.50352471    49.29720311
 H     18  17  16     1.105904023210   105.92577429   192.32304559
 H     19  18  17     1.101262020157   106.68303454   304.35903148
 H     21  20  19     1.016891697245   120.51659550    10.74915940
 H     22  21  20     1.100703063551   106.46647413   347.79632905
 H     24  23  22     1.015581871656   119.00321352   345.39573350
 H     25  24  23     1.098195881473   105.72085315   343.75164105
 H     26  25  24     1.097441655714   110.05771708    59.10231085
 H     26  25  24     1.097975798551   111.24104172   179.40752514
 H     26  25  24     1.099543930740   110.26830979   298.96298231
 H     28  22  21     1.102553608676   107.34446462   160.68253302
 H     28  22  21     1.101800077919   107.54237220    46.45606251
 H     29  28  22     1.104824170368   104.35748901   184.79990076
 H     30  29  28     1.099016556615   112.07921608    45.32783828
 H     30  29  28     1.099509721426   110.19287988   165.51351334
 H     30  29  28     1.096849717364   110.82632675   283.91520320
 H     31  29  28     1.100261274202   111.02679824    69.14322132
 H     31  29  28     1.098892278522   110.66218347   187.64755513
 H     31  29  28     1.101491414932   111.71054722   307.70871735
 H     34  33  19     1.104234937420   107.02149897    75.43755645
 H     34  33  19     1.101773429488   107.73489133   325.42488485
 H     35  34  33     1.101524803623   108.94246548    42.36549799
 H     35  34  33     1.100743048536   110.65543210   286.62735922
 H     36  35  34     1.103964036229   110.05137533    65.27578738
 H     36  35  34     1.100642644383   108.04405062   310.46303329
 H     37  36  35     1.105045985771   109.12144024    50.60557825
 H     37  36  35     1.102434303933   108.50510914   295.93723482
 H     38  37  36     1.101536244508   109.30888737   149.02647976
 H     38  37  36     1.103037258531   109.21606198    33.98235405
 H     39  38  37     1.103598947490   108.08187418   296.83163091
 H     39  38  37     1.103879470402   108.61333677   182.26899893
 H     40  39  38     1.102988961015   109.61155427   300.56170537
 H     40  39  38     1.103831964786   108.72579205   185.79445277
 H     41  40  39     1.103497471492   109.01005742    62.76685941
 H     41  40  39     1.101457745485   109.80531036   307.19801522
 H     42  41  40     1.099215948350   111.65329767   181.90604392
 H     42  41  40     1.101137282388   111.20015862   302.33272913
 H     42  41  40     1.100490274349   111.05121661    62.02922482
 H     44  18  17     0.993479008901   107.45079642   324.53014917
 H     46  14  13     1.098062334905   107.07192105   176.98362144
 H     46  14  13     1.098415333010   108.44040281    62.14392054
 H     47  46  14     1.098552478213   110.74285230   180.45189536
 H     47  46  14     1.101291921636   111.41419731   300.28949010
 H     47  46  14     1.099665095364   111.82702762    60.51817126
 H     49  11  10     1.100029054748   104.25020101   296.09364885
 H     50  49  11     1.098473674436   111.58457977    52.43482349
 H     50  49  11     1.099171926118   109.87224293   172.46050188
 H     50  49  11     1.099473448898   111.97944183   292.70225525
 H     51  49  11     1.098220561523   112.11787754   305.62485762
 H     51  49  11     1.100039323012   113.01795519    66.42276018
 H     51  49  11     1.098415802478   110.20949182   186.11953880

---------------------------
INTERNAL COORDINATES (A.U.)
---------------------------
 O      0   0   0     0.000000000000     0.00000000     0.00000000
 C      1   0   0     2.324517366034     0.00000000     0.00000000
 C      2   1   0     2.944049360210   122.29783147     0.00000000
 C      3   2   1     2.883426053901   111.82683500     1.73291036
 C      4   3   2     2.903104184514   103.05046394   276.37726307
 C      5   4   3     2.899552257090   103.98821032   321.93544294
 N      6   5   4     2.797262414104   103.81917262    26.51114333
 C      7   6   5     2.545884694713   125.92739443   177.33220837
 O      8   7   6     2.362924617082   122.89250756   181.47762032
 N      2   1   3     2.560244339425   125.59534083   182.29994576
 C     10   2   1     2.759283678528   125.10932246    13.15626861
 C     11  10   2     2.899013048834   110.91738785   174.38718273
 N     12  11  10     2.593750335679   117.25483864   320.54599671
 C     13  12  11     2.767728554083   120.85108713   178.11414562
 C     14  13  12     2.904365760809   111.95302962    61.93474379
 N     15  14  13     2.563264435881   115.20146393    30.91399338
 C     16  15  14     2.754688428482   123.28228292   183.08805900
 C     17  16  15     2.912079451153   114.81359643   288.03668315
 C     18  17  16     2.953081761846   110.93106875   305.83949861
 C     19  18  17     2.890159647960   115.68604968    65.68736109
 N     20  19  18     2.583380373298   113.44879418   223.15801736
 C     21  20  19     2.735256270755   122.80250347   182.67935473
 C     22  21  20     2.895106976610   108.62222320   228.38280135
 N     23  22  21     2.578190307121   114.45106959   153.36600728
 C     24  23  22     2.738402299854   122.81857334   171.26426720
 C     25  24  23     2.901206193327   110.36970120   223.84471591
 O     23  22  21     2.328322099440   122.07353755   328.54903995
 C     22  21  20     2.932196961430   113.51849108   108.94243150
 C     28  22  21     2.912503039260   117.34136888   281.92331219
 C     29  28  22     2.895753826414   114.20637359    67.81976376
 C     29  28  22     2.896552961091   111.96875529   300.96003849
 O     20  19  18     2.332818120117   124.28934970    49.07549989
 C     19  18  17     2.921154440669   112.51799857   190.61810149
 C     33  19  18     2.843431272965   117.41000056   297.59409523
 C     34  33  19     2.886869895612   114.45895108   200.67910619
 C     35  34  33     2.889217048563   111.16471809   162.82722435
 C     36  35  34     2.895140666778   113.79248305   188.32983188
 C     37  36  35     2.911382580294   114.34353110   173.20066774
 C     38  37  36     2.908985722198   114.86812901   269.70131774
 C     39  38  37     2.900723400098   116.35053760    59.10973799
 C     40  39  38     2.894270628177   114.66248006    63.88900652
 C     41  40  39     2.890231788225   112.78882611   185.36550563
 O     33  19  18     2.310197585721   119.04664746   119.22094272
 O     18  17  16     2.658913086975   112.50738591    76.53889753
 O     15  14  13     2.332955840214   121.24438259   205.23040549
 C     14  13  12     2.896188916270   113.86576125   293.45242707
 C     46  14  13     2.886015926189   112.32364660   299.07686288
 O     12  11  10     2.323197261767   120.46319036   145.72168097
 C     11  10   2     2.954069916173   112.24047672    49.46964161
 C     49  11  10     2.892726126526   111.27741232   179.75861763
 C     49  11  10     2.890548795493   113.31170945    52.68358107
 H      3   2   1     2.077563039171   109.40991339   129.03205900
 H      4   3   2     2.078155903919   109.88733121   157.77449959
 H      4   3   2     2.070119592919   110.98288924    36.78992209
 H      5   4   3     2.074226547628   109.09051783    79.53042893
 H      5   4   3     2.072515656122   113.29071621   200.41314497
 H      6   5   4     2.076107922836   112.67756387   146.23434968
[...]
  (4) All equations used are the standard statistical mechanics
      equations for an ideal gas
  (5) All vibrations are strictly harmonic

freq.      12.95  E(vib)   ...       0.57 
freq.      14.64  E(vib)   ...       0.57 
freq.      19.34  E(vib)   ...       0.57 
freq.      24.29  E(vib)   ...       0.56 
freq.      32.22  E(vib)   ...       0.55 
freq.      33.86  E(vib)   ...       0.55 
freq.      35.03  E(vib)   ...       0.54 
freq.      41.31  E(vib)   ...       0.54 
freq.      45.49  E(vib)   ...       0.53 
freq.      49.78  E(vib)   ...       0.52 
freq.      51.85  E(vib)   ...       0.52 
freq.      54.64  E(vib)   ...       0.52 
freq.      59.50  E(vib)   ...       0.51 
freq.      63.73  E(vib)   ...       0.51 
freq.      65.20  E(vib)   ...       0.50 
freq.      69.36  E(vib)   ...       0.50 
freq.      74.34  E(vib)   ...       0.49 
freq.      76.06  E(vib)   ...       0.49 
freq.      88.84  E(vib)   ...       0.47 
freq.      93.80  E(vib)   ...       0.47 
freq.      98.82  E(vib)   ...       0.46 
freq.     103.11  E(vib)   ...       0.46 
freq.     105.81  E(vib)   ...       0.45 
freq.     110.70  E(vib)   ...       0.45 
freq.     114.37  E(vib)   ...       0.44 
freq.     115.50  E(vib)   ...       0.44 
freq.     123.48  E(vib)   ...       0.43 
freq.     131.17  E(vib)   ...       0.42 
freq.     135.89  E(vib)   ...       0.42 
freq.     146.28  E(vib)   ...       0.41 
freq.     150.31  E(vib)   ...       0.40 
freq.     153.81  E(vib)   ...       0.40 
freq.     156.41  E(vib)   ...       0.40 
freq.     162.41  E(vib)   ...       0.39 
freq.     171.42  E(vib)   ...       0.38 
freq.     173.65  E(vib)   ...       0.38 
freq.     177.75  E(vib)   ...       0.37 
freq.     185.31  E(vib)   ...       0.37 
freq.     188.48  E(vib)   ...       0.36 
freq.     198.55  E(vib)   ...       0.35 
freq.     201.27  E(vib)   ...       0.35 
freq.     208.22  E(vib)   ...       0.34 
freq.     216.85  E(vib)   ...       0.34 
freq.     222.67  E(vib)   ...       0.33 
freq.     224.06  E(vib)   ...       0.33 
freq.     227.25  E(vib)   ...       0.33 
freq.     228.30  E(vib)   ...       0.32 
freq.     229.57  E(vib)   ...       0.32 
freq.     231.45  E(vib)   ...       0.32 
freq.     234.78  E(vib)   ...       0.32 
freq.     245.19  E(vib)   ...       0.31 
freq.     256.97  E(vib)   ...       0.30 
freq.     259.86  E(vib)   ...       0.30 
freq.     260.85  E(vib)   ...       0.30 
freq.     265.78  E(vib)   ...       0.29 
freq.     266.75  E(vib)   ...       0.29 
freq.     276.22  E(vib)   ...       0.28 
freq.     289.17  E(vib)   ...       0.27 
freq.     297.14  E(vib)   ...       0.27 
freq.     301.35  E(vib)   ...       0.26 
freq.     320.53  E(vib)   ...       0.25 
freq.     324.51  E(vib)   ...       0.24 
freq.     331.60  E(vib)   ...       0.24 
freq.     342.81  E(vib)   ...       0.23 
freq.     347.66  E(vib)   ...       0.23 
freq.     352.87  E(vib)   ...       0.22 
freq.     353.48  E(vib)   ...       0.22 
freq.     366.49  E(vib)   ...       0.22 
freq.     369.47  E(vib)   ...       0.21 
freq.     374.31  E(vib)   ...       0.21 
freq.     382.46  E(vib)   ...       0.21 
freq.     389.99  E(vib)   ...       0.20 
freq.     395.59  E(vib)   ...       0.20 
freq.     399.75  E(vib)   ...       0.19 
freq.     418.13  E(vib)   ...       0.18 
freq.     426.21  E(vib)   ...       0.18 
freq.     433.91  E(vib)   ...       0.17 
freq.     448.86  E(vib)   ...       0.17 
freq.     456.65  E(vib)   ...       0.16 
freq.     460.18  E(vib)   ...       0.16 
freq.     473.37  E(vib)   ...       0.15 
freq.     476.87  E(vib)   ...       0.15 
freq.     492.51  E(vib)   ...       0.14 
freq.     498.05  E(vib)   ...       0.14 
freq.     515.04  E(vib)   ...       0.13 
freq.     522.37  E(vib)   ...       0.13 
freq.     524.93  E(vib)   ...       0.13 
freq.     535.04  E(vib)   ...       0.13 
freq.     558.98  E(vib)   ...       0.12 
freq.     584.20  E(vib)   ...       0.11 
freq.     596.44  E(vib)   ...       0.10 
freq.     602.88  E(vib)   ...       0.10 
freq.     627.96  E(vib)   ...       0.09 
freq.     639.96  E(vib)   ...       0.09 
freq.     647.08  E(vib)   ...       0.09 
freq.     661.54  E(vib)   ...       0.08 
freq.     669.26  E(vib)   ...       0.08 
freq.     681.42  E(vib)   ...       0.08 
freq.     697.96  E(vib)   ...       0.07 
freq.     698.61  E(vib)   ...       0.07 
freq.     700.19  E(vib)   ...       0.07 
freq.     710.22  E(vib)   ...       0.07 
freq.     716.28  E(vib)   ...       0.07 
freq.     720.50  E(vib)   ...       0.07 
freq.     729.56  E(vib)   ...       0.06 
freq.     741.78  E(vib)   ...       0.06 
freq.     747.73  E(vib)   ...       0.06 
freq.     752.38  E(vib)   ...       0.06 
freq.     760.29  E(vib)   ...       0.06 
freq.     773.22  E(vib)   ...       0.05 
freq.     794.67  E(vib)   ...       0.05 
freq.     797.03  E(vib)   ...       0.05 
freq.     800.19  E(vib)   ...       0.05 
freq.     803.08  E(vib)   ...       0.05 
freq.     804.45  E(vib)   ...       0.05 
freq.     809.48  E(vib)   ...       0.05 
freq.     827.52  E(vib)   ...       0.04 
freq.     832.95  E(vib)   ...       0.04 
freq.     839.17  E(vib)   ...       0.04 
freq.     846.77  E(vib)   ...       0.04 
freq.     849.15  E(vib)   ...       0.04 
freq.     866.96  E(vib)   ...       0.04 
freq.     871.26  E(vib)   ...       0.04 
freq.     876.47  E(vib)   ...       0.04 
freq.     882.92  E(vib)   ...       0.04 
freq.     889.62  E(vib)   ...       0.04 
freq.     894.38  E(vib)   ...       0.03 
freq.     896.35  E(vib)   ...       0.03 
freq.     902.82  E(vib)   ...       0.03 
freq.     908.32  E(vib)   ...       0.03 
freq.     910.19  E(vib)   ...       0.03 
freq.     913.91  E(vib)   ...       0.03 
freq.     927.27  E(vib)   ...       0.03 
freq.     929.52  E(vib)   ...       0.03 
freq.     934.10  E(vib)   ...       0.03 
freq.     939.41  E(vib)   ...       0.03 
freq.     941.64  E(vib)   ...       0.03 
freq.     945.46  E(vib)   ...       0.03 
freq.     950.52  E(vib)   ...       0.03 
freq.     955.83  E(vib)   ...       0.03 
freq.     967.71  E(vib)   ...       0.03 
freq.     976.83  E(vib)   ...       0.03 
freq.     979.36  E(vib)   ...       0.03 
freq.     987.10  E(vib)   ...       0.02 
freq.     988.34  E(vib)   ...       0.02 
freq.    1005.35  E(vib)   ...       0.02 
freq.    1013.42  E(vib)   ...       0.02 
freq.    1024.03  E(vib)   ...       0.02 
freq.    1027.54  E(vib)   ...       0.02 
freq.    1029.25  E(vib)   ...       0.02 
freq.    1036.24  E(vib)   ...       0.02 
freq.    1037.14  E(vib)   ...       0.02 
freq.    1044.17  E(vib)   ...       0.02 
freq.    1046.56  E(vib)   ...       0.02 
freq.    1057.74  E(vib)   ...       0.02 
freq.    1059.26  E(vib)   ...       0.02 
freq.    1060.13  E(vib)   ...       0.02 
freq.    1063.70  E(vib)   ...       0.02 
freq.    1071.99  E(vib)   ...       0.02 
freq.    1076.14  E(vib)   ...       0.02 
freq.    1083.12  E(vib)   ...       0.02 
freq.    1088.03  E(vib)   ...       0.02 
freq.    1093.47  E(vib)   ...       0.02 
freq.    1095.83  E(vib)   ...       0.02 
freq.    1105.95  E(vib)   ...       0.02 
freq.    1113.30  E(vib)   ...       0.01 
freq.    1115.82  E(vib)   ...       0.01 
freq.    1122.38  E(vib)   ...       0.01 
freq.    1123.04  E(vib)   ...       0.01 
freq.    1130.37  E(vib)   ...       0.01 
freq.    1134.92  E(vib)   ...       0.01 
freq.    1144.01  E(vib)   ...       0.01 
freq.    1144.42  E(vib)   ...       0.01 
freq.    1156.26  E(vib)   ...       0.01 
freq.    1161.90  E(vib)   ...       0.01 
freq.    1167.85  E(vib)   ...       0.01 
freq.    1173.46  E(vib)   ...       0.01 
freq.    1181.67  E(vib)   ...       0.01 
freq.    1182.44  E(vib)   ...       0.01 
freq.    1185.62  E(vib)   ...       0.01 
freq.    1205.84  E(vib)   ...       0.01 
freq.    1206.22  E(vib)   ...       0.01 
freq.    1210.54  E(vib)   ...       0.01 
freq.    1212.82  E(vib)   ...       0.01 
freq.    1223.66  E(vib)   ...       0.01 
freq.    1227.74  E(vib)   ...       0.01 
freq.    1229.17  E(vib)   ...       0.01 
freq.    1234.97  E(vib)   ...       0.01 
freq.    1238.90  E(vib)   ...       0.01 
freq.    1240.39  E(vib)   ...       0.01 
freq.    1246.87  E(vib)   ...       0.01 
freq.    1249.79  E(vib)   ...       0.01 
freq.    1256.78  E(vib)   ...       0.01 
freq.    1259.05  E(vib)   ...       0.01 
freq.    1262.39  E(vib)   ...       0.01 
freq.    1268.68  E(vib)   ...       0.01 
freq.    1271.58  E(vib)   ...       0.01 
freq.    1272.79  E(vib)   ...       0.01 
freq.    1275.77  E(vib)   ...       0.01 
freq.    1282.37  E(vib)   ...       0.01 
freq.    1284.08  E(vib)   ...       0.01 
freq.    1284.67  E(vib)   ...       0.01 
freq.    1292.33  E(vib)   ...       0.01 
freq.    1293.58  E(vib)   ...       0.01 
freq.    1297.38  E(vib)   ...       0.01 
freq.    1297.83  E(vib)   ...       0.01 
freq.    1301.09  E(vib)   ...       0.01 
freq.    1303.61  E(vib)   ...       0.01 
freq.    1307.73  E(vib)   ...       0.01 
freq.    1308.15  E(vib)   ...       0.01 
freq.    1313.61  E(vib)   ...       0.01 
freq.    1318.37  E(vib)   ...       0.01 
freq.    1321.14  E(vib)   ...       0.01 
freq.    1322.40  E(vib)   ...       0.01 
freq.    1329.53  E(vib)   ...       0.01 
freq.    1330.18  E(vib)   ...       0.01 
freq.    1331.27  E(vib)   ...       0.01 
freq.    1335.00  E(vib)   ...       0.01 
freq.    1341.13  E(vib)   ...       0.01 
freq.    1342.08  E(vib)   ...       0.01 
freq.    1342.95  E(vib)   ...       0.01 
freq.    1347.61  E(vib)   ...       0.01 
freq.    1350.94  E(vib)   ...       0.01 
freq.    1351.95  E(vib)   ...       0.01 
freq.    1353.16  E(vib)   ...       0.01 
freq.    1354.70  E(vib)   ...       0.01 
freq.    1355.22  E(vib)   ...       0.01 
freq.    1361.90  E(vib)   ...       0.01 
freq.    1365.66  E(vib)   ...       0.01 
freq.    1366.41  E(vib)   ...       0.01 
freq.    1374.02  E(vib)   ...       0.01 
freq.    1375.82  E(vib)   ...       0.01 
freq.    1388.19  E(vib)   ...       0.00 
freq.    1414.19  E(vib)   ...       0.00 
freq.    1417.01  E(vib)   ...       0.00 
freq.    1422.01  E(vib)   ...       0.00 
freq.    1425.85  E(vib)   ...       0.00 
freq.    1429.23  E(vib)   ...       0.00 
freq.    1432.36  E(vib)   ...       0.00 
freq.    1432.95  E(vib)   ...       0.00 
freq.    1436.05  E(vib)   ...       0.00 
freq.    1437.62  E(vib)   ...       0.00 
freq.    1439.84  E(vib)   ...       0.00 
freq.    1439.87  E(vib)   ...       0.00 
freq.    1441.60  E(vib)   ...       0.00 
freq.    1442.12  E(vib)   ...       0.00 
freq.    1444.57  E(vib)   ...       0.00 
freq.    1448.32  E(vib)   ...       0.00 
freq.    1448.91  E(vib)   ...       0.00 
freq.    1449.69  E(vib)   ...       0.00 
freq.    1450.85  E(vib)   ...       0.00 
freq.    1451.11  E(vib)   ...       0.00 
freq.    1452.23  E(vib)   ...       0.00 
freq.    1453.57  E(vib)   ...       0.00 
freq.    1454.48  E(vib)   ...       0.00 
freq.    1455.31  E(vib)   ...       0.00 
freq.    1455.54  E(vib)   ...       0.00 
freq.    1458.68  E(vib)   ...       0.00 
freq.    1465.80  E(vib)   ...       0.00 
freq.    1466.86  E(vib)   ...       0.00 
freq.    1468.96  E(vib)   ...       0.00 
freq.    1470.02  E(vib)   ...       0.00 
freq.    1474.36  E(vib)   ...       0.00 
freq.    1485.23  E(vib)   ...       0.00 
freq.    1487.52  E(vib)   ...       0.00 
freq.    1493.09  E(vib)   ...       0.00 
freq.    1556.63  E(vib)   ...       0.00 
freq.    1604.55  E(vib)   ...       0.00 
freq.    1651.25  E(vib)   ...       0.00 
freq.    1670.97  E(vib)   ...       0.00 
freq.    1680.82  E(vib)   ...       0.00 
freq.    1680.99  E(vib)   ...       0.00 
freq.    1697.01  E(vib)   ...       0.00 
freq.    1698.92  E(vib)   ...       0.00 
freq.    2919.86  E(vib)   ...       0.00 
freq.    2924.72  E(vib)   ...       0.00 
freq.    2927.76  E(vib)   ...       0.00 
freq.    2930.72  E(vib)   ...       0.00 
freq.    2938.55  E(vib)   ...       0.00 
freq.    2943.94  E(vib)   ...       0.00 
freq.    2945.60  E(vib)   ...       0.00 
freq.    2947.31  E(vib)   ...       0.00 
freq.    2948.42  E(vib)   ...       0.00 
freq.    2951.34  E(vib)   ...       0.00 
freq.    2954.50  E(vib)   ...       0.00 
freq.    2955.10  E(vib)   ...       0.00 
freq.    2958.84  E(vib)   ...       0.00 
freq.    2960.78  E(vib)   ...       0.00 
freq.    2961.19  E(vib)   ...       0.00 
freq.    2961.24  E(vib)   ...       0.00 
freq.    2967.66  E(vib)   ...       0.00 
freq.    2968.02  E(vib)   ...       0.00 
freq.    2970.00  E(vib)   ...       0.00 
freq.    2970.35  E(vib)   ...       0.00 
freq.    2971.10  E(vib)   ...       0.00 
freq.    2971.70  E(vib)   ...       0.00 
freq.    2973.89  E(vib)   ...       0.00 
freq.    2975.77  E(vib)   ...       0.00 
freq.    2977.30  E(vib)   ...       0.00 
freq.    2983.70  E(vib)   ...       0.00 
freq.    2985.75  E(vib)   ...       0.00 
freq.    2985.80  E(vib)   ...       0.00 
freq.    2987.55  E(vib)   ...       0.00 
freq.    2987.80  E(vib)   ...       0.00 
freq.    2988.16  E(vib)   ...       0.00 
freq.    2994.65  E(vib)   ...       0.00 
freq.    2995.30  E(vib)   ...       0.00 
freq.    3000.37  E(vib)   ...       0.00 
freq.    3001.77  E(vib)   ...       0.00 
freq.    3004.40  E(vib)   ...       0.00 
freq.    3005.83  E(vib)   ...       0.00 
freq.    3013.45  E(vib)   ...       0.00 
freq.    3014.40  E(vib)   ...       0.00 
freq.    3015.28  E(vib)   ...       0.00 
freq.    3019.08  E(vib)   ...       0.00 
freq.    3019.40  E(vib)   ...       0.00 
freq.    3020.35  E(vib)   ...       0.00 
freq.    3028.61  E(vib)   ...       0.00 
freq.    3029.27  E(vib)   ...       0.00 
freq.    3030.31  E(vib)   ...       0.00 
freq.    3031.20  E(vib)   ...       0.00 
freq.    3033.59  E(vib)   ...       0.00 
freq.    3037.00  E(vib)   ...       0.00 
freq.    3038.26  E(vib)   ...       0.00 
freq.    3042.21  E(vib)   ...       0.00 
freq.    3044.29  E(vib)   ...       0.00 
freq.    3047.25  E(vib)   ...       0.00 
freq.    3049.45  E(vib)   ...       0.00 
freq.    3055.97  E(vib)   ...       0.00 
freq.    3058.50  E(vib)   ...       0.00 
freq.    3059.97  E(vib)   ...       0.00 
freq.    3067.55  E(vib)   ...       0.00 
freq.    3294.48  E(vib)   ...       0.00 
freq.    3312.02  E(vib)   ...       0.00 
freq.    3420.39  E(vib)   ...       0.00 
freq.    3500.85  E(vib)   ...       0.00 
freq.    3502.65  E(vib)   ...       0.00 
freq.    3517.51  E(vib)   ...       0.00 

------------
INNER ENERGY
------------

The inner energy is: U= E(el) + E(ZPE) + E(vib) + E(rot) + E(trans)
    E(el)   - is the total energy from the electronic structure calculation
              = E(kin-el) + E(nuc-el) + E(el-el) + E(nuc-nuc)
    E(ZPE)  - the the zero temperature vibrational energy from the frequency calculation
    E(vib)  - the the finite temperature correction to E(ZPE) due to population
              of excited vibrational states
    E(rot)  - is the rotational thermal energy
    E(trans)- is the translational thermal energy

Summary of contributions to the inner energy U:
Electronic energy                ...  -2380.07393548 Eh
Zero point energy                ...      0.97781117 Eh     613.58 kcal/mol
Thermal vibrational correction   ...      0.05433234 Eh      34.09 kcal/mol
Thermal rotational correction    ...      0.00141627 Eh       0.89 kcal/mol
Thermal translational correction ...      0.00141627 Eh       0.89 kcal/mol
-----------------------------------------------------------------------
Total thermal energy                  -2379.03895943 Eh


Summary of corrections to the electronic energy:
(perhaps to be used in another calculation)
Total thermal correction                  0.05716488 Eh      35.87 kcal/mol
Non-thermal (ZPE) correction              0.97781117 Eh     613.58 kcal/mol
-----------------------------------------------------------------------
Total correction                          1.03497605 Eh     649.46 kcal/mol


--------
ENTHALPY
--------

The enthalpy is H = U + kB*T
                kB is Boltzmann's constant
Total free energy                 ...  -2379.03895943 Eh 
Thermal Enthalpy correction       ...      0.00094421 Eh       0.59 kcal/mol
-----------------------------------------------------------------------
Total Enthalpy                    ...  -2379.03801522 Eh


Note: Only C1 symmetry has been detected, increase convergence thresholds 
      if your molecule has a higher symmetry. Symmetry factor of 1.0 is   
      used for the rotational entropy correction. 
 

Note: Rotational entropy computed according to Herzberg 
Infrared and Raman Spectra, Chapter V,1, Van Nostrand Reinhold, 1945 
Point Group:  C1, Symmetry Number:   1  
Rotational constants in cm-1:     0.003263     0.001072     0.000975 

Vibrational entropy computed according to the QRRHO of S. Grimme
Chem.Eur.J. 2012 18 9955


-------
ENTROPY
-------

The entropy contributions are T*S = T*(S(el)+S(vib)+S(rot)+S(trans))
     S(el)   - electronic entropy
     S(vib)  - vibrational entropy
     S(rot)  - rotational entropy
     S(trans)- translational entropy
The entropies will be listed as mutliplied by the temperature to get
units of energy

Electronic entropy                ...      0.00000000 Eh      0.00 kcal/mol
Vibrational entropy               ...      0.09857201 Eh     61.85 kcal/mol
Rotational entropy                ...      0.01871511 Eh     11.74 kcal/mol
Translational entropy             ...      0.02166895 Eh     13.60 kcal/mol
-----------------------------------------------------------------------
Final entropy term                ...      0.13895608 Eh     87.20 kcal/mol

In case the symmetry of your molecule has not been determined correctly
or in case you have a reason to use a different symmetry number we print 
out the resulting rotational entropy values for sn=1,12 :
 --------------------------------------------------------
|  sn= 1 | S(rot)=       0.01871511 Eh     11.74 kcal/mol|
|  sn= 2 | S(rot)=       0.01806066 Eh     11.33 kcal/mol|
|  sn= 3 | S(rot)=       0.01767783 Eh     11.09 kcal/mol|
|  sn= 4 | S(rot)=       0.01740620 Eh     10.92 kcal/mol|
|  sn= 5 | S(rot)=       0.01719551 Eh     10.79 kcal/mol|
|  sn= 6 | S(rot)=       0.01702337 Eh     10.68 kcal/mol|
|  sn= 7 | S(rot)=       0.01687782 Eh     10.59 kcal/mol|
|  sn= 8 | S(rot)=       0.01675175 Eh     10.51 kcal/mol|
|  sn= 9 | S(rot)=       0.01664054 Eh     10.44 kcal/mol|
|  sn=10 | S(rot)=       0.01654106 Eh     10.38 kcal/mol|
|  sn=11 | S(rot)=       0.01645107 Eh     10.32 kcal/mol|
|  sn=12 | S(rot)=       0.01636891 Eh     10.27 kcal/mol|
 --------------------------------------------------------


-------------------
GIBBS FREE ENERGY
-------------------

The Gibbs free energy is G = H - T*S

Total enthalpy                    ...  -2379.03801522 Eh 
Total entropy correction          ...     -0.13895608 Eh    -87.20 kcal/mol
-----------------------------------------------------------------------
Final Gibbs free energy         ...  -2379.17697130 Eh

For completeness - the Gibbs free energy minus the electronic energy
G-E(el)                           ...      0.89696418 Eh    562.85 kcal/mol


Timings for individual modules:

Sum of individual times         ...    33067.333 sec (= 551.122 min)
GTO integral calculation        ...       12.820 sec (=   0.214 min)   0.0 %
SCF iterations                  ...      344.084 sec (=   5.735 min)   1.0 %
SCF Gradient evaluation         ...       61.527 sec (=   1.025 min)   0.2 %
Geometry relaxation             ...        2.164 sec (=   0.036 min)   0.0 %
Analytical frequency calculation...    32646.738 sec (= 544.112 min)  98.7 %
                             ****ORCA TERMINATED NORMALLY****
TOTAL RUN TIME: 0 days 9 hours 11 minutes 20 seconds 740 msec
