
                                 *****************
                                 * O   R   C   A *
                                 *****************

           --- An Ab Initio, DFT and Semiempirical electronic structure package ---

                  #######################################################
                  #                        -***-                        #
                  #          Department of theory and spectroscopy      #
                  #               Directorship: Frank Neese             #
                  #        Max Planck Institute fuer Kohlenforschung    #
                  #                Kaiser Wilhelm Platz 1               #
                  #                 D-45470 Muelheim/Ruhr               #
                  #                      Germany                        #
                  #                                                     #
                  #                  All rights reserved                #
                  #                        -***-                        #
                  #######################################################


                         Program Version 4.2.0 -  RELEASE  -


 With contributions from (in alphabetic order):
   Daniel Aravena         : Magnetic Suceptibility
   Michael Atanasov       : Ab Initio Ligand Field Theory (pilot matlab implementation)
   Alexander A. Auer      : GIAO ZORA, VPT2
   Ute Becker             : Parallelization
   Giovanni Bistoni       : ED, misc. LED, open-shell LED, HFLED
   Martin Brehm           : Molecular dynamics
   Dmytro Bykov           : SCF Hessian
   Vijay G. Chilkuri      : MRCI spin determinant printing, contributions to CSF-ICE
   Dipayan Datta          : RHF DLPNO-CCSD density
   Achintya Kumar Dutta   : EOM-CC, STEOM-CC
   Dmitry Ganyushin       : Spin-Orbit,Spin-Spin,Magnetic field MRCI
   Miquel Garcia          : C-PCM Hessian, Gaussian charge scheme
   Yang Guo               : DLPNO-NEVPT2, CIM, IAO-localization
   Andreas Hansen         : Spin unrestricted coupled pair/coupled cluster methods
   Benjamin Helmich-Paris : CASSCF linear response (MC-RPA)
   Lee Huntington         : MR-EOM, pCC
   Robert Izsak           : Overlap fitted RIJCOSX, COSX-SCS-MP3, EOM
   Christian Kollmar      : KDIIS, OOCD, Brueckner-CCSD(T), CCSD density
   Simone Kossmann        : Meta GGA functionals, TD-DFT gradient, OOMP2, MP2 Hessian
   Martin Krupicka        : AUTO-CI
   Lucas Lang             : DCDCAS
   Dagmar Lenk            : GEPOL surface, SMD
   Dimitrios Liakos       : Extrapolation schemes; Compound Job, initial MDCI parallelization
   Dimitrios Manganas     : Further ROCIS development; embedding schemes
   Dimitrios Pantazis     : SARC Basis sets
   Taras Petrenko         : DFT Hessian,TD-DFT gradient, ASA, ECA, R-Raman, ABS, FL, XAS/XES, NRVS
   Peter Pinski           : DLPNO-MP2, DLPNO-MP2 Gradient
   Christoph Reimann      : Effective Core Potentials
   Marius Retegan         : Local ZFS, SOC
   Christoph Riplinger    : Optimizer, TS searches, QM/MM, DLPNO-CCSD(T), (RO)-DLPNO pert. Triples
   Tobias Risthaus        : Range-separated hybrids, TD-DFT gradient, RPA, STAB
   Michael Roemelt        : Original ROCIS implementation
   Masaaki Saitow         : Open-shell DLPNO-CCSD energy and density
   Barbara Sandhoefer     : DKH picture change effects
   Avijit Sen             : IP-ROCIS
   Kantharuban Sivalingam : CASSCF convergence, NEVPT2, FIC-MRCI
   Bernardo de Souza      : ESD, SOC TD-DFT
   Georgi Stoychev        : AutoAux, RI-MP2 NMR
   Willem Van den Heuvel  : Paramagnetic NMR
   Boris Wezisla          : Elementary symmetry handling
   Frank Wennmohs         : Technical directorship


 We gratefully acknowledge several colleagues who have allowed us to
 interface, adapt or use parts of their codes:
   Stefan Grimme, W. Hujo, H. Kruse,             : VdW corrections, initial TS optimization,
                  C. Bannwarth                     DFT functionals, gCP, sTDA/sTD-DF
   Ed Valeev, F. Pavosevic, A. Kumar             : LibInt (2-el integral package), F12 methods
   Garnet Chan, S. Sharma, J. Yang, R. Olivares  : DMRG
   Ulf Ekstrom                                   : XCFun DFT Library
   Mihaly Kallay                                 : mrcc  (arbitrary order and MRCC methods)
   Andreas Klamt, Michael Diedenhofen            : otool_cosmo (COSMO solvation model)
   Jiri Pittner, Ondrej Demel                    : Mk-CCSD
   Frank Weinhold                                : gennbo (NPA and NBO analysis)
   Christopher J. Cramer and Donald G. Truhlar   : smd solvation model
   Lars Goerigk                                  : TD-DFT with DH, B97 family of functionals
   V. Asgeirsson, H. Jonsson                     : NEB implementation
   FAccTs GmbH                                   : IRC, NEB, NEB-TS, Multilevel, MM, QM/MM, CI optimization
   S Lehtola, MJT Oliveira, MAL Marques          : LibXC Library


 Your calculation uses the libint2 library for the computation of 2-el integrals
 For citations please refer to: http://libint.valeyev.net

 Your ORCA version has been built with support for libXC version: 4.2.3
 For citations please refer to: https://tddft.org/programs/libxc/

 This ORCA versions uses:
   CBLAS   interface :  Fast vector & matrix operations
   LAPACKE interface :  Fast linear algebra routines
   SCALAPACK package :  Parallel linear algebra routines




***************************************
The coordinates will be read from file: 69.xyz
***************************************


Your calculation utilizes the atom-pairwise dispersion correction
with the Becke-Johnson damping scheme (D3BJ)
Cite in your paper:
S.Grimme, S.Ehrlich, L.Goerigk, J Comput Chem, (2011), 32, 1456–1465 
S.Grimme, J.Antony, S.Ehrlich and H.Krieg, J.Chem.Phys., 132, (2010), 154104 
   

----- Orbital basis set information -----
Your calculation utilizes the basis: def2-TZVP
   F. Weigend and R. Ahlrichs, Phys. Chem. Chem. Phys. 7, 3297 (2005).

----- AuxJ basis set information -----
Your calculation utilizes the auxiliary basis: def2/J
   F. Weigend, Phys. Chem. Chem. Phys. 8, 1057 (2006).

================================================================================
                                        WARNINGS
                       Please study these warnings very carefully!
================================================================================


WARNING: Geometry Optimization
  ===> : Switching off AutoStart
         For restart on a previous wavefunction, please use MOREAD

INFO   : the flag for use of LIBINT has been found!

================================================================================
                                       INPUT FILE
================================================================================
NAME = 69.inp
|  1> !RI BP86 def2-tzvp def2/J D3BJ VeryTightSCF VeryTightOpt Grid5 FinalGrid6 freq
|  2> %maxcore 4000
|  3> %pal nprocs 24
|  4> end
|  5> * xyzfile 0 1 69.xyz 
|  6> 
|  7>                          ****END OF INPUT****
================================================================================

                       *****************************
                       * Geometry Optimization Run *
                       *****************************

Geometry optimization settings:
Update method            Update   .... BFGS
Choice of coordinates    CoordSys .... Z-matrix Internals
Initial Hessian          InHess   .... Almoef's Model

Convergence Tolerances:
Energy Change            TolE     ....  2.0000e-07 Eh
Max. Gradient            TolMAXG  ....  3.0000e-05 Eh/bohr
RMS Gradient             TolRMSG  ....  8.0000e-06 Eh/bohr
Max. Displacement        TolMAXD  ....  2.0000e-04 bohr
RMS Displacement         TolRMSD  ....  1.0000e-04 bohr
Strict Convergence                ....  False
------------------------------------------------------------------------------
                        ORCA OPTIMIZATION COORDINATE SETUP
------------------------------------------------------------------------------

The optimization will be done in new redundant internal coordinates
Making redundant internal coordinates   ...  (new redundants) done
Evaluating the initial hessian          ...  (Almloef) done
Evaluating the coordinates              ...  done
Calculating the B-matrix                .... done
Calculating the G-matrix                .... done
Diagonalizing the G-matrix              .... done
Small eigenvalue found = 1.089e-03
Small eigenvalue found = 2.551e-03
Small eigenvalue found = 3.018e-03
Small eigenvalue found = 3.623e-03
Small eigenvalue found = 4.950e-03
Small eigenvalue found = 6.073e-03
Small eigenvalue found = 7.656e-03
Small eigenvalue found = 8.416e-03
Small eigenvalue found = 1.009e-02
Small eigenvalue found = 1.229e-02
Small eigenvalue found = 1.473e-02
Small eigenvalue found = 1.503e-02
Small eigenvalue found = 1.748e-02
Small eigenvalue found = 1.994e-02
Small eigenvalue found = 2.161e-02
Small eigenvalue found = 2.342e-02
Small eigenvalue found = 2.613e-02
Small eigenvalue found = 2.940e-02
The first mode is                       ....  328
The number of degrees of freedom        ....  339

    -----------------------------------------------------------------
                    Redundant Internal Coordinates


    -----------------------------------------------------------------
         Definition                    Initial Value    Approx d2E/dq
    -----------------------------------------------------------------
      1. B(C   1,O   0)                  1.2298         1.007837   
      2. B(C   2,C   1)                  1.5436         0.355338   
      3. B(C   3,C   2)                  1.5411         0.358712   
      4. B(C   4,C   3)                  1.5352         0.366471   
      5. B(C   5,C   4)                  1.5314         0.371679   
      6. B(N   6,C   2)                  1.4693         0.418167   
      7. B(N   6,C   5)                  1.4751         0.409287   
      8. B(C   7,N   6)                  1.3575         0.630446   
      9. B(O   8,C   7)                  1.2348         0.989642   
     10. B(N   9,C   1)                  1.3640         0.615757   
     11. B(C  10,N   9)                  1.4589         0.434476   
     12. B(C  11,C  10)                  1.5380         0.362787   
     13. B(N  12,C  11)                  1.3676         0.607612   
     14. B(C  13,N  12)                  1.4701         0.416887   
     15. B(C  14,C  13)                  1.5412         0.358503   
     16. B(N  15,C  14)                  1.3557         0.634825   
     17. B(C  16,N  15)                  1.4625         0.428823   
     18. B(C  17,C  16)                  1.5440         0.354824   
     19. B(C  18,C  17)                  1.5528         0.343562   
     20. B(C  19,C  18)                  1.5452         0.353267   
     21. B(N  20,C  19)                  1.3563         0.633237   
     22. B(C  21,N  20)                  1.4608         0.431481   
     23. B(C  22,C  21)                  1.5372         0.363871   
     24. B(N  23,C  22)                  1.3505         0.646991   
     25. B(C  24,C   7)                  1.5486         0.348905   
     26. B(C  24,N  23)                  1.4684         0.419524   
     27. B(C  25,C  24)                  1.5264         0.378580   
     28. B(O  26,C  22)                  1.2464         0.948492   
     29. B(C  27,C  21)                  1.5302         0.373284   
     30. B(C  28,C  27)                  1.5360         0.365415   
     31. B(C  29,C  28)                  1.5323         0.370448   
     32. B(C  30,C  28)                  1.5323         0.370416   
     33. B(O  31,C  19)                  1.2380         0.977938   
     34. B(C  32,C  18)                  1.5345         0.367441   
     35. B(C  33,C  32)                  1.5128         0.397909   
     36. B(C  34,C  33)                  1.5344         0.367586   
     37. B(C  35,C  34)                  1.5303         0.373132   
     38. B(C  36,C  35)                  1.5278         0.376643   
     39. B(C  37,C  36)                  1.5318         0.371149   
     40. B(C  38,C  37)                  1.5292         0.374731   
     41. B(C  39,C  38)                  1.5300         0.373637   
     42. B(C  40,C  39)                  1.5304         0.373031   
     43. B(C  41,C  40)                  1.5300         0.373620   
     44. B(O  42,C  32)                  1.2265         1.020164   
     45. B(O  43,C  17)                  1.4255         0.491266   
     46. B(O  44,C  14)                  1.2414         0.965826   
     47. B(C  45,C  13)                  1.5238         0.382209   
     48. B(C  46,C  45)                  1.5284         0.375785   
     49. B(O  47,C  11)                  1.2360         0.985191   
     50. B(C  48,C  10)                  1.5465         0.351571   
     51. B(C  49,C  48)                  1.5318         0.371115   
     52. B(C  50,C  48)                  1.5335         0.368809   
     53. B(H  51,C   2)                  1.0980         0.349707   
     54. B(H  52,C   3)                  1.0978         0.349926   
     55. B(H  53,C   3)                  1.0964         0.351672   
     56. B(H  54,C   4)                  1.0965         0.351626   
     57. B(H  55,C   4)                  1.0974         0.350402   
     58. B(H  56,C   5)                  1.0979         0.349764   
     59. B(H  57,C   5)                  1.0982         0.349352   
     60. B(H  58,N   9)                  1.0291         0.403423   
     61. B(H  59,C  10)                  1.0981         0.349506   
     62. B(H  60,N  12)                  1.0197         0.417562   
     63. B(H  60,O  26)                  2.4409         0.002255   
     64. B(H  61,C  13)                  1.0999         0.347196   
     65. B(H  62,N  15)                  1.0233         0.412018   
     66. B(H  63,C  16)                  1.0948         0.353812   
     67. B(H  64,H  51)                  2.1747         0.001282   
     68. B(H  64,C  16)                  1.1013         0.345396   
     69. B(H  65,C  17)                  1.0969         0.351047   
     70. B(H  66,C  18)                  1.1047         0.341145   
     71. B(H  67,N  20)                  1.0363         0.392846   
     72. B(H  68,C  21)                  1.0982         0.349427   
     73. B(H  69,N  23)                  1.0183         0.419675   
     74. B(H  70,C  24)                  1.0970         0.350961   
     75. B(H  71,C  25)                  1.0981         0.349490   
     76. B(H  72,C  25)                  1.0977         0.350108   
     77. B(H  73,C  25)                  1.0969         0.351141   
     78. B(H  74,C  27)                  1.1035         0.342671   
     79. B(H  75,C  27)                  1.1000         0.347164   
     80. B(H  76,C  28)                  1.1031         0.343161   
     81. B(H  77,C  29)                  1.0996         0.347620   
     82. B(H  78,C  29)                  1.1018         0.344841   
     83. B(H  79,C  29)                  1.0995         0.347744   
     84. B(H  80,C  30)                  1.0994         0.347857   
     85. B(H  81,C  30)                  1.0994         0.347814   
     86. B(H  82,C  30)                  1.1021         0.344463   
     87. B(H  83,C  33)                  1.0982         0.349386   
     88. B(H  84,C  33)                  1.1073         0.337964   
     89. B(H  85,C  34)                  1.1014         0.345274   
     90. B(H  86,C  34)                  1.1013         0.345466   
     91. B(H  87,H  69)                  3.7196         0.000004   
     92. B(H  87,C  35)                  1.1015         0.345245   
     93. B(H  88,C  35)                  1.1033         0.342937   
     94. B(H  89,C  36)                  1.1042         0.341858   
     95. B(H  90,C  36)                  1.1049         0.340866   
     96. B(H  91,H  57)                  2.0706         0.001879   
     97. B(H  91,C  37)                  1.1042         0.341851   
     98. B(H  92,C  37)                  1.1039         0.342213   
     99. B(H  93,C  38)                  1.1044         0.341538   
    100. B(H  94,C  38)                  1.1052         0.340546   
    101. B(H  95,C  39)                  1.1034         0.342788   
    102. B(H  96,C  39)                  1.1048         0.341064   
    103. B(H  97,C  40)                  1.1038         0.342271   
    104. B(H  98,C  40)                  1.1037         0.342485   
    105. B(H  99,C  41)                  1.0997         0.347480   
    106. B(H 100,C  41)                  1.1009         0.345970   
    107. B(H 101,O   8)                  4.4282         0.000002   
    108. B(H 101,C  41)                  1.1004         0.346550   
    109. B(H 102,O  43)                  0.9776         0.487477   
    110. B(H 103,C  45)                  1.1000         0.347166   
    111. B(H 104,H  77)                  3.6165         0.000006   
    112. B(H 104,C  45)                  1.1012         0.345612   
    113. B(H 105,C  46)                  1.0984         0.349171   
    114. B(H 106,C  46)                  1.1000         0.347081   
    115. B(H 107,C  46)                  1.0992         0.348176   
    116. B(H 108,C  48)                  1.1032         0.343008   
    117. B(H 109,C  49)                  1.0991         0.348234   
    118. B(H 110,C  49)                  1.0990         0.348393   
    119. B(H 111,C  49)                  1.1012         0.345602   
    120. B(H 112,H  71)                  3.3674         0.000016   
    121. B(H 112,C  50)                  1.0997         0.347441   
    122. B(H 113,C  50)                  1.1006         0.346286   
    123. B(H 114,C  50)                  1.0990         0.348356   
    124. A(O   0,C   1,N   9)          124.1169         0.467275   
    125. A(C   2,C   1,N   9)          113.2639         0.390246   
    126. A(O   0,C   1,C   2)          122.5496         0.425786   
    127. A(C   1,C   2,H  51)          109.9304         0.320131   
    128. A(N   6,C   2,H  51)          109.6101         0.326834   
    129. A(C   1,C   2,N   6)          113.3348         0.364984   
    130. A(C   1,C   2,C   3)          110.2432         0.357780   
    131. A(C   3,C   2,H  51)          110.9230         0.320626   
    132. A(C   3,C   2,N   6)          102.6182         0.365575   
    133. A(C   4,C   3,H  53)          113.0995         0.322046   
    134. A(C   4,C   3,H  52)          111.0649         0.321784   
    135. A(C   2,C   3,C   4)          103.6556         0.359663   
    136. A(C   2,C   3,H  53)          112.0740         0.320920   
    137. A(C   2,C   3,H  52)          108.9340         0.320659   
    138. A(H  52,C   3,H  53)          107.9536         0.288462   
    139. A(H  54,C   4,H  55)          108.9482         0.288518   
    140. A(C   3,C   4,H  55)          112.2796         0.321855   
    141. A(C   3,C   4,C   5)          103.7491         0.361848   
    142. A(C   3,C   4,H  54)          109.6484         0.322039   
    143. A(C   5,C   4,H  55)          111.8052         0.322600   
    144. A(C   5,C   4,H  54)          110.3255         0.322784   
    145. A(H  56,C   5,H  57)          107.5602         0.288143   
    146. A(C   4,C   5,N   6)          104.0661         0.366455   
    147. A(C   4,C   5,H  56)          113.6526         0.322504   
    148. A(N   6,C   5,H  57)          109.0362         0.325627   
    149. A(N   6,C   5,H  56)          109.8985         0.325690   
    150. A(C   4,C   5,H  57)          112.5351         0.322441   
    151. A(C   5,N   6,C   7)          120.1410         0.399131   
    152. A(C   2,N   6,C   7)          126.3986         0.400641   
    153. A(C   2,N   6,C   5)          112.5489         0.371611   
    154. A(O   8,C   7,C  24)          120.7155         0.423016   
    155. A(N   6,C   7,O   8)          122.2161         0.467733   
    156. A(N   6,C   7,C  24)          117.0581         0.390608   
    157. A(C   1,N   9,C  10)          122.8504         0.401678   
    158. A(C  10,N   9,H  58)          118.5423         0.333900   
    159. A(C   1,N   9,H  58)          118.6061         0.354013   
    160. A(C  48,C  10,H  59)          107.4645         0.319544   
    161. A(C  11,C  10,H  59)          105.1194         0.321189   
    162. A(N   9,C  10,C  11)          105.2103         0.368694   
    163. A(N   9,C  10,C  48)          114.1090         0.366713   
    164. A(N   9,C  10,H  59)          105.9349         0.328871   
    165. A(C  11,C  10,C  48)          118.0506         0.357819   
    166. A(N  12,C  11,O  47)          122.0741         0.464201   
    167. A(C  10,C  11,O  47)          121.0826         0.425635   
    168. A(C  10,C  11,N  12)          116.5988         0.390753   
    169. A(C  13,N  12,H  60)          115.3946         0.333519   
    170. A(C  11,N  12,C  13)          120.8409         0.397835   
    171. A(C  11,N  12,H  60)          118.0964         0.355283   
    172. A(C  14,C  13,C  45)          112.7864         0.362216   
    173. A(N  12,C  13,H  61)          106.0345         0.326282   
    174. A(C  14,C  13,H  61)          109.6891         0.320218   
    175. A(N  12,C  13,C  14)          105.6553         0.365347   
    176. A(C  45,C  13,H  61)          110.9715         0.323593   
    177. A(N  12,C  13,C  45)          111.3628         0.369381   
    178. A(C  13,C  14,N  15)          114.1229         0.392942   
    179. A(N  15,C  14,O  44)          124.2283         0.466242   
    180. A(C  13,C  14,O  44)          121.4210         0.423226   
    181. A(C  14,N  15,H  62)          115.4495         0.357125   
    182. A(C  16,N  15,H  62)          117.0789         0.334343   
    183. A(C  14,N  15,C  16)          122.7874         0.402912   
    184. A(H  63,C  16,H  64)          106.7089         0.288148   
    185. A(C  17,C  16,H  64)          110.1943         0.319408   
    186. A(N  15,C  16,H  63)          107.7961         0.328825   
    187. A(C  17,C  16,H  63)          108.8097         0.320666   
    188. A(N  15,C  16,C  17)          114.6245         0.366469   
    189. A(N  15,C  16,H  64)          108.3928         0.327522   
    190. A(O  43,C  17,H  65)          104.4924         0.335880   
    191. A(C  18,C  17,H  65)          107.9196         0.318573   
    192. A(C  16,C  17,H  65)          108.4157         0.320255   
    193. A(C  16,C  17,C  18)          112.4728         0.355080   
    194. A(C  18,C  17,O  43)          111.0529         0.373058   
    195. A(C  16,C  17,O  43)          112.0537         0.375139   
    196. A(C  19,C  18,H  66)          106.1776         0.318534   
    197. A(C  17,C  18,H  66)          107.2442         0.317091   
    198. A(C  17,C  18,C  32)          112.1216         0.357193   
    199. A(C  17,C  18,C  19)          115.2751         0.354816   
    200. A(C  19,C  18,C  32)          108.6239         0.358889   
    201. A(C  32,C  18,H  66)          106.8998         0.320587   
    202. A(C  18,C  19,N  20)          116.2763         0.391760   
    203. A(N  20,C  19,O  31)          122.1423         0.467093   
    204. A(C  18,C  19,O  31)          121.5780         0.423056   
    205. A(C  19,N  20,H  67)          121.6318         0.354098   
    206. A(C  19,N  20,C  21)          119.3184         0.403174   
    207. A(C  21,N  20,H  67)          115.3196         0.332051   
    208. A(C  27,C  21,H  68)          110.9893         0.322681   
    209. A(C  22,C  21,H  68)          109.1028         0.321334   
    210. A(N  20,C  21,H  68)          107.2021         0.328484   
    211. A(N  20,C  21,C  22)          108.8305         0.368445   
    212. A(C  22,C  21,C  27)          109.8788         0.361674   
    213. A(N  20,C  21,C  27)          110.7662         0.370066   
    214. A(C  21,C  22,N  23)          115.9769         0.395280   
    215. A(C  21,C  22,O  26)          120.7673         0.422980   
    216. A(N  23,C  22,O  26)          123.2498         0.466316   
    217. A(C  22,N  23,C  24)          123.8781         0.402704   
    218. A(C  24,N  23,H  69)          118.5542         0.334149   
    219. A(C  22,N  23,H  69)          117.5658         0.359404   
    220. A(C  25,C  24,H  70)          109.3403         0.323659   
    221. A(N  23,C  24,H  70)          105.8276         0.327201   
    222. A(C   7,C  24,H  70)          109.5832         0.319364   
    223. A(N  23,C  24,C  25)          110.7775         0.369175   
    224. A(C   7,C  24,N  23)          110.6195         0.364046   
    225. A(C   7,C  24,C  25)          110.5736         0.359957   
    226. A(H  71,C  25,H  73)          109.7519         0.288338   
    227. A(C  24,C  25,H  73)          110.6350         0.323687   
    228. A(H  71,C  25,H  72)          108.9836         0.288205   
    229. A(C  24,C  25,H  72)          110.0845         0.323530   
    230. A(C  24,C  25,H  71)          109.7132         0.323436   
    231. A(H  72,C  25,H  73)          107.6321         0.288418   
    232. A(C  28,C  27,H  75)          109.7544         0.321215   
    233. A(C  21,C  27,C  28)          114.4297         0.361935   
    234. A(H  74,C  27,H  75)          107.0221         0.286940   
    235. A(C  21,C  27,H  75)          107.9857         0.322337   
    236. A(C  28,C  27,H  74)          109.4330         0.320531   
    237. A(C  21,C  27,H  74)          107.9436         0.321650   
    238. A(C  29,C  28,C  30)          111.2045         0.362304   
    239. A(C  27,C  28,C  30)          112.3606         0.361459   
    240. A(C  27,C  28,C  29)          109.5085         0.361465   
    241. A(C  30,C  28,H  76)          108.0885         0.321320   
    242. A(C  29,C  28,H  76)          107.8625         0.321324   
    243. A(C  27,C  28,H  76)          107.6407         0.320606   
    244. A(C  28,C  29,H  79)          111.1344         0.322023   
    245. A(H  78,C  29,H  79)          107.6681         0.287298   
    246. A(H  77,C  29,H  79)          107.9842         0.287658   
    247. A(H  77,C  29,H  78)          107.8979         0.287282   
    248. A(C  28,C  29,H  78)          110.8595         0.321581   
    249. A(C  28,C  29,H  77)          111.1476         0.322004   
    250. A(H  81,C  30,H  82)          107.6011         0.287258   
    251. A(H  80,C  30,H  82)          107.9420         0.287263   
    252. A(C  28,C  30,H  82)          110.8238         0.321519   
    253. A(H  80,C  30,H  81)          107.3569         0.287698   
    254. A(C  28,C  30,H  81)          110.8320         0.322029   
    255. A(C  28,C  30,H  80)          112.0953         0.322035   
    256. A(C  33,C  32,O  42)          121.5593         0.435475   
    257. A(C  18,C  32,O  42)          119.9686         0.429284   
    258. A(C  18,C  32,C  33)          118.3655         0.366257   
    259. A(C  32,C  33,C  34)          113.5902         0.366282   
    260. A(C  34,C  33,H  84)          110.3649         0.320117   
    261. A(H  83,C  33,H  84)          106.9234         0.286606   
    262. A(C  32,C  33,H  84)          104.2788         0.324301   
    263. A(C  34,C  33,H  83)          111.3721         0.321862   
    264. A(C  32,C  33,H  83)          109.8833         0.326078   
    265. A(C  33,C  34,C  35)          112.0833         0.362276   
    266. A(H  85,C  34,H  86)          106.7324         0.287059   
    267. A(C  35,C  34,H  86)          110.4585         0.322057   
    268. A(C  33,C  34,H  86)          108.6863         0.321268   
    269. A(C  35,C  34,H  85)          109.5713         0.322028   
    270. A(C  33,C  34,H  85)          109.1543         0.321239   
    271. A(C  34,C  35,C  36)          114.5686         0.363786   
    272. A(H  87,C  35,H  88)          104.7664         0.286726   
    273. A(C  36,C  35,H  88)          109.5313         0.322163   
    274. A(C  34,C  35,H  88)          108.8692         0.321670   
    275. A(C  36,C  35,H  87)          109.1241         0.322518   
    276. A(C  34,C  35,H  87)          109.5247         0.322023   
    277. A(C  35,C  36,C  37)          111.8560         0.363455   
    278. A(H  89,C  36,H  90)          105.8111         0.286015   
    279. A(C  37,C  36,H  90)          109.5995         0.321071   
    280. A(C  35,C  36,H  90)          109.2600         0.321844   
    281. A(C  37,C  36,H  89)          109.7619         0.321224   
    282. A(C  35,C  36,H  89)          110.3693         0.321997   
    283. A(C  36,C  37,C  38)          114.3913         0.363139   
    284. A(H  91,C  37,H  92)          105.3272         0.286190   
    285. A(C  38,C  37,H  92)          109.5969         0.321783   
    286. A(C  36,C  37,H  92)          109.2254         0.321278   
    287. A(C  38,C  37,H  91)          108.6081         0.321728   
    288. A(C  36,C  37,H  91)          109.2985         0.321222   
    289. A(C  37,C  38,C  39)          112.8424         0.363554   
    290. A(H  93,C  38,H  94)          105.7460         0.285932   
    291. A(C  39,C  38,H  94)          108.9190         0.321373   
    292. A(C  37,C  38,H  94)          109.0723         0.321526   
    293. A(C  39,C  38,H  93)          110.0982         0.321526   
    294. A(C  37,C  38,H  93)          109.9056         0.321679   
    295. A(C  38,C  39,C  40)          113.5917         0.363271   
    296. A(H  95,C  39,H  96)          106.1272         0.286162   
    297. A(C  40,C  39,H  96)          109.2818         0.321367   
    298. A(C  38,C  39,H  96)          109.3323         0.321453   
    299. A(C  40,C  39,H  95)          109.5075         0.321632   
    300. A(C  38,C  39,H  95)          108.7299         0.321718   
    301. A(C  39,C  40,C  41)          112.9785         0.363269   
    302. A(H  97,C  40,H  98)          105.9597         0.286281   
    303. A(C  41,C  40,H  98)          109.5032         0.321669   
    304. A(C  39,C  40,H  98)          109.0036         0.321586   
    305. A(C  41,C  40,H  97)          109.6957         0.321636   
    306. A(C  39,C  40,H  97)          109.4565         0.321553   
    307. A(H 100,C  41,H 101)          107.4389         0.287290   
    308. A(H  99,C  41,H 101)          107.8317         0.287486   
    309. A(C  40,C  41,H 101)          110.9122         0.322291   
    310. A(H  99,C  41,H 100)          107.6934         0.287410   
    311. A(C  40,C  41,H 100)          111.0587         0.322203   
    312. A(C  40,C  41,H  99)          111.7211         0.322433   
    313. A(C  17,O  43,H 102)          105.8045         0.351826   
    314. A(C  13,C  45,C  46)          112.6540         0.365142   
    315. A(C  46,C  45,H 104)          110.9365         0.322453   
    316. A(C  13,C  45,H 104)          108.7918         0.323351   
    317. A(C  46,C  45,H 103)          110.6642         0.322690   
    318. A(C  13,C  45,H 103)          107.8583         0.323589   
    319. A(H 103,C  45,H 104)          105.6447         0.287323   
    320. A(H 106,C  46,H 107)          107.5140         0.287644   
    321. A(H 105,C  46,H 107)          107.8857         0.287914   
    322. A(C  45,C  46,H 107)          111.2790         0.322844   
    323. A(H 105,C  46,H 106)          107.8481         0.287773   
    324. A(C  45,C  46,H 106)          111.2458         0.322677   
    325. A(C  45,C  46,H 105)          110.9037         0.322995   
    326. A(C  50,C  48,H 108)          107.5195         0.321068   
    327. A(C  49,C  48,H 108)          108.4956         0.321395   
    328. A(C  10,C  48,H 108)          103.7150         0.318567   
    329. A(C  49,C  48,C  50)          111.3299         0.362147   
    330. A(C  10,C  48,C  50)          115.5044         0.358822   
    331. A(C  10,C  48,C  49)          109.7788         0.359203   
    332. A(H 110,C  49,H 111)          107.6359         0.287480   
    333. A(H 109,C  49,H 111)          107.8308         0.287460   
    334. A(C  48,C  49,H 111)          110.8517         0.321792   
    335. A(H 109,C  49,H 110)          108.0762         0.287822   
    336. A(C  48,C  49,H 110)          110.7720         0.322216   
    337. A(C  48,C  49,H 109)          111.5221         0.322192   
    338. A(H 113,C  50,H 114)          106.6519         0.287565   
    339. A(H 112,C  50,H 114)          107.5328         0.287714   
    340. A(C  48,C  50,H 114)          109.8641         0.321882   
    341. A(H 112,C  50,H 113)          108.4528         0.287446   
    342. A(C  48,C  50,H 113)          111.6704         0.321568   
    343. A(C  48,C  50,H 112)          112.4206         0.321743   
    344. D(H  51,C   2,C   1,N   9)     -4.6357         0.009515   
    345. D(C   3,C   2,C   1,N   9)   -127.2236         0.009515   
    346. D(N   6,C   2,C   1,N   9)    118.4040         0.009515   
    347. D(N   6,C   2,C   1,O   0)    -64.5164         0.009515   
    348. D(C   3,C   2,C   1,O   0)     49.8560         0.009515   
    349. D(H  51,C   2,C   1,O   0)    172.4439         0.009515   
    350. D(C   4,C   3,C   2,N   6)     32.4417         0.010329   
    351. D(H  53,C   3,C   2,H  51)    -88.2814         0.010329   
    352. D(H  53,C   3,C   2,C   1)     33.7216         0.010329   
    353. D(C   4,C   3,C   2,H  51)    149.4288         0.010329   
    354. D(H  53,C   3,C   2,N   6)    154.7315         0.010329   
    355. D(H  52,C   3,C   2,H  51)     31.1097         0.010329   
    356. D(C   4,C   3,C   2,C   1)    -88.5682         0.010329   
    357. D(H  52,C   3,C   2,C   1)    153.1127         0.010329   
    358. D(H  52,C   3,C   2,N   6)    -85.8774         0.010329   
    359. D(H  55,C   4,C   3,H  53)     80.9514         0.010749   
    360. D(H  55,C   4,C   3,H  52)    -40.6089         0.010749   
    361. D(H  54,C   4,C   3,H  52)   -161.8666         0.010749   
    362. D(H  55,C   4,C   3,C   2)   -157.4429         0.010749   
    363. D(H  54,C   4,C   3,H  53)    -40.3063         0.010749   
    364. D(C   5,C   4,C   3,C   2)    -36.5448         0.010749   
    365. D(H  54,C   4,C   3,C   2)     81.2994         0.010749   
    366. D(C   5,C   4,C   3,H  53)   -158.1506         0.010749   
    367. D(C   5,C   4,C   3,H  52)     80.2891         0.010749   
    368. D(N   6,C   5,C   4,C   3)     26.1027         0.011037   
    369. D(H  57,C   5,C   4,C   3)    -91.8024         0.011037   
    370. D(H  56,C   5,C   4,H  55)    -93.1560         0.011037   
    371. D(H  56,C   5,C   4,C   3)    145.6270         0.011037   
    372. D(H  57,C   5,C   4,H  54)    150.8243         0.011037   
    373. D(H  56,C   5,C   4,H  54)     28.2537         0.011037   
    374. D(H  57,C   5,C   4,H  55)     29.4146         0.011037   
    375. D(N   6,C   5,C   4,H  54)    -91.2706         0.011037   
    376. D(N   6,C   5,C   4,H  55)    147.3196         0.011037   
    377. D(C   5,N   6,C   2,C   3)    -16.8033         0.014911   
    378. D(C   7,N   6,C   5,H  57)    -55.2461         0.014291   
    379. D(C   7,N   6,C   5,H  56)     62.4199         0.014291   
    380. D(C   7,N   6,C   5,C   4)   -175.5379         0.014291   
    381. D(C   2,N   6,C   5,H  57)    114.5112         0.014291   
    382. D(C   2,N   6,C   5,H  56)   -127.8227         0.014291   
    383. D(C   7,N   6,C   2,H  51)     34.2626         0.014911   
    384. D(C   2,N   6,C   5,C   4)     -5.7805         0.014291   
    385. D(C   7,N   6,C   2,C   3)    152.1829         0.014911   
    386. D(C   5,N   6,C   2,C   1)    102.0603         0.014911   
    387. D(C   7,N   6,C   2,C   1)    -88.9536         0.014911   
    388. D(C   5,N   6,C   2,H  51)   -134.7236         0.014911   
    389. D(C  24,C   7,N   6,C   5)   -179.7113         0.032270   
    390. D(C  24,C   7,N   6,C   2)     12.0613         0.032270   
    391. D(O   8,C   7,N   6,C   5)     -0.8721         0.032270   
    392. D(O   8,C   7,N   6,C   2)   -169.0996         0.032270   
    393. D(H  58,N   9,C   1,O   0)    171.0500         0.030669   
    394. D(C  10,N   9,C   1,C   2)    168.4834         0.030669   
    395. D(H  58,N   9,C   1,C   2)    -11.9235         0.030669   
    396. D(C  10,N   9,C   1,O   0)     -8.5431         0.030669   
    397. D(H  59,C  10,N   9,C   1)    -16.0464         0.016095   
    398. D(C  48,C  10,N   9,H  58)    -77.6245         0.016095   
    399. D(C  48,C  10,N   9,C   1)    101.9688         0.016095   
    400. D(C  11,C  10,N   9,C   1)   -127.0686         0.016095   
    401. D(H  59,C  10,N   9,H  58)    164.3603         0.016095   
    402. D(C  11,C  10,N   9,H  58)     53.3381         0.016095   
    403. D(O  47,C  11,C  10,N   9)    103.1426         0.009885   
    404. D(N  12,C  11,C  10,H  59)    177.1055         0.009885   
    405. D(N  12,C  11,C  10,C  48)     57.3553         0.009885   
    406. D(N  12,C  11,C  10,N   9)    -71.2916         0.009885   
    407. D(O  47,C  11,C  10,H  59)     -8.4603         0.009885   
    408. D(O  47,C  11,C  10,C  48)   -128.2105         0.009885   
    409. D(H  60,N  12,C  11,O  47)   -165.2122         0.029804   
    410. D(H  60,N  12,C  11,C  10)      9.1623         0.029804   
    411. D(C  13,N  12,C  11,O  47)    -12.9647         0.029804   
    412. D(C  13,N  12,C  11,C  10)    161.4098         0.029804   
    413. D(H  61,C  13,N  12,C  11)     32.1396         0.014821   
    414. D(H  61,C  13,N  12,H  60)   -174.9071         0.014821   
    415. D(C  45,C  13,N  12,H  60)    -54.0913         0.014821   
    416. D(C  45,C  13,N  12,C  11)    152.9553         0.014821   
    417. D(C  14,C  13,N  12,C  11)    -84.2583         0.014821   
    418. D(C  14,C  13,N  12,H  60)     68.6951         0.014821   
    419. D(O  44,C  14,C  13,C  45)     16.0483         0.009671   
    420. D(O  44,C  14,C  13,N  12)   -105.8259         0.009671   
    421. D(N  15,C  14,C  13,H  61)    -44.9772         0.009671   
    422. D(N  15,C  14,C  13,C  45)   -169.2148         0.009671   
    423. D(O  44,C  14,C  13,H  61)    140.2859         0.009671   
    424. D(N  15,C  14,C  13,N  12)     68.9110         0.009671   
    425. D(H  62,N  15,C  14,O  44)    176.4621         0.032757   
    426. D(H  62,N  15,C  14,C  13)      1.8948         0.032757   
    427. D(C  16,N  15,C  14,O  44)     21.4744         0.032757   
    428. D(C  16,N  15,C  14,C  13)   -153.0930         0.032757   
    429. D(H  64,C  16,N  15,H  62)    -97.2127         0.015678   
    430. D(H  64,C  16,N  15,C  14)     57.3966         0.015678   
    431. D(H  63,C  16,N  15,H  62)     17.9346         0.015678   
    432. D(H  63,C  16,N  15,C  14)    172.5440         0.015678   
    433. D(C  17,C  16,N  15,C  14)    -66.1484         0.015678   
    434. D(C  17,C  16,N  15,H  62)    139.2423         0.015678   
    435. D(H  65,C  17,C  16,H  64)    -93.7468         0.010122   
    436. D(H  65,C  17,C  16,H  63)    149.5796         0.010122   
    437. D(H  65,C  17,C  16,N  15)     28.8293         0.010122   
    438. D(O  43,C  17,C  16,H  64)    151.4522         0.010122   
    439. D(O  43,C  17,C  16,H  63)     34.7785         0.010122   
    440. D(O  43,C  17,C  16,N  15)    -85.9717         0.010122   
    441. D(C  18,C  17,C  16,H  64)     25.5064         0.010122   
    442. D(C  18,C  17,C  16,H  63)    -91.1672         0.010122   
    443. D(C  18,C  17,C  16,N  15)    148.0825         0.010122   
    444. D(H  66,C  18,C  17,H  65)    -50.3972         0.009539   
    445. D(H  66,C  18,C  17,O  43)     63.5751         0.009539   
    446. D(H  66,C  18,C  17,C  16)   -169.9393         0.009539   
    447. D(C  32,C  18,C  17,O  43)    -53.4734         0.009539   
    448. D(C  32,C  18,C  17,C  16)     73.0122         0.009539   
    449. D(C  32,C  18,C  17,H  65)   -167.4456         0.009539   
    450. D(C  19,C  18,C  17,H  65)     67.5835         0.009539   
    451. D(C  19,C  18,C  17,O  43)   -178.4443         0.009539   
    452. D(C  19,C  18,C  17,C  16)    -51.9587         0.009539   
    453. D(O  31,C  19,C  18,H  66)    -93.4879         0.009414   
    454. D(O  31,C  19,C  18,C  32)     21.1685         0.009414   
    455. D(O  31,C  19,C  18,C  17)    147.9362         0.009414   
    456. D(N  20,C  19,C  18,H  66)     85.8550         0.009414   
    457. D(N  20,C  19,C  18,C  17)    -32.7209         0.009414   
    458. D(N  20,C  19,C  18,C  32)   -159.4887         0.009414   
    459. D(H  67,N  20,C  19,O  31)   -164.7244         0.032580   
    460. D(H  67,N  20,C  19,C  18)     15.9368         0.032580   
    461. D(C  21,N  20,C  19,O  31)     -7.5034         0.032580   
    462. D(C  21,N  20,C  19,C  18)    173.1578         0.032580   
    463. D(H  68,C  21,N  20,H  67)   -161.4083         0.015873   
    464. D(H  68,C  21,N  20,C  19)     39.9803         0.015873   
    465. D(C  27,C  21,N  20,H  67)    -40.1824         0.015873   
    466. D(C  27,C  21,N  20,C  19)    161.2062         0.015873   
    467. D(C  22,C  21,N  20,H  67)     80.7170         0.015873   
    468. D(C  22,C  21,N  20,C  19)    -77.8944         0.015873   
    469. D(N  23,C  22,C  21,C  27)   -130.9428         0.009939   
    470. D(N  23,C  22,C  21,N  20)    107.6145         0.009939   
    471. D(O  26,C  22,C  21,H  68)    171.8080         0.009939   
    472. D(O  26,C  22,C  21,C  27)     49.9164         0.009939   
    473. D(O  26,C  22,C  21,N  20)    -71.5263         0.009939   
    474. D(N  23,C  22,C  21,H  68)     -9.0512         0.009939   
    475. D(H  69,N  23,C  22,O  26)    172.7149         0.034134   
    476. D(H  69,N  23,C  22,C  21)     -6.4023         0.034134   
    477. D(C  24,N  23,C  22,O  26)     -7.8000         0.034134   
    478. D(C  24,N  23,C  22,C  21)    173.0828         0.034134   
    479. D(H  70,C  24,N  23,H  69)   -165.3659         0.015008   
    480. D(H  70,C  24,N  23,C  22)     15.1538         0.015008   
    481. D(C  25,C  24,N  23,H  69)     76.2269         0.015008   
    482. D(C  25,C  24,N  23,C  22)   -103.2534         0.015008   
    483. D(C   7,C  24,N  23,H  69)    -46.7526         0.015008   
    484. D(C   7,C  24,N  23,C  22)    133.7671         0.015008   
    485. D(H  70,C  24,C   7,O   8)   -142.8868         0.009204   
    486. D(H  70,C  24,C   7,N   6)     35.9708         0.009204   
    487. D(C  25,C  24,C   7,O   8)    -22.2903         0.009204   
    488. D(C  25,C  24,C   7,N   6)    156.5673         0.009204   
    489. D(N  23,C  24,C   7,O   8)    100.8075         0.009204   
    490. D(N  23,C  24,C   7,N   6)    -80.3349         0.009204   
    491. D(H  73,C  25,C  24,H  70)    179.1952         0.011427   
    492. D(H  73,C  25,C  24,N  23)    -64.5521         0.011427   
    493. D(H  73,C  25,C  24,C   7)     58.4540         0.011427   
    494. D(H  72,C  25,C  24,H  70)     60.3583         0.011427   
    495. D(H  72,C  25,C  24,N  23)    176.6111         0.011427   
    496. D(H  72,C  25,C  24,C   7)    -60.3829         0.011427   
    497. D(H  71,C  25,C  24,H  70)    -59.5713         0.011427   
    498. D(H  71,C  25,C  24,N  23)     56.6814         0.011427   
    499. D(H  71,C  25,C  24,C   7)    179.6875         0.011427   
    500. D(H  75,C  27,C  21,H  68)   -176.0855         0.011127   
    501. D(H  75,C  27,C  21,C  22)    -55.3250         0.011127   
    502. D(H  75,C  27,C  21,N  20)     64.9515         0.011127   
    503. D(H  74,C  27,C  21,H  68)    -60.7039         0.011127   
    504. D(H  74,C  27,C  21,C  22)     60.0566         0.011127   
    505. D(H  74,C  27,C  21,N  20)   -179.6669         0.011127   
    506. D(C  28,C  27,C  21,H  68)     61.3828         0.011127   
    507. D(C  28,C  27,C  21,C  22)   -177.8567         0.011127   
    508. D(C  28,C  27,C  21,N  20)    -57.5802         0.011127   
    509. D(H  76,C  28,C  27,H  75)    -61.6133         0.010691   
    510. D(H  76,C  28,C  27,H  74)   -178.7770         0.010691   
    511. D(H  76,C  28,C  27,C  21)     59.9527         0.010691   
    512. D(C  30,C  28,C  27,H  75)    179.4979         0.010691   
    513. D(C  30,C  28,C  27,H  74)     62.3342         0.010691   
    514. D(C  30,C  28,C  27,C  21)    -58.9361         0.010691   
    515. D(C  29,C  28,C  27,H  75)     55.3960         0.010691   
    516. D(C  29,C  28,C  27,H  74)    -61.7677         0.010691   
    517. D(C  29,C  28,C  27,C  21)    176.9620         0.010691   
    518. D(H  79,C  29,C  28,C  30)     58.0491         0.010969   
    519. D(H  79,C  29,C  28,C  27)   -177.1753         0.010969   
    520. D(H  78,C  29,C  28,H  76)    179.9909         0.010969   
    521. D(H  78,C  29,C  28,C  30)    -61.6543         0.010969   
    522. D(H  78,C  29,C  28,C  27)     63.1213         0.010969   
    523. D(H  77,C  29,C  28,H  76)     59.9892         0.010969   
    524. D(H  77,C  29,C  28,C  30)    178.3440         0.010969   
    525. D(H  79,C  29,C  28,H  76)    -60.3057         0.010969   
    526. D(H  77,C  29,C  28,C  27)    -56.8804         0.010969   
    527. D(H  82,C  30,C  28,H  76)   -176.9035         0.010967   
    528. D(H  82,C  30,C  28,C  29)     64.8780         0.010967   
    529. D(H  82,C  30,C  28,C  27)    -58.2777         0.010967   
    530. D(H  81,C  30,C  28,H  76)     63.6987         0.010967   
    531. D(H  81,C  30,C  28,C  29)    -54.5198         0.010967   
    532. D(H  81,C  30,C  28,C  27)   -177.6756         0.010967   
    533. D(H  80,C  30,C  28,H  76)    -56.2324         0.010967   
    534. D(H  80,C  30,C  28,C  29)   -174.4509         0.010967   
    535. D(H  80,C  30,C  28,C  27)     62.3933         0.010967   
    536. D(O  42,C  32,C  18,H  66)   -136.1436         0.010121   
    537. D(O  42,C  32,C  18,C  19)    109.6723         0.010121   
    538. D(O  42,C  32,C  18,C  17)    -18.8890         0.010121   
    539. D(C  33,C  32,C  18,H  66)     40.1603         0.010121   
    540. D(C  33,C  32,C  18,C  19)    -74.0237         0.010121   
    541. D(C  33,C  32,C  18,C  17)    157.4150         0.010121   
    542. D(H  84,C  33,C  32,O  42)     83.0375         0.011756   
    543. D(H  84,C  33,C  32,C  18)    -93.2048         0.011756   
    544. D(H  83,C  33,C  32,O  42)   -162.6661         0.011756   
    545. D(H  83,C  33,C  32,C  18)     21.0917         0.011756   
    546. D(C  34,C  33,C  32,O  42)    -37.1594         0.011756   
    547. D(C  34,C  33,C  32,C  18)    146.5983         0.011756   
    548. D(H  86,C  34,C  33,H  84)    -73.5668         0.010810   
    549. D(H  86,C  34,C  33,H  83)    167.8331         0.010810   
    550. D(H  86,C  34,C  33,C  32)     43.1238         0.010810   
    551. D(H  85,C  34,C  33,H  84)     42.4867         0.010810   
    552. D(H  85,C  34,C  33,H  83)    -76.1133         0.010810   
    553. D(H  85,C  34,C  33,C  32)    159.1773         0.010810   
    554. D(C  35,C  34,C  33,H  84)    164.0614         0.010810   
    555. D(C  35,C  34,C  33,H  83)     45.4614         0.010810   
    556. D(C  35,C  34,C  33,C  32)    -79.2480         0.010810   
    557. D(H  88,C  35,C  34,H  86)    177.5826         0.011119   
    558. D(H  88,C  35,C  34,H  85)     60.2757         0.011119   
    559. D(H  88,C  35,C  34,C  33)    -61.0594         0.011119   
    560. D(H  87,C  35,C  34,H  86)    -68.4020         0.011119   
    561. D(H  87,C  35,C  34,H  85)    174.2911         0.011119   
    562. D(H  87,C  35,C  34,C  33)     52.9560         0.011119   
    563. D(C  36,C  35,C  34,H  86)     54.5763         0.011119   
    564. D(C  36,C  35,C  34,H  85)    -62.7305         0.011119   
    565. D(C  36,C  35,C  34,C  33)    175.9344         0.011119   
    566. D(H  90,C  36,C  35,H  87)     57.0241         0.011317   
    567. D(H  90,C  36,C  35,C  34)    -66.1698         0.011317   
    568. D(H  89,C  36,C  35,H  88)    -72.8676         0.011317   
    569. D(H  89,C  36,C  35,H  87)    172.9752         0.011317   
    570. D(H  89,C  36,C  35,C  34)     49.7813         0.011317   
    571. D(C  37,C  36,C  35,H  88)     49.6476         0.011317   
    572. D(C  37,C  36,C  35,H  87)    -64.5096         0.011317   
    573. D(H  90,C  36,C  35,H  88)    171.1813         0.011317   
    574. D(C  37,C  36,C  35,C  34)    172.2965         0.011317   
    575. D(H  92,C  37,C  36,H  90)    169.7816         0.011008   
    576. D(H  92,C  37,C  36,H  89)     53.9803         0.011008   
    577. D(H  92,C  37,C  36,C  35)    -68.8806         0.011008   
    578. D(H  91,C  37,C  36,H  90)    -75.4642         0.011008   
    579. D(H  91,C  37,C  36,H  89)    168.7344         0.011008   
    580. D(H  91,C  37,C  36,C  35)     45.8735         0.011008   
    581. D(C  38,C  37,C  36,H  90)     46.5414         0.011008   
    582. D(C  38,C  37,C  36,H  89)    -69.2600         0.011008   
    583. D(C  38,C  37,C  36,C  35)    167.8791         0.011008   
    584. D(H  94,C  38,C  37,H  92)   -176.2569         0.011209   
    585. D(H  94,C  38,C  37,H  91)     69.1651         0.011209   
    586. D(H  94,C  38,C  37,C  36)    -53.2171         0.011209   
    587. D(H  93,C  38,C  37,H  92)    -60.7529         0.011209   
    588. D(H  93,C  38,C  37,H  91)   -175.3309         0.011209   
    589. D(H  93,C  38,C  37,C  36)     62.2868         0.011209   
    590. D(C  39,C  38,C  37,H  92)     62.5521         0.011209   
    591. D(C  39,C  38,C  37,H  91)    -52.0259         0.011209   
    592. D(C  39,C  38,C  37,C  36)   -174.4081         0.011209   
    593. D(H  95,C  39,C  38,H  94)    -66.1624         0.011147   
    594. D(H  95,C  39,C  38,H  93)    178.3137         0.011147   
    595. D(H  95,C  39,C  38,C  37)     55.1156         0.011147   
    596. D(C  40,C  39,C  38,H  94)     56.0349         0.011147   
    597. D(C  40,C  39,C  38,H  93)    -59.4890         0.011147   
    598. D(C  40,C  39,C  38,C  37)    177.3129         0.011147   
    599. D(H  96,C  39,C  38,H  94)    178.3838         0.011147   
    600. D(H  96,C  39,C  38,H  93)     62.8599         0.011147   
    601. D(H  96,C  39,C  38,C  37)    -60.3382         0.011147   
    602. D(H  98,C  40,C  39,H  95)     64.2791         0.011113   
    603. D(H  98,C  40,C  39,C  38)    -57.4865         0.011113   
    604. D(H  97,C  40,C  39,H  96)    -64.3902         0.011113   
    605. D(H  97,C  40,C  39,H  95)    179.7523         0.011113   
    606. D(H  97,C  40,C  39,C  38)     57.9867         0.011113   
    607. D(C  41,C  40,C  39,H  96)     58.1601         0.011113   
    608. D(C  41,C  40,C  39,H  95)    -57.6975         0.011113   
    609. D(H  98,C  40,C  39,H  96)   -179.8633         0.011113   
    610. D(C  41,C  40,C  39,C  38)   -179.4631         0.011113   
    611. D(H 101,C  41,C  40,H  98)    -62.5326         0.011146   
    612. D(H 101,C  41,C  40,H  97)   -178.4203         0.011146   
    613. D(H 101,C  41,C  40,C  39)     59.1631         0.011146   
    614. D(H 100,C  41,C  40,H  98)    178.0671         0.011146   
    615. D(H 100,C  41,C  40,H  97)     62.1793         0.011146   
    616. D(H 100,C  41,C  40,C  39)    -60.2373         0.011146   
    617. D(H  99,C  41,C  40,H  98)     57.8050         0.011146   
    618. D(H  99,C  41,C  40,H  97)    -58.0827         0.011146   
    619. D(H  99,C  41,C  40,C  39)    179.5006         0.011146   
    620. D(H 102,O  43,C  17,H  65)   -177.9310         0.019060   
    621. D(H 102,O  43,C  17,C  18)     65.9640         0.019060   
    622. D(H 102,O  43,C  17,C  16)    -60.7526         0.019060   
    623. D(H 104,C  45,C  13,H  61)    177.8949         0.011636   
    624. D(H 104,C  45,C  13,C  14)    -58.5750         0.011636   
    625. D(H 104,C  45,C  13,N  12)     60.0189         0.011636   
    626. D(H 103,C  45,C  13,H  61)    -67.9691         0.011636   
    627. D(H 103,C  45,C  13,C  14)     55.5610         0.011636   
    628. D(H 103,C  45,C  13,N  12)    174.1550         0.011636   
    629. D(C  46,C  45,C  13,H  61)     54.4575         0.011636   
    630. D(C  46,C  45,C  13,C  14)    177.9876         0.011636   
    631. D(C  46,C  45,C  13,N  12)    -63.4184         0.011636   
    632. D(H 107,C  46,C  45,H 104)    -62.9837         0.011268   
    633. D(H 107,C  46,C  45,H 103)   -179.9125         0.011268   
    634. D(H 107,C  46,C  45,C  13)     59.2529         0.011268   
    635. D(H 106,C  46,C  45,H 104)    177.1533         0.011268   
    636. D(H 106,C  46,C  45,H 103)     60.2245         0.011268   
    637. D(H 106,C  46,C  45,C  13)    -60.6101         0.011268   
    638. D(H 105,C  46,C  45,H 104)     57.1196         0.011268   
    639. D(H 105,C  46,C  45,H 103)    -59.8092         0.011268   
    640. D(H 105,C  46,C  45,C  13)    179.3562         0.011268   
    641. D(H 108,C  48,C  10,H  59)     55.8633         0.009951   
    642. D(H 108,C  48,C  10,C  11)    174.3838         0.009951   
    643. D(H 108,C  48,C  10,N   9)    -61.2731         0.009951   
    644. D(C  50,C  48,C  10,H  59)    173.2343         0.009951   
    645. D(C  50,C  48,C  10,C  11)    -68.2452         0.009951   
    646. D(C  50,C  48,C  10,N   9)     56.0979         0.009951   
    647. D(C  49,C  48,C  10,H  59)    -59.9078         0.009951   
    648. D(C  49,C  48,C  10,C  11)     58.6127         0.009951   
    649. D(C  49,C  48,C  10,N   9)   -177.0442         0.009951   
    650. D(H 111,C  49,C  48,C  50)     63.2392         0.011006   
    651. D(H 111,C  49,C  48,C  10)    -65.9322         0.011006   
    652. D(H 110,C  49,C  48,H 108)     61.9432         0.011006   
    653. D(H 110,C  49,C  48,C  50)    -56.1814         0.011006   
    654. D(H 110,C  49,C  48,C  10)    174.6472         0.011006   
    655. D(H 109,C  49,C  48,H 108)    -58.4749         0.011006   
    656. D(H 109,C  49,C  48,C  50)   -176.5994         0.011006   
    657. D(H 111,C  49,C  48,H 108)   -178.6363         0.011006   
    658. D(H 109,C  49,C  48,C  10)     54.2292         0.011006   
    659. D(H 114,C  50,C  48,H 108)    -49.9013         0.010878   
    660. D(H 114,C  50,C  48,C  49)     68.8097         0.010878   
    661. D(H 114,C  50,C  48,C  10)   -165.1195         0.010878   
    662. D(H 113,C  50,C  48,H 108)   -168.0273         0.010878   
    663. D(H 113,C  50,C  48,C  49)    -49.3163         0.010878   
    664. D(H 113,C  50,C  48,C  10)     76.7545         0.010878   
    665. D(H 112,C  50,C  48,H 108)     69.8058         0.010878   
    666. D(H 112,C  50,C  48,C  49)   -171.4833         0.010878   
    667. D(H 112,C  50,C  48,C  10)    -45.4125         0.010878   
    -----------------------------------------------------------------

Number of atoms                         .... 115
Number of degrees of freedom            .... 667

         *************************************************************
         *                GEOMETRY OPTIMIZATION CYCLE   1            *
         *************************************************************
---------------------------------
CARTESIAN COORDINATES (ANGSTROEM)
---------------------------------
  O      3.689800    2.787230    0.343573
  C      3.032658    1.748382    0.382057
  C      1.558365    1.681003   -0.070376
  C      1.398152    2.321343   -1.462904
  C      1.140703    3.802793   -1.153156
  C      0.287615    3.765927    0.118073
  N      0.656926    2.490562    0.760814
  C      0.015405    2.083285    1.885766
  O     -0.873926    2.755737    2.416468
  N      3.535655    0.538566    0.761194
  C      4.958062    0.309723    0.990870
  C      5.316363   -0.907655    0.121974
  N      4.831611   -2.118172    0.534250
  C      4.756090   -3.255587   -0.394131
  C      3.429065   -3.081299   -1.158301
  N      3.413850   -2.025492   -2.008518
  C      2.183969   -1.329419   -2.384883
  C      1.193293   -2.175961   -3.213084
  C     -0.286876   -1.796273   -2.937191
  C     -0.697606   -1.781645   -1.447634
  N     -0.077170   -2.681775   -0.644825
  C     -0.301240   -2.627529    0.797641
  C      0.541336   -1.485430    1.388022
  N     -0.142177   -0.390839    1.786172
  C      0.464858    0.736776    2.504683
  C      0.113667    0.685021    3.989208
  O      1.781324   -1.583155    1.467456
  C      0.084773   -3.953398    1.456894
  C     -0.660698   -5.177871    0.905288
  C     -0.136429   -6.446054    1.587021
  C     -2.180157   -5.053505    1.059422
  O     -1.555071   -0.998079   -1.019228
  C     -0.663440   -0.446562   -3.562642
  C     -2.123164   -0.167900   -3.845808
  C     -2.510263    1.307470   -3.679011
  C     -2.710050    1.687336   -2.210108
  C     -3.001651    3.167814   -1.970847
  C     -3.376554    3.446677   -0.512076
  C     -3.395671    4.929069   -0.137274
  C     -3.639709    5.161249    1.355139
  C     -3.597468    6.636394    1.760450
  C     -3.830153    6.851445    3.257249
  O      0.215415    0.346890   -3.882706
  O      1.483123   -2.126747   -4.607891
  O      2.444477   -3.797988   -0.917242
  C      4.839897   -4.584013    0.347601
  C      6.176424   -4.774941    1.064003
  O      5.920766   -0.772477   -0.947700
  C      5.360323    0.281260    2.483892
  C      6.877328    0.109506    2.608815
  C      4.610370   -0.737663    3.350480
  H      1.216144    0.637746   -0.076813
  H      0.534541    1.867632   -1.966383
  H      2.280143    2.160826   -2.094188
  H      2.093250    4.309605   -0.958040
  H      0.625637    4.316282   -1.974978
  H      0.483157    4.600519    0.804122
  H     -0.789212    3.759691   -0.097696
  H      2.883235   -0.245562    0.897163
  H      5.478776    1.157096    0.525356
  H      4.154060   -2.129889    1.296204
  H      5.601461   -3.138095   -1.087960
  H      4.286101   -1.493251   -2.064356
  H      2.464466   -0.445128   -2.966199
  H      1.696910   -0.963729   -1.467271
  H      1.327447   -3.230335   -2.941871
  H     -0.917472   -2.562366   -3.422840
  H      0.788931   -3.167762   -0.940830
  H     -1.365642   -2.406239    0.952880
  H     -1.138571   -0.356197    1.578842
  H      1.548876    0.620047    2.383513
  H      0.433178   -0.276732    4.412124
  H      0.621555    1.497164    4.525241
  H     -0.965648    0.814173    4.135824
  H     -0.107795   -3.863413    2.539734
  H      1.168997   -4.091320    1.333023
  H     -0.430582   -5.252476   -0.170976
  H      0.949775   -6.549584    1.450762
  H     -0.341230   -6.422914    2.669359
  H     -0.617402   -7.345083    1.175534
  H     -2.584881   -4.202033    0.493818
  H     -2.685570   -5.959332    0.694971
  H     -2.456995   -4.920389    2.117831
  H     -2.754658   -0.819732   -3.227404
  H     -2.263111   -0.486524   -4.896969
  H     -3.437525    1.503484   -4.240209
  H     -1.725817    1.931772   -4.134795
  H     -1.819799    1.396598   -1.630321
  H     -3.529227    1.077805   -1.792162
  H     -3.811969    3.512467   -2.636993
  H     -2.112404    3.763444   -2.245367
  H     -2.667072    2.924146    0.153324
  H     -4.362070    2.997894   -0.297884
  H     -4.160180    5.457866   -0.733607
  H     -2.428609    5.384896   -0.417408
  H     -2.883294    4.599529    1.929442
  H     -4.618677    4.733484    1.636542
  H     -4.351386    7.198291    1.182260
  H     -2.618931    7.059607    1.475135
  H     -3.786780    7.916689    3.526952
  H     -4.815932    6.468669    3.563344
  H     -3.071299    6.321882    3.852794
  H      1.401808   -1.186768   -4.863715
  H      4.672449   -5.389288   -0.382740
  H      4.000391   -4.647554    1.057380
  H      6.201462   -5.734679    1.597612
  H      7.015341   -4.762742    0.352581
  H      6.353377   -3.975975    1.797833
  H      5.091017    1.287770    2.846582
  H      7.418412    0.876079    2.036399
  H      7.192639    0.182279    3.659090
  H      7.192379   -0.876629    2.233459
  H      3.526847   -0.731384    3.162410
  H      4.985534   -1.760201    3.192075
  H      4.763109   -0.507420    4.414207

----------------------------
CARTESIAN COORDINATES (A.U.)
----------------------------
  NO LB      ZA    FRAG     MASS         X           Y           Z
   0 O     8.0000    0    15.999    6.972712    5.267102    0.649258
   1 C     6.0000    0    12.011    5.730893    3.303964    0.721982
   2 C     6.0000    0    12.011    2.944884    3.176636   -0.132991
   3 C     6.0000    0    12.011    2.642124    4.386703   -2.764487
   4 C     6.0000    0    12.011    2.155616    7.186238   -2.179148
   5 C     6.0000    0    12.011    0.543513    7.116570    0.223125
   6 N     7.0000    0    14.007    1.241409    4.706481    1.437730
   7 C     6.0000    0    12.011    0.029110    3.936838    3.563582
   8 O     8.0000    0    15.999   -1.651481    5.207588    4.566463
   9 N     7.0000    0    14.007    6.681421    1.017743    1.438449
  10 C     6.0000    0    12.011    9.369379    0.585291    1.872474
  11 C     6.0000    0    12.011   10.046470   -1.715220    0.230497
  12 N     7.0000    0    14.007    9.130421   -4.002765    1.009587
  13 C     6.0000    0    12.011    8.987707   -6.152168   -0.744801
  14 C     6.0000    0    12.011    6.479993   -5.822811   -2.188871
  15 N     7.0000    0    14.007    6.451241   -3.827625   -3.795548
  16 C     6.0000    0    12.011    4.127104   -2.512238   -4.506776
  17 C     6.0000    0    12.011    2.254996   -4.111971   -6.071850
  18 C     6.0000    0    12.011   -0.542117   -3.394464   -5.550486
  19 C     6.0000    0    12.011   -1.318284   -3.366821   -2.735633
  20 N     7.0000    0    14.007   -0.145830   -5.067820   -1.218542
  21 C     6.0000    0    12.011   -0.569261   -4.965311    1.507323
  22 C     6.0000    0    12.011    1.022977   -2.807056    2.622981
  23 N     7.0000    0    14.007   -0.268676   -0.738578    3.375375
  24 C     6.0000    0    12.011    0.878454    1.392304    4.733165
  25 C     6.0000    0    12.011    0.214800    1.294502    7.538510
  26 O     8.0000    0    15.999    3.366214   -2.991730    2.773089
  27 C     6.0000    0    12.011    0.160198   -7.470839    2.753131
  28 C     6.0000    0    12.011   -1.248539   -9.784758    1.710746
  29 C     6.0000    0    12.011   -0.257814  -12.181277    2.999035
  30 C     6.0000    0    12.011   -4.119899   -9.549741    2.002017
  31 O     8.0000    0    15.999   -2.938658   -1.886097   -1.926062
  32 C     6.0000    0    12.011   -1.253721   -0.843880   -6.732418
  33 C     6.0000    0    12.011   -4.012199   -0.317285   -7.267524
  34 C     6.0000    0    12.011   -4.743709    2.470759   -6.952323
  35 C     6.0000    0    12.011   -5.121253    3.188603   -4.176499
  36 C     6.0000    0    12.011   -5.672299    5.986301   -3.724361
  37 C     6.0000    0    12.011   -6.380763    6.513277   -0.967684
  38 C     6.0000    0    12.011   -6.416888    9.314591   -0.259411
  39 C     6.0000    0    12.011   -6.878054    9.753347    2.560842
  40 C     6.0000    0    12.011   -6.798229   12.540966    3.326768
  41 C     6.0000    0    12.011   -7.237940   12.947355    6.155309
  42 O     8.0000    0    15.999    0.407074    0.655527   -7.337251
  43 O     8.0000    0    15.999    2.802697   -4.018970   -8.707652
  44 O     8.0000    0    15.999    4.619392   -7.177156   -1.733335
  45 C     6.0000    0    12.011    9.146080   -8.662529    0.656871
  46 C     6.0000    0    12.011   11.671750   -9.023331    2.010675
  47 O     8.0000    0    15.999   11.188626   -1.459769   -1.790893
  48 C     6.0000    0    12.011   10.129543    0.531504    4.693876
  49 C     6.0000    0    12.011   12.996266    0.206936    4.929946
  50 C     6.0000    0    12.011    8.712336   -1.393980    6.331489
  51 H     1.0000    0     1.008    2.298179    1.205165   -0.145155
  52 H     1.0000    0     1.008    1.010136    3.529313   -3.715925
  53 H     1.0000    0     1.008    4.308847    4.083370   -3.957441
  54 H     1.0000    0     1.008    3.955669    8.143973   -1.810433
  55 H     1.0000    0     1.008    1.182283    8.156591   -3.732168
  56 H     1.0000    0     1.008    0.913035    8.693721    1.519570
  57 H     1.0000    0     1.008   -1.491394    7.104787   -0.184619
  58 H     1.0000    0     1.008    5.448524   -0.464044    1.695392
  59 H     1.0000    0     1.008   10.353386    2.186594    0.992779
  60 H     1.0000    0     1.008    7.850037   -4.024907    2.449472
  61 H     1.0000    0     1.008   10.585227   -5.930141   -2.055946
  62 H     1.0000    0     1.008    8.099557   -2.821836   -3.901067
  63 H     1.0000    0     1.008    4.657165   -0.841170   -5.605305
  64 H     1.0000    0     1.008    3.206695   -1.821184   -2.772740
  65 H     1.0000    0     1.008    2.508511   -6.104448   -5.559330
  66 H     1.0000    0     1.008   -1.733771   -4.842169   -6.468231
  67 H     1.0000    0     1.008    1.490864   -5.986202   -1.777911
  68 H     1.0000    0     1.008   -2.580690   -4.547133    1.800683
  69 H     1.0000    0     1.008   -2.151587   -0.673115    2.983579
  70 H     1.0000    0     1.008    2.926952    1.171720    4.504187
  71 H     1.0000    0     1.008    0.818588   -0.522947    8.337705
  72 H     1.0000    0     1.008    1.174568    2.829230    8.551465
  73 H     1.0000    0     1.008   -1.824810    1.538564    7.815575
  74 H     1.0000    0     1.008   -0.203704   -7.300792    4.799401
  75 H     1.0000    0     1.008    2.209085   -7.731474    2.519049
  76 H     1.0000    0     1.008   -0.813683   -9.925741   -0.323098
  77 H     1.0000    0     1.008    1.794814  -12.376920    2.741543
  78 H     1.0000    0     1.008   -0.644830  -12.137548    5.044357
  79 H     1.0000    0     1.008   -1.166720  -13.880195    2.221437
  80 H     1.0000    0     1.008   -4.884717   -7.940691    0.933180
  81 H     1.0000    0     1.008   -5.074992  -11.261505    1.313306
  82 H     1.0000    0     1.008   -4.643048   -9.298187    4.002121
  83 H     1.0000    0     1.008   -5.205550   -1.549069   -6.098910
  84 H     1.0000    0     1.008   -4.276661   -0.919396   -9.253931
  85 H     1.0000    0     1.008   -6.495981    2.841173   -8.012833
  86 H     1.0000    0     1.008   -3.261322    3.650520   -7.813630
  87 H     1.0000    0     1.008   -3.438921    2.639187   -3.080860
  88 H     1.0000    0     1.008   -6.669272    2.036757   -3.386696
  89 H     1.0000    0     1.008   -7.203577    6.637601   -4.983194
  90 H     1.0000    0     1.008   -3.991865    7.111878   -4.243128
  91 H     1.0000    0     1.008   -5.040036    5.525835    0.289740
  92 H     1.0000    0     1.008   -8.243119    5.665199   -0.562919
  93 H     1.0000    0     1.008   -7.861601   10.313872   -1.386317
  94 H     1.0000    0     1.008   -4.589405   10.175979   -0.788787
  95 H     1.0000    0     1.008   -5.448635    8.691850    3.646118
  96 H     1.0000    0     1.008   -8.728035    8.944989    3.092616
  97 H     1.0000    0     1.008   -8.222928   13.602799    2.234148
  98 H     1.0000    0     1.008   -4.949062   13.340723    2.787601
  99 H     1.0000    0     1.008   -7.155978   14.960374    6.664973
 100 H     1.0000    0     1.008   -9.100793   12.224013    6.733745
 101 H     1.0000    0     1.008   -5.803915   11.946626    7.280725
 102 H     1.0000    0     1.008    2.649032   -2.242667   -9.191089
 103 H     1.0000    0     1.008    8.829649  -10.184279   -0.723274
 104 H     1.0000    0     1.008    7.559643   -8.782604    1.998159
 105 H     1.0000    0     1.008   11.719065  -10.836972    3.019049
 106 H     1.0000    0     1.008   13.257074   -9.000278    0.666282
 107 H     1.0000    0     1.008   12.006142   -7.513504    3.397413
 108 H     1.0000    0     1.008    9.620628    2.433532    5.379261
 109 H     1.0000    0     1.008   14.018767    1.655549    3.848237
 110 H     1.0000    0     1.008   13.592117    0.344458    6.914678
 111 H     1.0000    0     1.008   13.591627   -1.656588    4.220626
 112 H     1.0000    0     1.008    6.664775   -1.382115    5.976089
 113 H     1.0000    0     1.008    9.421293   -3.326299    6.032148
 114 H     1.0000    0     1.008    9.000972   -0.958884    8.341643

--------------------------------
INTERNAL COORDINATES (ANGSTROEM)
--------------------------------
 O      0   0   0     0.000000000000     0.00000000     0.00000000
 C      1   0   0     1.229846329003     0.00000000     0.00000000
 C      2   1   0     1.543623731871   122.54957849     0.00000000
 C      3   2   1     1.541050884093   110.24324241    49.85599428
 C      4   3   2     1.535225868738   103.65562737   271.43179837
 C      5   4   3     1.531384899564   103.74914649   323.45516665
 N      3   2   1     1.469304474934   113.33476327   295.48358357
 C      7   3   2     1.357549882253   126.39859332   271.04644180
 O      8   7   3     1.234805772719   122.21608277   190.90044873
 N      2   1   3     1.363967220372   124.11689500   176.75892115
 C     10   2   1     1.458890281257   122.85038113   351.45694857
 C     11  10   2     1.537976273380   105.21030704   232.93143851
 N     12  11  10     1.367591638291   116.59883320   288.70844934
 C     13  12  11     1.470139241784   120.84085003   161.40977893
 C     14  13  12     1.541209544351   105.65525436   275.74173702
 N     15  14  13     1.355665429110   114.12294361    68.91097375
 C     16  15  14     1.462455234221   122.78736664   206.90702539
 C     17  16  15     1.544017735699   114.62454057   293.85162276
 C     18  17  16     1.552797490866   112.47281811   148.08251128
 C     19  18  17     1.545215213172   115.27511505   308.04126689
 N     20  19  18     1.356347335299   116.27625546   327.27905100
 C     21  20  19     1.460772804230   119.31841481   173.15782281
 C     22  21  20     1.537164385543   108.83049654   282.10558442
 N     23  22  21     1.350497887689   115.97693906   107.61453532
 C     24  23  22     1.468422667860   123.87807665   173.08278100
 C     25  24  23     1.526377138855   110.77753490   256.74656072
 O     23  22  21     1.246366306709   120.76729974   288.47369768
 C     22  21  20     1.530211973913   110.76616275   161.20617457
 C     28  22  21     1.536011588505   114.42972463   302.41980084
 C     29  28  22     1.532287948433   109.50846182   176.96199608
 C     29  28  22     1.532311172569   112.36059125   301.06391348
 O     20  19  18     1.238044218743   121.57803345   147.93621620
 C     19  18  17     1.534506392470   112.12156692    73.01220857
 C     33  19  18     1.512821867580   118.36548289   157.41501363
 C     34  33  19     1.534399419599   113.59020177   146.59828223
 C     35  34  33     1.530323102704   112.08334365   280.75201039
 C     36  35  34     1.527773538812   114.56860717   175.93435755
 C     37  36  35     1.531773035644   111.85603915   172.29647439
 C     38  37  36     1.529158990548   114.39131586   167.87914187
 C     39  38  37     1.529954460759   112.84240372   185.59187581
 C     40  39  38     1.530396257330   113.59169524   177.31289284
 C     41  40  39     1.529966786525   112.97854065   180.53690784
 O     33  19  18     1.226537101384   119.96856705   341.11104911
 O     18  17  16     1.425450278213   112.05366781   274.02828156
 O     15  14  13     1.241436654160   121.42095158   254.17406060
 C     14  13  12     1.523780014929   111.36279226   152.95530411
 C     46  14  13     1.528394531054   112.65395527   296.58158394
 O     12  11  10     1.236032797109   121.08260167   103.14264249
 C     11  10   2     1.546524702282   114.10903794   101.96881779
 C     49  11  10     1.531798588183   109.77880840   182.95577424
 C     49  11  10     1.533494927991   115.50437495    56.09789217
 H      3   2   1     1.097972331873   109.93042503   172.44388075
 H      4   3   2     1.097801335431   108.93395239   153.11269686
 H      4   3   2     1.096446538566   112.07399939    33.72162690
 H      5   4   3     1.096482632758   109.64835331    81.29942976
 H      5   4   3     1.097431439249   112.27955276   202.55713780
 H      6   5   4     1.097927359084   113.65261662   145.62703674
 H      6   5   4     1.098248792996   112.53512139   268.19763870
 H     10   2   1     1.029075548892   118.60609946   171.05003195
 H     11  10   2     1.098128780237   105.93485718   343.95364261
 H     13  12  11     1.019699032358   118.09638839     9.16226940
 H     14  13  12     1.099933769183   106.03451563    32.13955051
 H     16  15  14     1.023337580577   115.44953704     1.89477938
 H     17  16  15     1.094795608027   107.79607750   172.54398918
 H     17  16  15     1.101348495450   108.39276304    57.39664719
 H     18  17  16     1.096930943177   108.41571177    28.82930835
 H     19  18  17     1.104719264951   107.24424085   190.06065521
 H     21  20  19     1.036307627262   121.63180751    15.93683795
 H     22  21  20     1.098189879403   107.20208567    39.98029612
 H     24  23  22     1.018324613503   117.56581243   353.59767942
 H     25  24  23     1.096997476035   105.82760619    15.15378024
 H     26  25  24     1.098140892311   109.71320194    56.68141544
 H     26  25  24     1.097659735422   110.08448209   176.61108790
 H     26  25  24     1.096858214920   110.63497409   295.44794376
 H     28  22  21     1.103504278922   107.94357486   180.33308725
 H     28  22  21     1.099958377759   107.98569908    64.95145302
 H     29  28  22     1.103115281846   107.64066892    59.95268460
 H     30  29  28     1.099601756220   111.14758203   303.11963833
 H     30  29  28     1.101786424446   110.85948610    63.12134130
 H     30  29  28     1.099504252928   111.13436629   182.82474735
 H     31  29  28     1.099415776526   112.09530351    62.39332416
 H     31  29  28     1.099449376306   110.83196014   182.32444539
 H     31  29  28     1.102084634815   110.82375348   301.72226220
 H     34  33  19     1.098222343206   109.88325550    21.09166787
 H     34  33  19     1.107269739067   104.27882043   266.79521075
 H     35  34  33     1.101444446630   109.15429625   159.17731396
 H     35  34  33     1.101293371359   108.68625065    43.12376230
 H     36  35  34     1.101467179435   109.52465074    52.95600932
 H     36  35  34     1.103293738004   108.86922301   298.94060487
 H     37  36  35     1.104151439724   110.36931741    49.78132815
 H     37  36  35     1.104941884919   109.25999372   293.83016614
 H     38  37  36     1.104156764530   109.29854042    45.87354098
 H     38  37  36     1.103869053465   109.22542033   291.11937360
 H     39  38  37     1.104406394069   109.90559406    62.28683726
 H     39  38  37     1.105197981710   109.07225407   306.78285597
 H     40  39  38     1.103412066558   108.72989596    55.11561977
 H     40  39  38     1.104783976943   109.33227337   299.66182958
 H     41  40  39     1.103822928212   109.45654671    57.98668820
 H     41  40  39     1.103652266864   109.00363924   302.51352883
 H     42  41  40     1.099710936112   111.72105672   179.50062271
 H     42  41  40     1.100896563450   111.05870342   299.76269845
 H     42  41  40     1.100440492766   110.91223491    59.16305877
 H     44  18  17     0.977557751741   105.80452926   299.24740291
 H     46  14  13     1.099957173567   107.85828345   174.15497379
 H     46  14  13     1.101178508617   108.79177859    60.01892386
 H     47  46  14     1.098389912715   110.90369397   179.35621006
 H     47  46  14     1.100023624932   111.24583115   299.38991050
 H     47  46  14     1.099166137483   111.27901174    59.25289755
 H     49  11  10     1.103237207680   103.71503827   298.72685221
 H     50  49  11     1.099120853014   111.52211234    54.22915861
 H     50  49  11     1.098996635274   110.77199863   174.64721821
 H     50  49  11     1.101186180120   110.85174860   294.06779925
 H     51  49  11     1.099741571095   112.42059635   314.58752241
 H     51  49  11     1.100647731982   111.67035092    76.75448768
 H     51  49  11     1.099025691947   109.86408910   194.88048756

---------------------------
INTERNAL COORDINATES (A.U.)
---------------------------
 O      0   0   0     0.000000000000     0.00000000     0.00000000
 C      1   0   0     2.324072748625     0.00000000     0.00000000
 C      2   1   0     2.917026107059   122.54957849     0.00000000
 C      3   2   1     2.912164129372   110.24324241    49.85599428
 C      4   3   2     2.901156445626   103.65562737   271.43179837
 C      5   4   3     2.893898065798   103.74914649   323.45516665
 N      3   2   1     2.776583064970   113.33476327   295.48358357
 C      7   3   2     2.565397490596   126.39859332   271.04644180
 O      8   7   3     2.333444739024   122.21608277   190.90044873
 N      2   1   3     2.577524502149   124.11689500   176.75892115
 C     10   2   1     2.756903091016   122.85038113   351.45694857
 C     11  10   2     2.906353957156   105.21030704   232.93143851
 N     12  11  10     2.584373659411   116.59883320   288.70844934
 C     13  12  11     2.778160545702   120.84085003   161.40977893
 C     14  13  12     2.912463953809   105.65525436   275.74173702
 N     15  14  13     2.561836390243   114.12294361    68.91097375
 C     16  15  14     2.763639875797   122.78736664   206.90702539
 C     17  16  15     2.917770666388   114.62454057   293.85162276
 C     18  17  16     2.934361999176   112.47281811   148.08251128
 C     19  18  17     2.920033570863   115.27511505   308.04126689
 N     20  19  18     2.563125006189   116.27625546   327.27905100
 C     21  20  19     2.760460543874   119.31841481   173.15782281
 C     22  21  20     2.904819711493   108.83049654   282.10558442
 N     23  22  21     2.552071152171   115.97693906   107.61453532
 C     24  23  22     2.774916691097   123.87807665   173.08278100
 C     25  24  23     2.884434769515   110.77753490   256.74656072
 O     23  22  21     2.355290982227   120.76729974   288.47369768
 C     22  21  20     2.891681557543   110.76616275   161.20617457
 C     28  22  21     2.902641240805   114.42972463   302.41980084
 C     29  28  22     2.895604580847   109.50846182   176.96199608
 C     29  28  22     2.895648468102   112.36059125   301.06391348
 O     20  19  18     2.339564515108   121.57803345   147.93621620
 C     19  18  17     2.899796832520   112.12156692    73.01220857
 C     33  19  18     2.858819019134   118.36548289   157.41501363
 C     34  33  19     2.899594683090   113.59020177   146.59828223
 C     35  34  33     2.891891560524   112.08334365   280.75201039
 C     36  35  34     2.887073583007   114.56860717   175.93435755
 C     37  36  35     2.894631536693   111.85603915   172.29647439
 C     38  37  36     2.889691707359   114.39131586   167.87914187
 C     39  38  37     2.891194928206   112.84240372   185.59187581
 C     40  39  38     2.892029802731   113.59169524   177.31289284
 C     41  40  39     2.891218220528   112.97854065   180.53690784
 O     33  19  18     2.317819214710   119.96856705   341.11104911
 O     18  17  16     2.693710643345   112.05366781   274.02828156
 O     15  14  13     2.345975288975   121.42095158   254.17406060
 C     14  13  12     2.879526916558   111.36279226   152.95530411
 C     46  14  13     2.888247088276   112.65395527   296.58158394
 O     12  11  10     2.335763479081   121.08260167   103.14264249
 C     11  10   2     2.922508146657   114.10903794   101.96881779
 C     49  11  10     2.894679823994   109.77880840   182.95577424
 C     49  11  10     2.897885441661   115.50437495    56.09789217
 H      3   2   1     2.074867009863   109.93042503   172.44388075
 H      4   3   2     2.074543873417   108.93395239   153.11269686
 H      4   3   2     2.071983678376   112.07399939    33.72162690
 H      5   4   3     2.072051886514   109.64835331    81.29942976
 H      5   4   3     2.073844870936   112.27955276   202.55713780
 H      6   5   4     2.074782023608   113.65261662   145.62703674
[...]
freq.      80.90  E(vib)   ...       0.48 
freq.      89.36  E(vib)   ...       0.47 
freq.      98.50  E(vib)   ...       0.46 
freq.     101.95  E(vib)   ...       0.46 
freq.     105.70  E(vib)   ...       0.45 
freq.     109.31  E(vib)   ...       0.45 
freq.     113.67  E(vib)   ...       0.44 
freq.     114.46  E(vib)   ...       0.44 
freq.     121.97  E(vib)   ...       0.44 
freq.     128.48  E(vib)   ...       0.43 
freq.     134.14  E(vib)   ...       0.42 
freq.     137.39  E(vib)   ...       0.42 
freq.     147.29  E(vib)   ...       0.41 
freq.     153.95  E(vib)   ...       0.40 
freq.     160.24  E(vib)   ...       0.39 
freq.     164.19  E(vib)   ...       0.39 
freq.     167.87  E(vib)   ...       0.38 
freq.     170.12  E(vib)   ...       0.38 
freq.     176.56  E(vib)   ...       0.38 
freq.     187.54  E(vib)   ...       0.36 
freq.     190.64  E(vib)   ...       0.36 
freq.     197.12  E(vib)   ...       0.35 
freq.     204.26  E(vib)   ...       0.35 
freq.     218.58  E(vib)   ...       0.33 
freq.     220.46  E(vib)   ...       0.33 
freq.     222.85  E(vib)   ...       0.33 
freq.     224.69  E(vib)   ...       0.33 
freq.     229.29  E(vib)   ...       0.32 
freq.     231.92  E(vib)   ...       0.32 
freq.     238.28  E(vib)   ...       0.32 
freq.     239.48  E(vib)   ...       0.31 
freq.     240.96  E(vib)   ...       0.31 
freq.     248.35  E(vib)   ...       0.31 
freq.     251.39  E(vib)   ...       0.30 
freq.     255.56  E(vib)   ...       0.30 
freq.     266.24  E(vib)   ...       0.29 
freq.     272.50  E(vib)   ...       0.29 
freq.     278.53  E(vib)   ...       0.28 
freq.     283.76  E(vib)   ...       0.28 
freq.     286.34  E(vib)   ...       0.27 
freq.     301.32  E(vib)   ...       0.26 
freq.     312.59  E(vib)   ...       0.25 
freq.     315.11  E(vib)   ...       0.25 
freq.     317.03  E(vib)   ...       0.25 
freq.     323.46  E(vib)   ...       0.25 
freq.     328.38  E(vib)   ...       0.24 
freq.     335.65  E(vib)   ...       0.24 
freq.     341.61  E(vib)   ...       0.23 
freq.     345.69  E(vib)   ...       0.23 
freq.     358.10  E(vib)   ...       0.22 
freq.     371.62  E(vib)   ...       0.21 
freq.     380.90  E(vib)   ...       0.21 
freq.     384.05  E(vib)   ...       0.20 
freq.     396.88  E(vib)   ...       0.20 
freq.     403.48  E(vib)   ...       0.19 
freq.     414.18  E(vib)   ...       0.19 
freq.     417.16  E(vib)   ...       0.18 
freq.     444.79  E(vib)   ...       0.17 
freq.     454.89  E(vib)   ...       0.16 
freq.     458.11  E(vib)   ...       0.16 
freq.     463.25  E(vib)   ...       0.16 
freq.     481.47  E(vib)   ...       0.15 
freq.     493.50  E(vib)   ...       0.14 
freq.     508.50  E(vib)   ...       0.14 
freq.     516.43  E(vib)   ...       0.13 
freq.     529.07  E(vib)   ...       0.13 
freq.     538.11  E(vib)   ...       0.12 
freq.     548.88  E(vib)   ...       0.12 
freq.     563.30  E(vib)   ...       0.11 
freq.     572.43  E(vib)   ...       0.11 
freq.     583.61  E(vib)   ...       0.11 
freq.     592.23  E(vib)   ...       0.10 
freq.     599.13  E(vib)   ...       0.10 
freq.     632.64  E(vib)   ...       0.09 
freq.     655.85  E(vib)   ...       0.08 
freq.     667.29  E(vib)   ...       0.08 
freq.     680.43  E(vib)   ...       0.08 
freq.     692.86  E(vib)   ...       0.07 
freq.     699.90  E(vib)   ...       0.07 
freq.     710.71  E(vib)   ...       0.07 
freq.     713.34  E(vib)   ...       0.07 
freq.     716.50  E(vib)   ...       0.07 
freq.     722.91  E(vib)   ...       0.07 
freq.     731.31  E(vib)   ...       0.06 
freq.     735.40  E(vib)   ...       0.06 
freq.     747.01  E(vib)   ...       0.06 
freq.     751.22  E(vib)   ...       0.06 
freq.     754.47  E(vib)   ...       0.06 
freq.     760.71  E(vib)   ...       0.06 
freq.     769.60  E(vib)   ...       0.05 
freq.     779.78  E(vib)   ...       0.05 
freq.     784.82  E(vib)   ...       0.05 
freq.     802.02  E(vib)   ...       0.05 
freq.     808.55  E(vib)   ...       0.05 
freq.     814.68  E(vib)   ...       0.05 
freq.     821.19  E(vib)   ...       0.05 
freq.     840.78  E(vib)   ...       0.04 
freq.     848.12  E(vib)   ...       0.04 
freq.     849.94  E(vib)   ...       0.04 
freq.     851.94  E(vib)   ...       0.04 
freq.     853.89  E(vib)   ...       0.04 
freq.     857.26  E(vib)   ...       0.04 
freq.     862.42  E(vib)   ...       0.04 
freq.     877.63  E(vib)   ...       0.04 
freq.     885.59  E(vib)   ...       0.04 
freq.     893.50  E(vib)   ...       0.03 
freq.     901.71  E(vib)   ...       0.03 
freq.     903.01  E(vib)   ...       0.03 
freq.     905.33  E(vib)   ...       0.03 
freq.     912.61  E(vib)   ...       0.03 
freq.     914.76  E(vib)   ...       0.03 
freq.     927.01  E(vib)   ...       0.03 
freq.     927.64  E(vib)   ...       0.03 
freq.     933.87  E(vib)   ...       0.03 
freq.     936.30  E(vib)   ...       0.03 
freq.     941.32  E(vib)   ...       0.03 
freq.     941.87  E(vib)   ...       0.03 
freq.     951.41  E(vib)   ...       0.03 
freq.     956.03  E(vib)   ...       0.03 
freq.     958.54  E(vib)   ...       0.03 
freq.     962.44  E(vib)   ...       0.03 
freq.     976.02  E(vib)   ...       0.03 
freq.     981.04  E(vib)   ...       0.02 
freq.     985.29  E(vib)   ...       0.02 
freq.     988.38  E(vib)   ...       0.02 
freq.     996.41  E(vib)   ...       0.02 
freq.    1004.28  E(vib)   ...       0.02 
freq.    1006.36  E(vib)   ...       0.02 
freq.    1026.21  E(vib)   ...       0.02 
freq.    1033.31  E(vib)   ...       0.02 
freq.    1034.64  E(vib)   ...       0.02 
freq.    1036.59  E(vib)   ...       0.02 
freq.    1040.81  E(vib)   ...       0.02 
freq.    1042.36  E(vib)   ...       0.02 
freq.    1049.73  E(vib)   ...       0.02 
freq.    1051.87  E(vib)   ...       0.02 
freq.    1055.39  E(vib)   ...       0.02 
freq.    1058.85  E(vib)   ...       0.02 
freq.    1060.87  E(vib)   ...       0.02 
freq.    1067.67  E(vib)   ...       0.02 
freq.    1076.37  E(vib)   ...       0.02 
freq.    1078.24  E(vib)   ...       0.02 
freq.    1082.14  E(vib)   ...       0.02 
freq.    1097.77  E(vib)   ...       0.02 
freq.    1105.82  E(vib)   ...       0.02 
freq.    1110.13  E(vib)   ...       0.02 
freq.    1113.08  E(vib)   ...       0.01 
freq.    1120.46  E(vib)   ...       0.01 
freq.    1122.99  E(vib)   ...       0.01 
freq.    1127.40  E(vib)   ...       0.01 
freq.    1139.92  E(vib)   ...       0.01 
freq.    1143.69  E(vib)   ...       0.01 
freq.    1144.31  E(vib)   ...       0.01 
freq.    1150.41  E(vib)   ...       0.01 
freq.    1159.82  E(vib)   ...       0.01 
freq.    1166.55  E(vib)   ...       0.01 
freq.    1169.62  E(vib)   ...       0.01 
freq.    1174.56  E(vib)   ...       0.01 
freq.    1175.13  E(vib)   ...       0.01 
freq.    1184.89  E(vib)   ...       0.01 
freq.    1190.50  E(vib)   ...       0.01 
freq.    1208.33  E(vib)   ...       0.01 
freq.    1210.44  E(vib)   ...       0.01 
freq.    1212.18  E(vib)   ...       0.01 
freq.    1214.20  E(vib)   ...       0.01 
freq.    1214.97  E(vib)   ...       0.01 
freq.    1217.69  E(vib)   ...       0.01 
freq.    1220.22  E(vib)   ...       0.01 
freq.    1226.82  E(vib)   ...       0.01 
freq.    1228.52  E(vib)   ...       0.01 
freq.    1246.49  E(vib)   ...       0.01 
freq.    1251.68  E(vib)   ...       0.01 
freq.    1251.82  E(vib)   ...       0.01 
freq.    1256.16  E(vib)   ...       0.01 
freq.    1262.07  E(vib)   ...       0.01 
freq.    1264.28  E(vib)   ...       0.01 
freq.    1266.37  E(vib)   ...       0.01 
freq.    1273.80  E(vib)   ...       0.01 
freq.    1277.70  E(vib)   ...       0.01 
freq.    1284.71  E(vib)   ...       0.01 
freq.    1286.54  E(vib)   ...       0.01 
freq.    1290.14  E(vib)   ...       0.01 
freq.    1290.52  E(vib)   ...       0.01 
freq.    1291.85  E(vib)   ...       0.01 
freq.    1293.82  E(vib)   ...       0.01 
freq.    1296.78  E(vib)   ...       0.01 
freq.    1297.79  E(vib)   ...       0.01 
freq.    1298.76  E(vib)   ...       0.01 
freq.    1302.68  E(vib)   ...       0.01 
freq.    1309.46  E(vib)   ...       0.01 
freq.    1311.61  E(vib)   ...       0.01 
freq.    1315.91  E(vib)   ...       0.01 
freq.    1317.81  E(vib)   ...       0.01 
freq.    1319.08  E(vib)   ...       0.01 
freq.    1325.71  E(vib)   ...       0.01 
freq.    1328.36  E(vib)   ...       0.01 
freq.    1332.80  E(vib)   ...       0.01 
freq.    1340.79  E(vib)   ...       0.01 
freq.    1342.79  E(vib)   ...       0.01 
freq.    1345.03  E(vib)   ...       0.01 
freq.    1346.74  E(vib)   ...       0.01 
freq.    1347.79  E(vib)   ...       0.01 
freq.    1348.94  E(vib)   ...       0.01 
freq.    1350.78  E(vib)   ...       0.01 
freq.    1353.33  E(vib)   ...       0.01 
freq.    1355.73  E(vib)   ...       0.01 
freq.    1356.31  E(vib)   ...       0.01 
freq.    1356.97  E(vib)   ...       0.01 
freq.    1359.45  E(vib)   ...       0.01 
freq.    1363.54  E(vib)   ...       0.01 
freq.    1366.68  E(vib)   ...       0.01 
freq.    1372.11  E(vib)   ...       0.01 
freq.    1376.64  E(vib)   ...       0.01 
freq.    1392.13  E(vib)   ...       0.00 
freq.    1393.19  E(vib)   ...       0.00 
freq.    1399.20  E(vib)   ...       0.00 
freq.    1424.42  E(vib)   ...       0.00 
freq.    1427.71  E(vib)   ...       0.00 
freq.    1429.47  E(vib)   ...       0.00 
freq.    1432.49  E(vib)   ...       0.00 
freq.    1432.79  E(vib)   ...       0.00 
freq.    1435.19  E(vib)   ...       0.00 
freq.    1435.38  E(vib)   ...       0.00 
freq.    1437.58  E(vib)   ...       0.00 
freq.    1439.36  E(vib)   ...       0.00 
freq.    1440.85  E(vib)   ...       0.00 
freq.    1441.65  E(vib)   ...       0.00 
freq.    1441.96  E(vib)   ...       0.00 
freq.    1444.07  E(vib)   ...       0.00 
freq.    1446.27  E(vib)   ...       0.00 
freq.    1446.32  E(vib)   ...       0.00 
freq.    1449.57  E(vib)   ...       0.00 
freq.    1449.98  E(vib)   ...       0.00 
freq.    1450.44  E(vib)   ...       0.00 
freq.    1452.06  E(vib)   ...       0.00 
freq.    1456.19  E(vib)   ...       0.00 
freq.    1459.14  E(vib)   ...       0.00 
freq.    1459.97  E(vib)   ...       0.00 
freq.    1460.96  E(vib)   ...       0.00 
freq.    1463.28  E(vib)   ...       0.00 
freq.    1464.73  E(vib)   ...       0.00 
freq.    1470.15  E(vib)   ...       0.00 
freq.    1470.90  E(vib)   ...       0.00 
freq.    1482.73  E(vib)   ...       0.00 
freq.    1491.64  E(vib)   ...       0.00 
freq.    1517.43  E(vib)   ...       0.00 
freq.    1528.53  E(vib)   ...       0.00 
freq.    1544.94  E(vib)   ...       0.00 
freq.    1627.01  E(vib)   ...       0.00 
freq.    1636.01  E(vib)   ...       0.00 
freq.    1651.50  E(vib)   ...       0.00 
freq.    1655.16  E(vib)   ...       0.00 
freq.    1659.47  E(vib)   ...       0.00 
freq.    1687.78  E(vib)   ...       0.00 
freq.    1689.98  E(vib)   ...       0.00 
freq.    2921.38  E(vib)   ...       0.00 
freq.    2925.13  E(vib)   ...       0.00 
freq.    2927.03  E(vib)   ...       0.00 
freq.    2928.75  E(vib)   ...       0.00 
freq.    2937.06  E(vib)   ...       0.00 
freq.    2941.31  E(vib)   ...       0.00 
freq.    2943.73  E(vib)   ...       0.00 
freq.    2944.87  E(vib)   ...       0.00 
freq.    2949.33  E(vib)   ...       0.00 
freq.    2950.10  E(vib)   ...       0.00 
freq.    2951.55  E(vib)   ...       0.00 
freq.    2951.93  E(vib)   ...       0.00 
freq.    2952.59  E(vib)   ...       0.00 
freq.    2953.77  E(vib)   ...       0.00 
freq.    2955.88  E(vib)   ...       0.00 
freq.    2958.25  E(vib)   ...       0.00 
freq.    2958.75  E(vib)   ...       0.00 
freq.    2961.73  E(vib)   ...       0.00 
freq.    2962.62  E(vib)   ...       0.00 
freq.    2964.36  E(vib)   ...       0.00 
freq.    2966.44  E(vib)   ...       0.00 
freq.    2967.31  E(vib)   ...       0.00 
freq.    2973.77  E(vib)   ...       0.00 
freq.    2973.94  E(vib)   ...       0.00 
freq.    2982.37  E(vib)   ...       0.00 
freq.    2985.39  E(vib)   ...       0.00 
freq.    2989.15  E(vib)   ...       0.00 
freq.    2998.52  E(vib)   ...       0.00 
freq.    2998.62  E(vib)   ...       0.00 
freq.    3002.65  E(vib)   ...       0.00 
freq.    3003.54  E(vib)   ...       0.00 
freq.    3007.33  E(vib)   ...       0.00 
freq.    3007.54  E(vib)   ...       0.00 
freq.    3011.25  E(vib)   ...       0.00 
freq.    3012.71  E(vib)   ...       0.00 
freq.    3016.39  E(vib)   ...       0.00 
freq.    3019.81  E(vib)   ...       0.00 
freq.    3020.12  E(vib)   ...       0.00 
freq.    3022.52  E(vib)   ...       0.00 
freq.    3022.73  E(vib)   ...       0.00 
freq.    3022.89  E(vib)   ...       0.00 
freq.    3025.85  E(vib)   ...       0.00 
freq.    3026.77  E(vib)   ...       0.00 
freq.    3027.24  E(vib)   ...       0.00 
freq.    3027.49  E(vib)   ...       0.00 
freq.    3029.53  E(vib)   ...       0.00 
freq.    3030.71  E(vib)   ...       0.00 
freq.    3031.32  E(vib)   ...       0.00 
freq.    3032.48  E(vib)   ...       0.00 
freq.    3034.57  E(vib)   ...       0.00 
freq.    3035.92  E(vib)   ...       0.00 
freq.    3038.75  E(vib)   ...       0.00 
freq.    3041.77  E(vib)   ...       0.00 
freq.    3051.20  E(vib)   ...       0.00 
freq.    3057.51  E(vib)   ...       0.00 
freq.    3064.54  E(vib)   ...       0.00 
freq.    3064.69  E(vib)   ...       0.00 
freq.    3067.79  E(vib)   ...       0.00 
freq.    3145.12  E(vib)   ...       0.00 
freq.    3257.99  E(vib)   ...       0.00 
freq.    3387.49  E(vib)   ...       0.00 
freq.    3461.93  E(vib)   ...       0.00 
freq.    3487.69  E(vib)   ...       0.00 
freq.    3608.83  E(vib)   ...       0.00 

------------
INNER ENERGY
------------

The inner energy is: U= E(el) + E(ZPE) + E(vib) + E(rot) + E(trans)
    E(el)   - is the total energy from the electronic structure calculation
              = E(kin-el) + E(nuc-el) + E(el-el) + E(nuc-nuc)
    E(ZPE)  - the the zero temperature vibrational energy from the frequency calculation
    E(vib)  - the the finite temperature correction to E(ZPE) due to population
              of excited vibrational states
    E(rot)  - is the rotational thermal energy
    E(trans)- is the translational thermal energy

Summary of contributions to the inner energy U:
Electronic energy                ...  -2380.08531587 Eh
Zero point energy                ...      0.97859505 Eh     614.08 kcal/mol
Thermal vibrational correction   ...      0.05540551 Eh      34.77 kcal/mol
Thermal rotational correction    ...      0.00141627 Eh       0.89 kcal/mol
Thermal translational correction ...      0.00141627 Eh       0.89 kcal/mol
-----------------------------------------------------------------------
Total thermal energy                  -2379.04848276 Eh


Summary of corrections to the electronic energy:
(perhaps to be used in another calculation)
Total thermal correction                  0.05823805 Eh      36.54 kcal/mol
Non-thermal (ZPE) correction              0.97859505 Eh     614.08 kcal/mol
-----------------------------------------------------------------------
Total correction                          1.03683310 Eh     650.62 kcal/mol


--------
ENTHALPY
--------

The enthalpy is H = U + kB*T
                kB is Boltzmann's constant
Total free energy                 ...  -2379.04848276 Eh 
Thermal Enthalpy correction       ...      0.00094421 Eh       0.59 kcal/mol
-----------------------------------------------------------------------
Total Enthalpy                    ...  -2379.04753856 Eh


Note: Only C1 symmetry has been detected, increase convergence thresholds 
      if your molecule has a higher symmetry. Symmetry factor of 1.0 is   
      used for the rotational entropy correction. 
 

Note: Rotational entropy computed according to Herzberg 
Infrared and Raman Spectra, Chapter V,1, Van Nostrand Reinhold, 1945 
Point Group:  C1, Symmetry Number:   1  
Rotational constants in cm-1:     0.002415     0.001432     0.001249 

Vibrational entropy computed according to the QRRHO of S. Grimme
Chem.Eur.J. 2012 18 9955


-------
ENTROPY
-------

The entropy contributions are T*S = T*(S(el)+S(vib)+S(rot)+S(trans))
     S(el)   - electronic entropy
     S(vib)  - vibrational entropy
     S(rot)  - rotational entropy
     S(trans)- translational entropy
The entropies will be listed as mutliplied by the temperature to get
units of energy

Electronic entropy                ...      0.00000000 Eh      0.00 kcal/mol
Vibrational entropy               ...      0.10132654 Eh     63.58 kcal/mol
Rotational entropy                ...      0.01860324 Eh     11.67 kcal/mol
Translational entropy             ...      0.02166895 Eh     13.60 kcal/mol
-----------------------------------------------------------------------
Final entropy term                ...      0.14159873 Eh     88.85 kcal/mol

In case the symmetry of your molecule has not been determined correctly
or in case you have a reason to use a different symmetry number we print 
out the resulting rotational entropy values for sn=1,12 :
 --------------------------------------------------------
|  sn= 1 | S(rot)=       0.01860324 Eh     11.67 kcal/mol|
|  sn= 2 | S(rot)=       0.01794878 Eh     11.26 kcal/mol|
|  sn= 3 | S(rot)=       0.01756595 Eh     11.02 kcal/mol|
|  sn= 4 | S(rot)=       0.01729432 Eh     10.85 kcal/mol|
|  sn= 5 | S(rot)=       0.01708364 Eh     10.72 kcal/mol|
|  sn= 6 | S(rot)=       0.01691149 Eh     10.61 kcal/mol|
|  sn= 7 | S(rot)=       0.01676595 Eh     10.52 kcal/mol|
|  sn= 8 | S(rot)=       0.01663987 Eh     10.44 kcal/mol|
|  sn= 9 | S(rot)=       0.01652866 Eh     10.37 kcal/mol|
|  sn=10 | S(rot)=       0.01642918 Eh     10.31 kcal/mol|
|  sn=11 | S(rot)=       0.01633919 Eh     10.25 kcal/mol|
|  sn=12 | S(rot)=       0.01625704 Eh     10.20 kcal/mol|
 --------------------------------------------------------


-------------------
GIBBS FREE ENERGY
-------------------

The Gibbs free energy is G = H - T*S

Total enthalpy                    ...  -2379.04753856 Eh 
Total entropy correction          ...     -0.14159873 Eh    -88.85 kcal/mol
-----------------------------------------------------------------------
Final Gibbs free energy         ...  -2379.18913728 Eh

For completeness - the Gibbs free energy minus the electronic energy
G-E(el)                           ...      0.89617858 Eh    562.36 kcal/mol

--------------------------------------------------------------------------
WARNING: No preset parameters were found for the device that Open MPI
detected:

  Local host:            eu-g1-017-3
  Device name:           mlx5_0
  Device vendor ID:      0x02c9
  Device vendor part ID: 4123

Default device parameters will be used, which may result in lower
performance.  You can edit any of the files specified by the
btl_openib_device_param_files MCA parameter to set values for your
device.

NOTE: You can turn off this warning by setting the MCA parameter
      btl_openib_warn_no_device_params_found to 0.
--------------------------------------------------------------------------
--------------------------------------------------------------------------
WARNING: There was an error initializing an OpenFabrics device.

  Local host:   eu-g1-017-3
  Local device: mlx5_0
--------------------------------------------------------------------------

Timings for individual modules:

Sum of individual times         ...    38621.383 sec (= 643.690 min)
GTO integral calculation        ...       14.249 sec (=   0.237 min)   0.0 %
SCF iterations                  ...      531.851 sec (=   8.864 min)   1.4 %
SCF Gradient evaluation         ...       88.854 sec (=   1.481 min)   0.2 %
Geometry relaxation             ...        4.313 sec (=   0.072 min)   0.0 %
Analytical frequency calculation...    37982.117 sec (= 633.035 min)  98.3 %
                             ****ORCA TERMINATED NORMALLY****
TOTAL RUN TIME: 0 days 10 hours 43 minutes 59 seconds 739 msec
