
                                 *****************
                                 * O   R   C   A *
                                 *****************

           --- An Ab Initio, DFT and Semiempirical electronic structure package ---

                  #######################################################
                  #                        -***-                        #
                  #          Department of theory and spectroscopy      #
                  #               Directorship: Frank Neese             #
                  #        Max Planck Institute fuer Kohlenforschung    #
                  #                Kaiser Wilhelm Platz 1               #
                  #                 D-45470 Muelheim/Ruhr               #
                  #                      Germany                        #
                  #                                                     #
                  #                  All rights reserved                #
                  #                        -***-                        #
                  #######################################################


                         Program Version 4.2.0 -  RELEASE  -


 With contributions from (in alphabetic order):
   Daniel Aravena         : Magnetic Suceptibility
   Michael Atanasov       : Ab Initio Ligand Field Theory (pilot matlab implementation)
   Alexander A. Auer      : GIAO ZORA, VPT2
   Ute Becker             : Parallelization
   Giovanni Bistoni       : ED, misc. LED, open-shell LED, HFLED
   Martin Brehm           : Molecular dynamics
   Dmytro Bykov           : SCF Hessian
   Vijay G. Chilkuri      : MRCI spin determinant printing, contributions to CSF-ICE
   Dipayan Datta          : RHF DLPNO-CCSD density
   Achintya Kumar Dutta   : EOM-CC, STEOM-CC
   Dmitry Ganyushin       : Spin-Orbit,Spin-Spin,Magnetic field MRCI
   Miquel Garcia          : C-PCM Hessian, Gaussian charge scheme
   Yang Guo               : DLPNO-NEVPT2, CIM, IAO-localization
   Andreas Hansen         : Spin unrestricted coupled pair/coupled cluster methods
   Benjamin Helmich-Paris : CASSCF linear response (MC-RPA)
   Lee Huntington         : MR-EOM, pCC
   Robert Izsak           : Overlap fitted RIJCOSX, COSX-SCS-MP3, EOM
   Christian Kollmar      : KDIIS, OOCD, Brueckner-CCSD(T), CCSD density
   Simone Kossmann        : Meta GGA functionals, TD-DFT gradient, OOMP2, MP2 Hessian
   Martin Krupicka        : AUTO-CI
   Lucas Lang             : DCDCAS
   Dagmar Lenk            : GEPOL surface, SMD
   Dimitrios Liakos       : Extrapolation schemes; Compound Job, initial MDCI parallelization
   Dimitrios Manganas     : Further ROCIS development; embedding schemes
   Dimitrios Pantazis     : SARC Basis sets
   Taras Petrenko         : DFT Hessian,TD-DFT gradient, ASA, ECA, R-Raman, ABS, FL, XAS/XES, NRVS
   Peter Pinski           : DLPNO-MP2, DLPNO-MP2 Gradient
   Christoph Reimann      : Effective Core Potentials
   Marius Retegan         : Local ZFS, SOC
   Christoph Riplinger    : Optimizer, TS searches, QM/MM, DLPNO-CCSD(T), (RO)-DLPNO pert. Triples
   Tobias Risthaus        : Range-separated hybrids, TD-DFT gradient, RPA, STAB
   Michael Roemelt        : Original ROCIS implementation
   Masaaki Saitow         : Open-shell DLPNO-CCSD energy and density
   Barbara Sandhoefer     : DKH picture change effects
   Avijit Sen             : IP-ROCIS
   Kantharuban Sivalingam : CASSCF convergence, NEVPT2, FIC-MRCI
   Bernardo de Souza      : ESD, SOC TD-DFT
   Georgi Stoychev        : AutoAux, RI-MP2 NMR
   Willem Van den Heuvel  : Paramagnetic NMR
   Boris Wezisla          : Elementary symmetry handling
   Frank Wennmohs         : Technical directorship


 We gratefully acknowledge several colleagues who have allowed us to
 interface, adapt or use parts of their codes:
   Stefan Grimme, W. Hujo, H. Kruse,             : VdW corrections, initial TS optimization,
                  C. Bannwarth                     DFT functionals, gCP, sTDA/sTD-DF
   Ed Valeev, F. Pavosevic, A. Kumar             : LibInt (2-el integral package), F12 methods
   Garnet Chan, S. Sharma, J. Yang, R. Olivares  : DMRG
   Ulf Ekstrom                                   : XCFun DFT Library
   Mihaly Kallay                                 : mrcc  (arbitrary order and MRCC methods)
   Andreas Klamt, Michael Diedenhofen            : otool_cosmo (COSMO solvation model)
   Jiri Pittner, Ondrej Demel                    : Mk-CCSD
   Frank Weinhold                                : gennbo (NPA and NBO analysis)
   Christopher J. Cramer and Donald G. Truhlar   : smd solvation model
   Lars Goerigk                                  : TD-DFT with DH, B97 family of functionals
   V. Asgeirsson, H. Jonsson                     : NEB implementation
   FAccTs GmbH                                   : IRC, NEB, NEB-TS, Multilevel, MM, QM/MM, CI optimization
   S Lehtola, MJT Oliveira, MAL Marques          : LibXC Library


 Your calculation uses the libint2 library for the computation of 2-el integrals
 For citations please refer to: http://libint.valeyev.net

 Your ORCA version has been built with support for libXC version: 4.2.3
 For citations please refer to: https://tddft.org/programs/libxc/

 This ORCA versions uses:
   CBLAS   interface :  Fast vector & matrix operations
   LAPACKE interface :  Fast linear algebra routines
   SCALAPACK package :  Parallel linear algebra routines




***************************************
The coordinates will be read from file: 7.xyz
***************************************


Your calculation utilizes the atom-pairwise dispersion correction
with the Becke-Johnson damping scheme (D3BJ)
Cite in your paper:
S.Grimme, S.Ehrlich, L.Goerigk, J Comput Chem, (2011), 32, 1456–1465 
S.Grimme, J.Antony, S.Ehrlich and H.Krieg, J.Chem.Phys., 132, (2010), 154104 
   

----- Orbital basis set information -----
Your calculation utilizes the basis: def2-TZVP
   F. Weigend and R. Ahlrichs, Phys. Chem. Chem. Phys. 7, 3297 (2005).

----- AuxJ basis set information -----
Your calculation utilizes the auxiliary basis: def2/J
   F. Weigend, Phys. Chem. Chem. Phys. 8, 1057 (2006).

================================================================================
                                        WARNINGS
                       Please study these warnings very carefully!
================================================================================


WARNING: Geometry Optimization
  ===> : Switching off AutoStart
         For restart on a previous wavefunction, please use MOREAD

INFO   : the flag for use of LIBINT has been found!

================================================================================
                                       INPUT FILE
================================================================================
NAME = 7.inp
|  1> !RI BP86 def2-tzvp def2/J D3BJ VeryTightSCF VeryTightOpt Grid5 FinalGrid6 freq
|  2> %maxcore 4000
|  3> %pal nprocs 24
|  4> end
|  5> * xyzfile 0 1 7.xyz 
|  6> 
|  7>                          ****END OF INPUT****
================================================================================

                       *****************************
                       * Geometry Optimization Run *
                       *****************************

Geometry optimization settings:
Update method            Update   .... BFGS
Choice of coordinates    CoordSys .... Z-matrix Internals
Initial Hessian          InHess   .... Almoef's Model

Convergence Tolerances:
Energy Change            TolE     ....  2.0000e-07 Eh
Max. Gradient            TolMAXG  ....  3.0000e-05 Eh/bohr
RMS Gradient             TolRMSG  ....  8.0000e-06 Eh/bohr
Max. Displacement        TolMAXD  ....  2.0000e-04 bohr
RMS Displacement         TolRMSD  ....  1.0000e-04 bohr
Strict Convergence                ....  False
------------------------------------------------------------------------------
                        ORCA OPTIMIZATION COORDINATE SETUP
------------------------------------------------------------------------------

The optimization will be done in new redundant internal coordinates
Making redundant internal coordinates   ...  (new redundants) done
Evaluating the initial hessian          ...  (Almloef) done
Evaluating the coordinates              ...  done
Calculating the B-matrix                .... done
Calculating the G-matrix                .... done
Diagonalizing the G-matrix              .... done
Small eigenvalue found = 3.585e-04
Small eigenvalue found = 2.518e-03
Small eigenvalue found = 2.871e-03
Small eigenvalue found = 3.669e-03
Small eigenvalue found = 4.486e-03
Small eigenvalue found = 6.066e-03
Small eigenvalue found = 7.428e-03
Small eigenvalue found = 8.579e-03
Small eigenvalue found = 9.643e-03
Small eigenvalue found = 1.091e-02
Small eigenvalue found = 1.167e-02
Small eigenvalue found = 1.478e-02
Small eigenvalue found = 1.518e-02
Small eigenvalue found = 1.929e-02
Small eigenvalue found = 2.007e-02
Small eigenvalue found = 2.336e-02
Small eigenvalue found = 2.634e-02
Small eigenvalue found = 2.919e-02
The first mode is                       ....  328
The number of degrees of freedom        ....  339

    -----------------------------------------------------------------
                    Redundant Internal Coordinates


    -----------------------------------------------------------------
         Definition                    Initial Value    Approx d2E/dq
    -----------------------------------------------------------------
      1. B(C   1,O   0)                  1.2281         1.014161   
      2. B(C   2,C   1)                  1.5316         0.371427   
      3. B(C   3,C   2)                  1.5482         0.349364   
      4. B(C   4,C   3)                  1.5346         0.367303   
      5. B(C   5,C   4)                  1.5281         0.376199   
      6. B(N   6,C   2)                  1.4756         0.408667   
      7. B(N   6,C   5)                  1.4721         0.413954   
      8. B(C   7,N   6)                  1.3637         0.616436   
      9. B(O   8,C   7)                  1.2403         0.970020   
     10. B(N   9,C   1)                  1.3635         0.616853   
     11. B(C  10,N   9)                  1.4526         0.444669   
     12. B(C  11,C  10)                  1.5452         0.353275   
     13. B(N  12,C  11)                  1.3675         0.607712   
     14. B(C  13,N  12)                  1.4524         0.444893   
     15. B(C  14,C  13)                  1.5493         0.347950   
     16. B(N  15,C  14)                  1.3470         0.655325   
     17. B(C  16,N  15)                  1.4616         0.430213   
     18. B(C  17,C  16)                  1.5405         0.359479   
     19. B(C  18,C  17)                  1.5512         0.345590   
     20. B(C  19,C  18)                  1.5457         0.352613   
     21. B(N  20,C  19)                  1.3721         0.597604   
     22. B(C  21,N  20)                  1.4546         0.441360   
     23. B(C  22,C  21)                  1.5433         0.355735   
     24. B(N  23,C  22)                  1.3607         0.623200   
     25. B(C  24,N  23)                  1.4568         0.437894   
     26. B(C  24,C   7)                  1.5427         0.356599   
     27. B(C  25,C  24)                  1.5249         0.380699   
     28. B(O  26,C  22)                  1.2333         0.995214   
     29. B(C  27,C  21)                  1.5424         0.356965   
     30. B(C  28,C  27)                  1.5348         0.367051   
     31. B(C  29,C  28)                  1.5330         0.369428   
     32. B(C  30,C  28)                  1.5316         0.371436   
     33. B(O  31,C  19)                  1.2239         1.029953   
     34. B(C  32,C  18)                  1.5275         0.376972   
     35. B(C  33,C  32)                  1.5107         0.401023   
     36. B(C  34,C  33)                  1.5421         0.357343   
     37. B(C  35,C  34)                  1.5306         0.372699   
     38. B(C  36,C  35)                  1.5312         0.371976   
     39. B(C  37,C  36)                  1.5299         0.373753   
     40. B(C  38,C  37)                  1.5301         0.373432   
     41. B(C  39,C  38)                  1.5294         0.374400   
     42. B(C  40,C  39)                  1.5307         0.372677   
     43. B(C  41,C  40)                  1.5297         0.373958   
     44. B(O  42,C  32)                  1.2264         1.020566   
     45. B(O  43,C  17)                  1.4103         0.519405   
     46. B(O  44,C  14)                  1.2426         0.961537   
     47. B(C  45,C  13)                  1.5462         0.351974   
     48. B(C  46,C  45)                  1.5320         0.370855   
     49. B(O  47,C  11)                  1.2321         0.999601   
     50. B(C  48,C  10)                  1.5406         0.359348   
     51. B(C  49,C  48)                  1.5292         0.374677   
     52. B(C  50,C  48)                  1.5314         0.371712   
     53. B(H  51,C   2)                  1.0996         0.347576   
     54. B(H  52,C   3)                  1.0952         0.353303   
     55. B(H  53,C   3)                  1.1003         0.346666   
     56. B(H  54,C   4)                  1.0972         0.350659   
     57. B(H  55,C   4)                  1.1003         0.346710   
     58. B(H  56,C   5)                  1.1039         0.342217   
     59. B(H  57,C   5)                  1.0953         0.353115   
     60. B(H  58,N   9)                  1.0172         0.421431   
     61. B(H  59,C  10)                  1.1031         0.343124   
     62. B(H  60,N  12)                  1.0229         0.412618   
     63. B(H  61,C  13)                  1.1032         0.343103   
     64. B(H  62,N  15)                  1.0150         0.424910   
     65. B(H  63,C  16)                  1.0970         0.350914   
     66. B(H  64,C  16)                  1.0984         0.349141   
     67. B(H  65,C  17)                  1.1123         0.331731   
     68. B(H  66,H  58)                  4.5875         0.000000   
     69. B(H  66,C  18)                  1.0982         0.349440   
     70. B(H  67,N  20)                  1.0172         0.421452   
     71. B(H  68,C  21)                  1.0979         0.349798   
     72. B(H  69,O  44)                  1.7892         0.024718   
     73. B(H  69,N  23)                  1.0274         0.405975   
     74. B(H  70,C  24)                  1.1006         0.346367   
     75. B(H  71,C  25)                  1.0975         0.350332   
     76. B(H  72,C  25)                  1.0975         0.350285   
     77. B(H  73,C  25)                  1.0973         0.350617   
     78. B(H  74,C  27)                  1.1050         0.340763   
     79. B(H  75,C  27)                  1.1033         0.342953   
     80. B(H  76,C  28)                  1.1010         0.345806   
     81. B(H  77,H  56)                  2.9168         0.000084   
     82. B(H  77,C  29)                  1.1012         0.345645   
     83. B(H  78,C  29)                  1.0994         0.347923   
     84. B(H  79,C  29)                  1.1017         0.344893   
     85. B(H  80,C  30)                  1.0978         0.349887   
     86. B(H  81,C  30)                  1.1020         0.344563   
     87. B(H  82,C  30)                  1.0994         0.347830   
     88. B(H  83,C  33)                  1.0983         0.349254   
     89. B(H  84,C  33)                  1.1046         0.341312   
     90. B(H  85,C  34)                  1.1024         0.344101   
     91. B(H  86,C  34)                  1.1017         0.344895   
     92. B(H  87,C  35)                  1.1029         0.343385   
     93. B(H  88,C  35)                  1.1034         0.342807   
     94. B(H  89,C  36)                  1.1032         0.342995   
     95. B(H  90,C  36)                  1.1036         0.342511   
     96. B(H  91,C  37)                  1.1040         0.342055   
     97. B(H  92,C  37)                  1.1051         0.340610   
     98. B(H  93,C  38)                  1.1044         0.341488   
     99. B(H  94,C  38)                  1.1040         0.342095   
    100. B(H  95,C  39)                  1.1045         0.341388   
    101. B(H  96,C  39)                  1.1048         0.341074   
    102. B(H  97,C  40)                  1.1034         0.342812   
    103. B(H  98,C  40)                  1.1033         0.342901   
    104. B(H  99,C  41)                  1.0994         0.347879   
    105. B(H 100,C  41)                  1.1008         0.346137   
    106. B(H 101,C  41)                  1.1008         0.346140   
    107. B(H 102,O  43)                  0.9849         0.474433   
    108. B(H 103,H  85)                  4.0606         0.000001   
    109. B(H 103,C  45)                  1.0971         0.350877   
    110. B(H 104,C  45)                  1.0992         0.348072   
    111. B(H 105,C  46)                  1.0986         0.348959   
    112. B(H 106,C  46)                  1.1020         0.344562   
    113. B(H 107,C  46)                  1.1007         0.346235   
    114. B(H 108,C  48)                  1.0994         0.347852   
    115. B(H 109,C  49)                  1.0989         0.348480   
    116. B(H 110,C  49)                  1.1007         0.346195   
    117. B(H 111,H  96)                  2.8255         0.000117   
    118. B(H 111,C  49)                  1.0994         0.347835   
    119. B(H 112,C  50)                  1.0993         0.348033   
    120. B(H 113,H  88)                  2.2290         0.001050   
    121. B(H 113,C  50)                  1.0980         0.349690   
    122. B(H 114,H  74)                  2.1854         0.001233   
    123. B(H 114,C  50)                  1.1013         0.345510   
    124. A(O   0,C   1,N   9)          124.2916         0.467963   
    125. A(C   2,C   1,N   9)          115.0725         0.393403   
    126. A(O   0,C   1,C   2)          120.5808         0.429660   
    127. A(C   1,C   2,H  51)          105.8897         0.322137   
    128. A(N   6,C   2,H  51)          109.1568         0.325273   
    129. A(C   1,C   2,N   6)          115.2083         0.366318   
    130. A(C   1,C   2,C   3)          110.7302         0.358870   
    131. A(C   3,C   2,H  51)          112.0783         0.318928   
    132. A(C   3,C   2,N   6)          103.9265         0.362500   
    133. A(C   4,C   3,H  53)          110.0803         0.321410   
    134. A(C   4,C   3,H  52)          114.0417         0.322410   
    135. A(C   2,C   3,C   4)          104.2491         0.358189   
    136. A(C   2,C   3,H  53)          109.5120         0.318791   
    137. A(C   2,C   3,H  52)          111.3620         0.319780   
    138. A(H  52,C   3,H  53)          107.5512         0.288249   
    139. A(H  54,C   4,H  55)          108.1758         0.287916   
    140. A(C   3,C   4,H  55)          110.6855         0.321417   
    141. A(C   3,C   4,C   5)          102.8003         0.362736   
    142. A(C   3,C   4,H  54)          113.0024         0.322013   
    143. A(C   5,C   4,H  55)          109.7153         0.322679   
    144. A(C   5,C   4,H  54)          112.3985         0.323279   
    145. A(H  56,C   5,H  57)          107.1290         0.287643   
    146. A(C   4,C   5,N   6)          102.6399         0.367931   
    147. A(C   4,C   5,H  56)          110.7729         0.321990   
    148. A(N   6,C   5,H  57)          111.8842         0.326811   
    149. A(N   6,C   5,H  56)          109.9059         0.325130   
    150. A(C   4,C   5,H  57)          114.4937         0.323649   
    151. A(C   5,N   6,C   7)          127.6839         0.398350   
    152. A(C   2,N   6,C   7)          120.1124         0.397451   
    153. A(C   2,N   6,C   5)          111.5469         0.370867   
    154. A(O   8,C   7,C  24)          122.0702         0.423151   
    155. A(N   6,C   7,O   8)          121.1707         0.464108   
    156. A(N   6,C   7,C  24)          116.6933         0.390563   
    157. A(C   1,N   9,C  10)          123.4411         0.403451   
    158. A(C  10,N   9,H  58)          117.6911         0.337635   
    159. A(C   1,N   9,H  58)          117.4033         0.356753   
    160. A(C  48,C  10,H  59)          109.3087         0.319724   
    161. A(C  11,C  10,H  59)          107.7514         0.318836   
    162. A(N   9,C  10,C  11)          110.6040         0.368480   
    163. A(N   9,C  10,C  48)          112.1070         0.369561   
    164. A(N   9,C  10,H  59)          105.3826         0.329130   
    165. A(C  11,C  10,C  48)          111.4108         0.357534   
    166. A(N  12,C  11,O  47)          123.4057         0.465451   
    167. A(C  10,C  11,O  47)          121.8630         0.424718   
    168. A(C  10,C  11,N  12)          114.7195         0.388955   
    169. A(C  13,N  12,H  60)          113.3586         0.336476   
    170. A(C  11,N  12,C  13)          120.0710         0.402425   
    171. A(C  11,N  12,H  60)          116.5473         0.354576   
    172. A(C  14,C  13,C  45)          116.0663         0.355359   
    173. A(N  12,C  13,H  61)          105.4816         0.329154   
    174. A(C  14,C  13,H  61)          105.4045         0.318044   
    175. A(N  12,C  13,C  14)          107.8008         0.367553   
    176. A(C  45,C  13,H  61)          108.2553         0.318641   
    177. A(N  12,C  13,C  45)          113.0520         0.368279   
    178. A(C  13,C  14,N  15)          116.9079         0.393073   
    179. A(N  15,C  14,O  44)          122.1857         0.468583   
    180. A(C  13,C  14,O  44)          120.8057         0.420639   
    181. A(C  14,N  15,H  62)          117.5129         0.360950   
    182. A(C  16,N  15,H  62)          117.8196         0.336241   
    183. A(C  14,N  15,C  16)          124.6635         0.405410   
    184. A(H  63,C  16,H  64)          107.6281         0.288264   
    185. A(C  17,C  16,H  64)          110.8224         0.320653   
    186. A(N  15,C  16,H  63)          107.6615         0.328554   
    187. A(C  17,C  16,H  63)          106.8250         0.320919   
    188. A(N  15,C  16,C  17)          114.3094         0.367493   
    189. A(N  15,C  16,H  64)          109.3126         0.328280   
    190. A(O  43,C  17,H  65)          110.7892         0.335830   
    191. A(C  18,C  17,H  65)          105.7328         0.315953   
    192. A(C  16,C  17,H  65)          107.2374         0.317987   
    193. A(C  16,C  17,C  18)          112.5891         0.356222   
    194. A(C  18,C  17,O  43)          113.9517         0.377045   
    195. A(C  16,C  17,O  43)          106.4061         0.379625   
    196. A(C  19,C  18,H  66)          107.6480         0.319689   
    197. A(C  17,C  18,H  66)          106.9974         0.318641   
    198. A(C  17,C  18,C  32)          111.9093         0.359112   
    199. A(C  17,C  18,C  19)          113.1969         0.355058   
    200. A(C  19,C  18,C  32)          108.7575         0.360344   
    201. A(C  32,C  18,H  66)          108.1153         0.323203   
    202. A(C  18,C  19,N  20)          113.2574         0.387692   
    203. A(N  20,C  19,O  31)          123.3540         0.466572   
    204. A(C  18,C  19,O  31)          123.3799         0.426855   
    205. A(C  19,N  20,H  67)          117.6287         0.354842   
    206. A(C  19,N  20,C  21)          122.8563         0.400675   
    207. A(C  21,N  20,H  67)          118.1992         0.337217   
    208. A(C  27,C  21,H  68)          110.9272         0.320384   
    209. A(C  22,C  21,H  68)          106.5404         0.320203   
    210. A(N  20,C  21,H  68)          106.7844         0.329772   
    211. A(N  20,C  21,C  22)          113.4484         0.368447   
    212. A(C  22,C  21,C  27)          110.3739         0.357551   
    213. A(N  20,C  21,C  27)          108.7104         0.368665   
    214. A(C  21,C  22,N  23)          114.9796         0.391143   
    215. A(C  21,C  22,O  26)          121.1964         0.424911   
    216. A(N  23,C  22,O  26)          123.6960         0.467224   
    217. A(C  22,N  23,C  24)          123.5818         0.403087   
    218. A(C  24,N  23,H  69)          115.8808         0.334686   
    219. A(C  22,N  23,H  69)          120.3373         0.355114   
    220. A(C  25,C  24,H  70)          109.5905         0.323256   
    221. A(N  23,C  24,H  70)          105.8942         0.328807   
    222. A(C   7,C  24,H  70)          109.9766         0.319814   
    223. A(N  23,C  24,C  25)          112.0190         0.372264   
    224. A(C   7,C  24,N  23)          107.7628         0.368102   
    225. A(C   7,C  24,C  25)          111.4343         0.361642   
    226. A(H  71,C  25,H  73)          109.1695         0.288379   
    227. A(C  24,C  25,H  73)          110.9335         0.323904   
    228. A(H  71,C  25,H  72)          109.0803         0.288336   
    229. A(C  24,C  25,H  72)          110.6725         0.323854   
    230. A(C  24,C  25,H  71)          109.3188         0.323861   
    231. A(H  72,C  25,H  73)          107.6233         0.288373   
    232. A(C  28,C  27,H  75)          109.0520         0.320808   
    233. A(C  21,C  27,C  28)          117.2249         0.359461   
    234. A(H  74,C  27,H  75)          106.1095         0.286145   
    235. A(C  21,C  27,H  75)          106.8410         0.319351   
    236. A(C  28,C  27,H  74)          109.0783         0.320472   
    237. A(C  21,C  27,H  74)          107.9770         0.319017   
    238. A(C  29,C  28,C  30)          111.3111         0.362304   
    239. A(C  27,C  28,C  30)          111.8459         0.361905   
    240. A(C  27,C  28,C  29)          109.2244         0.361570   
    241. A(C  30,C  28,H  76)          107.5454         0.321869   
    242. A(C  29,C  28,H  76)          108.5622         0.321583   
    243. A(C  27,C  28,H  76)          108.2387         0.321243   
    244. A(C  28,C  29,H  79)          111.0542         0.321444   
    245. A(H  78,C  29,H  79)          107.6449         0.287328   
    246. A(H  77,C  29,H  79)          107.5674         0.287033   
    247. A(H  77,C  29,H  78)          107.8864         0.287425   
    248. A(C  28,C  29,H  78)          111.0220         0.321904   
    249. A(C  28,C  29,H  77)          111.4916         0.321559   
    250. A(H  81,C  30,H  82)          107.7275         0.287273   
    251. A(H  80,C  30,H  82)          107.4702         0.287962   
    252. A(C  28,C  30,H  82)          110.6579         0.322176   
    253. A(H  80,C  30,H  81)          108.4796         0.287537   
    254. A(C  28,C  30,H  81)          110.9695         0.321679   
    255. A(C  28,C  30,H  80)          111.3885         0.322488   
    256. A(C  33,C  32,O  42)          122.6136         0.436117   
    257. A(C  18,C  32,O  42)          121.4357         0.431292   
    258. A(C  18,C  32,C  33)          115.9502         0.368361   
    259. A(C  32,C  33,C  34)          112.1280         0.365001   
    260. A(C  34,C  33,H  84)          108.4792         0.319156   
    261. A(H  83,C  33,H  84)          108.3458         0.287031   
    262. A(C  32,C  33,H  84)          107.9288         0.325243   
    263. A(C  34,C  33,H  83)          111.2092         0.320358   
    264. A(C  32,C  33,H  83)          108.6284         0.326476   
    265. A(C  33,C  34,C  35)          112.8544         0.360463   
    266. A(H  85,C  34,H  86)          106.1658         0.286833   
    267. A(C  35,C  34,H  86)          110.4876         0.321908   
    268. A(C  33,C  34,H  86)          109.4424         0.319701   
    269. A(C  35,C  34,H  85)          107.8896         0.321787   
    270. A(C  33,C  34,H  85)          109.7718         0.319581   
    271. A(C  34,C  35,C  36)          112.4660         0.362940   
    272. A(H  87,C  35,H  88)          105.9774         0.286468   
    273. A(C  36,C  35,H  88)          108.7210         0.321486   
    274. A(C  34,C  35,H  88)          108.3433         0.321589   
    275. A(C  36,C  35,H  87)          110.7422         0.321575   
    276. A(C  34,C  35,H  87)          110.3380         0.321677   
    277. A(C  35,C  36,C  37)          113.3639         0.363115   
    278. A(H  89,C  36,H  90)          106.0272         0.286378   
    279. A(C  37,C  36,H  90)          109.8206         0.321692   
    280. A(C  35,C  36,H  90)          109.9402         0.321441   
    281. A(C  37,C  36,H  89)          108.6970         0.321766   
    282. A(C  35,C  36,H  89)          108.7148         0.321515   
    283. A(C  36,C  37,C  38)          113.1475         0.363357   
    284. A(H  91,C  37,H  92)          105.7688         0.286008   
    285. A(C  38,C  37,H  92)          108.7929         0.321354   
    286. A(C  36,C  37,H  92)          108.6995         0.321399   
    287. A(C  38,C  37,H  91)          109.7939         0.321576   
    288. A(C  36,C  37,H  91)          110.3532         0.321622   
    289. A(C  37,C  38,C  39)          113.4910         0.363465   
    290. A(H  93,C  38,H  94)          105.7023         0.286128   
    291. A(C  39,C  38,H  94)          109.6519         0.321719   
    292. A(C  37,C  38,H  94)          109.5627         0.321582   
    293. A(C  39,C  38,H  93)          109.1986         0.321625   
    294. A(C  37,C  38,H  93)          108.9370         0.321489   
    295. A(C  38,C  39,C  40)          113.5741         0.363339   
    296. A(H  95,C  39,H  96)          105.8861         0.285981   
    297. A(C  40,C  39,H  96)          109.1114         0.321319   
    298. A(C  38,C  39,H  96)          109.0440         0.321561   
    299. A(C  40,C  39,H  95)          109.3678         0.321367   
    300. A(C  38,C  39,H  95)          109.5697         0.321610   
    301. A(C  39,C  40,C  41)          113.1222         0.363266   
    302. A(H  97,C  40,H  98)          105.9321         0.286405   
    303. A(C  41,C  40,H  98)          109.6838         0.321781   
    304. A(C  39,C  40,H  98)          109.1824         0.321600   
    305. A(C  41,C  40,H  97)          109.6407         0.321767   
    306. A(C  39,C  40,H  97)          109.0246         0.321586   
    307. A(H 100,C  41,H 101)          107.4534         0.287259   
    308. A(H  99,C  41,H 101)          107.6971         0.287484   
    309. A(C  40,C  41,H 101)          111.1041         0.322276   
    310. A(H  99,C  41,H 100)          107.6768         0.287484   
    311. A(C  40,C  41,H 100)          111.0543         0.322276   
    312. A(C  40,C  41,H  99)          111.6636         0.322541   
    313. A(C  17,O  43,H 102)          105.6031         0.353531   
    314. A(C  13,C  45,C  46)          115.4766         0.359230   
    315. A(C  46,C  45,H 104)          108.5117         0.322130   
    316. A(C  13,C  45,H 104)          105.2700         0.319389   
    317. A(C  46,C  45,H 103)          111.4410         0.322554   
    318. A(C  13,C  45,H 103)          109.4784         0.319808   
    319. A(H 103,C  45,H 104)          106.0605         0.288121   
    320. A(H 106,C  46,H 107)          108.1167         0.287066   
    321. A(H 105,C  46,H 107)          107.5012         0.287636   
    322. A(C  45,C  46,H 107)          111.8121         0.321851   
    323. A(H 105,C  46,H 106)          105.3558         0.287418   
    324. A(C  45,C  46,H 106)          113.6426         0.321596   
    325. A(C  45,C  46,H 105)          110.0427         0.322265   
    326. A(C  50,C  48,H 108)          108.0258         0.322219   
    327. A(C  49,C  48,H 108)          109.2747         0.322639   
    328. A(C  10,C  48,H 108)          105.6858         0.320440   
    329. A(C  49,C  48,C  50)          111.3737         0.363224   
    330. A(C  10,C  48,C  50)          111.4991         0.360643   
    331. A(C  10,C  48,C  49)          110.7631         0.361132   
    332. A(H 110,C  49,H 111)          107.7908         0.287485   
    333. A(H 109,C  49,H 111)          108.1554         0.287781   
    334. A(C  48,C  49,H 111)          110.6436         0.322636   
    335. A(H 109,C  49,H 110)          107.7037         0.287569   
    336. A(C  48,C  49,H 110)          110.9727         0.322386   
    337. A(C  48,C  49,H 109)          111.4303         0.322734   
    338. A(H 113,C  50,H 114)          106.8783         0.287636   
    339. A(H 112,C  50,H 114)          109.0052         0.287422   
    340. A(C  48,C  50,H 114)          111.0074         0.321863   
    341. A(H 112,C  50,H 113)          108.2490         0.287963   
    342. A(C  48,C  50,H 113)          110.7209         0.322497   
    343. A(C  48,C  50,H 112)          110.8520         0.322246   
    344. D(H  51,C   2,C   1,N   9)   -136.4795         0.010325   
    345. D(C   3,C   2,C   1,N   9)    101.8122         0.010325   
    346. D(N   6,C   2,C   1,N   9)    -15.7419         0.010325   
    347. D(N   6,C   2,C   1,O   0)    166.8444         0.010325   
    348. D(C   3,C   2,C   1,O   0)    -75.6015         0.010325   
    349. D(H  51,C   2,C   1,O   0)     46.1068         0.010325   
    350. D(C   4,C   3,C   2,N   6)    -20.8899         0.009837   
    351. D(H  53,C   3,C   2,H  51)   -145.3897         0.009837   
    352. D(H  53,C   3,C   2,C   1)    -27.3933         0.009837   
    353. D(C   4,C   3,C   2,H  51)     96.8478         0.009837   
    354. D(H  53,C   3,C   2,N   6)     96.8725         0.009837   
    355. D(H  52,C   3,C   2,H  51)    -26.5651         0.009837   
    356. D(C   4,C   3,C   2,C   1)   -145.1557         0.009837   
    357. D(H  52,C   3,C   2,C   1)     91.4314         0.009837   
    358. D(H  52,C   3,C   2,N   6)   -144.3028         0.009837   
    359. D(H  55,C   4,C   3,H  53)    161.6124         0.010795   
    360. D(H  55,C   4,C   3,H  52)     40.6383         0.010795   
    361. D(H  54,C   4,C   3,H  52)    -80.8632         0.010795   
    362. D(H  55,C   4,C   3,C   2)    -81.0170         0.010795   
    363. D(H  54,C   4,C   3,H  53)     40.1109         0.010795   
    364. D(C   5,C   4,C   3,C   2)     36.0846         0.010795   
    365. D(H  54,C   4,C   3,C   2)    157.4815         0.010795   
    366. D(C   5,C   4,C   3,H  53)    -81.2860         0.010795   
    367. D(C   5,C   4,C   3,H  52)    157.7399         0.010795   
    368. D(N   6,C   5,C   4,C   3)    -37.1694         0.011292   
    369. D(H  57,C   5,C   4,C   3)   -158.6316         0.011292   
    370. D(H  56,C   5,C   4,H  55)   -162.1058         0.011292   
    371. D(H  56,C   5,C   4,C   3)     80.1053         0.011292   
    372. D(H  57,C   5,C   4,H  54)     79.5609         0.011292   
    373. D(H  56,C   5,C   4,H  54)    -41.7022         0.011292   
    374. D(H  57,C   5,C   4,H  55)    -40.8427         0.011292   
    375. D(N   6,C   5,C   4,H  54)   -158.9769         0.011292   
    376. D(N   6,C   5,C   4,H  55)     80.6194         0.011292   
    377. D(C   5,N   6,C   2,C   3)     -2.8004         0.014249   
    378. D(C   7,N   6,C   5,H  57)    -22.0643         0.014615   
    379. D(C   7,N   6,C   5,H  56)     96.8181         0.014615   
    380. D(C   7,N   6,C   5,C   4)   -145.2918         0.014615   
    381. D(C   2,N   6,C   5,H  57)    148.5355         0.014615   
    382. D(C   2,N   6,C   5,H  56)    -92.5820         0.014615   
    383. D(C   7,N   6,C   2,H  51)     48.8637         0.014249   
    384. D(C   2,N   6,C   5,C   4)     25.3080         0.014615   
    385. D(C   7,N   6,C   2,C   3)    168.6060         0.014249   
    386. D(C   5,N   6,C   2,C   1)    118.5185         0.014249   
    387. D(C   7,N   6,C   2,C   1)    -70.0750         0.014249   
    388. D(C   5,N   6,C   2,H  51)   -122.5427         0.014249   
    389. D(C  24,C   7,N   6,C   5)     -6.3349         0.030742   
    390. D(C  24,C   7,N   6,C   2)   -176.2204         0.030742   
    391. D(O   8,C   7,N   6,C   5)    176.5556         0.030742   
    392. D(O   8,C   7,N   6,C   2)      6.6701         0.030742   
    393. D(H  58,N   9,C   1,O   0)   -173.2937         0.030787   
    394. D(C  10,N   9,C   1,C   2)    175.2512         0.030787   
    395. D(H  58,N   9,C   1,C   2)      9.4014         0.030787   
    396. D(C  10,N   9,C   1,O   0)     -7.4439         0.030787   
    397. D(H  59,C  10,N   9,C   1)      3.9036         0.016863   
    398. D(C  48,C  10,N   9,H  58)    -71.4744         0.016863   
    399. D(C  48,C  10,N   9,C   1)    122.7137         0.016863   
    400. D(C  11,C  10,N   9,C   1)   -112.2805         0.016863   
    401. D(H  59,C  10,N   9,H  58)    169.7155         0.016863   
    402. D(C  11,C  10,N   9,H  58)     53.5314         0.016863   
    403. D(O  47,C  11,C  10,N   9)   -145.8198         0.009415   
    404. D(N  12,C  11,C  10,H  59)    -79.3146         0.009415   
    405. D(N  12,C  11,C  10,C  48)    160.7878         0.009415   
    406. D(N  12,C  11,C  10,N   9)     35.3882         0.009415   
    407. D(O  47,C  11,C  10,H  59)     99.4774         0.009415   
    408. D(O  47,C  11,C  10,C  48)    -20.4201         0.009415   
    409. D(H  60,N  12,C  11,O  47)    166.5860         0.029814   
    410. D(H  60,N  12,C  11,C  10)    -14.6430         0.029814   
    411. D(C  13,N  12,C  11,O  47)     23.3196         0.029814   
    412. D(C  13,N  12,C  11,C  10)   -157.9094         0.029814   
    413. D(H  61,C  13,N  12,C  11)    173.6758         0.016881   
    414. D(H  61,C  13,N  12,H  60)     29.3236         0.016881   
    415. D(C  45,C  13,N  12,H  60)    147.4307         0.016881   
    416. D(C  45,C  13,N  12,C  11)    -68.2171         0.016881   
    417. D(C  14,C  13,N  12,C  11)     61.4397         0.016881   
    418. D(C  14,C  13,N  12,H  60)    -82.9125         0.016881   
    419. D(O  44,C  14,C  13,C  45)    132.7150         0.009158   
    420. D(O  44,C  14,C  13,N  12)      4.7716         0.009158   
    421. D(N  15,C  14,C  13,H  61)     68.9129         0.009158   
    422. D(N  15,C  14,C  13,C  45)    -50.8555         0.009158   
    423. D(O  44,C  14,C  13,H  61)   -107.5166         0.009158   
    424. D(N  15,C  14,C  13,N  12)   -178.7989         0.009158   
    425. D(H  62,N  15,C  14,O  44)   -178.4961         0.035098   
    426. D(H  62,N  15,C  14,C  13)      5.1276         0.035098   
    427. D(C  16,N  15,C  14,O  44)      2.2513         0.035098   
    428. D(C  16,N  15,C  14,C  13)   -174.1250         0.035098   
    429. D(H  64,C  16,N  15,H  62)   -137.5332         0.015780   
    430. D(H  64,C  16,N  15,C  14)     41.7173         0.015780   
    431. D(H  63,C  16,N  15,H  62)    -20.8954         0.015780   
    432. D(H  63,C  16,N  15,C  14)    158.3550         0.015780   
    433. D(C  17,C  16,N  15,C  14)    -83.1457         0.015780   
    434. D(C  17,C  16,N  15,H  62)     97.6039         0.015780   
    435. D(H  65,C  17,C  16,H  64)   -156.2443         0.010370   
    436. D(H  65,C  17,C  16,H  63)     86.7877         0.010370   
    437. D(H  65,C  17,C  16,N  15)    -32.1850         0.010370   
    438. D(O  43,C  17,C  16,H  64)     85.1521         0.010370   
    439. D(O  43,C  17,C  16,H  63)    -31.8160         0.010370   
    440. D(O  43,C  17,C  16,N  15)   -150.7887         0.010370   
    441. D(C  18,C  17,C  16,H  64)    -40.3587         0.010370   
    442. D(C  18,C  17,C  16,H  63)   -157.3267         0.010370   
    443. D(C  18,C  17,C  16,N  15)     83.7005         0.010370   
    444. D(H  66,C  18,C  17,H  65)     55.2780         0.009643   
    445. D(H  66,C  18,C  17,O  43)    177.1909         0.009643   
    446. D(H  66,C  18,C  17,C  16)    -61.5071         0.009643   
    447. D(C  32,C  18,C  17,O  43)     58.9367         0.009643   
    448. D(C  32,C  18,C  17,C  16)   -179.7613         0.009643   
    449. D(C  32,C  18,C  17,H  65)    -62.9762         0.009643   
    450. D(C  19,C  18,C  17,H  65)    173.6957         0.009643   
    451. D(C  19,C  18,C  17,O  43)    -64.3914         0.009643   
    452. D(C  19,C  18,C  17,C  16)     56.9106         0.009643   
    453. D(O  31,C  19,C  18,H  66)    169.9386         0.009382   
    454. D(O  31,C  19,C  18,C  32)    -73.1490         0.009382   
    455. D(O  31,C  19,C  18,C  17)     51.8989         0.009382   
    456. D(N  20,C  19,C  18,H  66)    -11.1058         0.009382   
    457. D(N  20,C  19,C  18,C  17)   -129.1455         0.009382   
    458. D(N  20,C  19,C  18,C  32)    105.8067         0.009382   
    459. D(H  67,N  20,C  19,O  31)   -173.8637         0.028760   
    460. D(H  67,N  20,C  19,C  18)      7.1804         0.028760   
    461. D(C  21,N  20,C  19,O  31)     -7.2140         0.028760   
    462. D(C  21,N  20,C  19,C  18)    173.8300         0.028760   
    463. D(H  68,C  21,N  20,H  67)   -169.2141         0.016611   
    464. D(H  68,C  21,N  20,C  19)     24.2081         0.016611   
    465. D(C  27,C  21,N  20,H  67)    -49.4755         0.016611   
    466. D(C  27,C  21,N  20,C  19)    143.9468         0.016611   
    467. D(C  22,C  21,N  20,H  67)     73.7241         0.016611   
    468. D(C  22,C  21,N  20,C  19)    -92.8536         0.016611   
    469. D(N  23,C  22,C  21,C  27)    103.5590         0.009535   
    470. D(N  23,C  22,C  21,N  20)    -18.7223         0.009535   
    471. D(O  26,C  22,C  21,H  68)     48.0388         0.009535   
    472. D(O  26,C  22,C  21,C  27)    -72.4757         0.009535   
    473. D(O  26,C  22,C  21,N  20)    165.2431         0.009535   
    474. D(N  23,C  22,C  21,H  68)   -135.9266         0.009535   
    475. D(H  69,N  23,C  22,O  26)   -174.0495         0.031474   
    476. D(H  69,N  23,C  22,C  21)     10.0276         0.031474   
    477. D(C  24,N  23,C  22,O  26)      0.5933         0.031474   
    478. D(C  24,N  23,C  22,C  21)   -175.3296         0.031474   
    479. D(H  70,C  24,N  23,H  69)   -179.9840         0.016350   
    480. D(H  70,C  24,N  23,C  22)      5.1544         0.016350   
    481. D(C  25,C  24,N  23,H  69)     60.5960         0.016350   
    482. D(C  25,C  24,N  23,C  22)   -114.2656         0.016350   
    483. D(C   7,C  24,N  23,H  69)    -62.3244         0.016350   
    484. D(C   7,C  24,N  23,C  22)    122.8141         0.016350   
    485. D(H  70,C  24,C   7,O   8)   -134.5329         0.009577   
    486. D(H  70,C  24,C   7,N   6)     48.3857         0.009577   
    487. D(C  25,C  24,C   7,O   8)    -12.7989         0.009577   
    488. D(C  25,C  24,C   7,N   6)    170.1197         0.009577   
    489. D(N  23,C  24,C   7,O   8)    110.4789         0.009577   
    490. D(N  23,C  24,C   7,N   6)    -66.6025         0.009577   
    491. D(H  73,C  25,C  24,H  70)   -178.2644         0.011549   
    492. D(H  73,C  25,C  24,N  23)    -61.0391         0.011549   
    493. D(H  73,C  25,C  24,C   7)     59.7780         0.011549   
    494. D(H  72,C  25,C  24,H  70)     62.3427         0.011549   
    495. D(H  72,C  25,C  24,N  23)    179.5679         0.011549   
    496. D(H  72,C  25,C  24,C   7)    -59.6150         0.011549   
    497. D(H  71,C  25,C  24,H  70)    -57.8236         0.011549   
    498. D(H  71,C  25,C  24,N  23)     59.4017         0.011549   
    499. D(H  71,C  25,C  24,C   7)   -179.7812         0.011549   
    500. D(H  75,C  27,C  21,H  68)     64.0939         0.010235   
    501. D(H  75,C  27,C  21,C  22)   -178.0564         0.010235   
    502. D(H  75,C  27,C  21,N  20)    -53.0309         0.010235   
    503. D(H  74,C  27,C  21,H  68)    177.8601         0.010235   
    504. D(H  74,C  27,C  21,C  22)    -64.2902         0.010235   
    505. D(H  74,C  27,C  21,N  20)     60.7353         0.010235   
    506. D(C  28,C  27,C  21,H  68)    -58.5405         0.010235   
    507. D(C  28,C  27,C  21,C  22)     59.3092         0.010235   
    508. D(C  28,C  27,C  21,N  20)   -175.6653         0.010235   
    509. D(H  76,C  28,C  27,H  75)   -179.1265         0.010781   
    510. D(H  76,C  28,C  27,H  74)     65.4025         0.010781   
    511. D(H  76,C  28,C  27,C  21)    -57.6355         0.010781   
    512. D(C  30,C  28,C  27,H  75)    -60.8274         0.010781   
    513. D(C  30,C  28,C  27,H  74)   -176.2985         0.010781   
    514. D(C  30,C  28,C  27,C  21)     60.6636         0.010781   
    515. D(C  29,C  28,C  27,H  75)     62.8470         0.010781   
    516. D(C  29,C  28,C  27,H  74)    -52.6240         0.010781   
    517. D(C  29,C  28,C  27,C  21)   -175.6619         0.010781   
    518. D(H  79,C  29,C  28,C  30)     61.5156         0.010912   
    519. D(H  79,C  29,C  28,C  27)    -62.4744         0.010912   
    520. D(H  78,C  29,C  28,H  76)     59.9732         0.010912   
    521. D(H  78,C  29,C  28,C  30)    -58.2134         0.010912   
    522. D(H  78,C  29,C  28,C  27)    177.7966         0.010912   
    523. D(H  77,C  29,C  28,H  76)    -60.3538         0.010912   
    524. D(H  77,C  29,C  28,C  30)   -178.5403         0.010912   
    525. D(H  79,C  29,C  28,H  76)    179.7021         0.010912   
    526. D(H  77,C  29,C  28,C  27)     57.4697         0.010912   
    527. D(H  82,C  30,C  28,H  76)    -64.7651         0.011024   
    528. D(H  82,C  30,C  28,C  29)     54.0321         0.011024   
    529. D(H  82,C  30,C  28,C  27)    176.5237         0.011024   
    530. D(H  81,C  30,C  28,H  76)    175.6976         0.011024   
    531. D(H  81,C  30,C  28,C  29)    -65.5053         0.011024   
    532. D(H  81,C  30,C  28,C  27)     56.9863         0.011024   
    533. D(H  80,C  30,C  28,H  76)     54.7227         0.011024   
    534. D(H  80,C  30,C  28,C  29)    173.5199         0.011024   
    535. D(H  80,C  30,C  28,C  27)    -63.9885         0.011024   
    536. D(O  42,C  32,C  18,H  66)   -151.9125         0.010615   
    537. D(O  42,C  32,C  18,C  19)     91.4740         0.010615   
    538. D(O  42,C  32,C  18,C  17)    -34.3257         0.010615   
    539. D(C  33,C  32,C  18,H  66)     27.8362         0.010615   
    540. D(C  33,C  32,C  18,C  19)    -88.7773         0.010615   
    541. D(C  33,C  32,C  18,C  17)    145.4230         0.010615   
    542. D(H  84,C  33,C  32,O  42)   -129.2861         0.011932   
    543. D(H  84,C  33,C  32,C  18)     50.9684         0.011932   
    544. D(H  83,C  33,C  32,O  42)    -12.0170         0.011932   
    545. D(H  83,C  33,C  32,C  18)    168.2375         0.011932   
    546. D(C  34,C  33,C  32,O  42)    111.2952         0.011932   
    547. D(C  34,C  33,C  32,C  18)    -68.4503         0.011932   
    548. D(H  86,C  34,C  33,H  84)    174.9159         0.010255   
    549. D(H  86,C  34,C  33,H  83)     55.8602         0.010255   
    550. D(H  86,C  34,C  33,C  32)    -65.9885         0.010255   
    551. D(H  85,C  34,C  33,H  84)    -68.9395         0.010255   
    552. D(H  85,C  34,C  33,H  83)    172.0048         0.010255   
    553. D(H  85,C  34,C  33,C  32)     50.1561         0.010255   
    554. D(C  35,C  34,C  33,H  84)     51.4413         0.010255   
    555. D(C  35,C  34,C  33,H  83)    -67.6144         0.010255   
    556. D(C  35,C  34,C  33,C  32)    170.5369         0.010255   
    557. D(H  88,C  35,C  34,H  86)   -170.8585         0.011094   
    558. D(H  88,C  35,C  34,H  85)     73.4882         0.011094   
    559. D(H  88,C  35,C  34,C  33)    -47.9644         0.011094   
    560. D(H  87,C  35,C  34,H  86)    -55.2531         0.011094   
    561. D(H  87,C  35,C  34,H  85)   -170.9064         0.011094   
    562. D(H  87,C  35,C  34,C  33)     67.6409         0.011094   
    563. D(C  36,C  35,C  34,H  86)     68.9416         0.011094   
    564. D(C  36,C  35,C  34,H  85)    -46.7117         0.011094   
    565. D(C  36,C  35,C  34,C  33)   -168.1643         0.011094   
    566. D(H  90,C  36,C  35,H  87)     53.9487         0.011054   
    567. D(H  90,C  36,C  35,C  34)    -70.0222         0.011054   
    568. D(H  89,C  36,C  35,H  88)    -74.3456         0.011054   
    569. D(H  89,C  36,C  35,H  87)    169.6067         0.011054   
    570. D(H  89,C  36,C  35,C  34)     45.6358         0.011054   
    571. D(C  37,C  36,C  35,H  88)     46.6542         0.011054   
    572. D(C  37,C  36,C  35,H  87)    -69.3935         0.011054   
    573. D(H  90,C  36,C  35,H  88)    169.9964         0.011054   
    574. D(C  37,C  36,C  35,C  34)    166.6355         0.011054   
    575. D(H  92,C  37,C  36,H  90)   -177.3105         0.011154   
    576. D(H  92,C  37,C  36,H  89)     67.1073         0.011154   
    577. D(H  92,C  37,C  36,C  35)    -53.9025         0.011154   
    578. D(H  91,C  37,C  36,H  90)    -61.7433         0.011154   
    579. D(H  91,C  37,C  36,H  89)   -177.3256         0.011154   
    580. D(H  91,C  37,C  36,C  35)     61.6646         0.011154   
    581. D(C  38,C  37,C  36,H  90)     61.7201         0.011154   
    582. D(C  38,C  37,C  36,H  89)    -53.8622         0.011154   
    583. D(C  38,C  37,C  36,C  35)   -174.8720         0.011154   
    584. D(H  94,C  38,C  37,H  92)    174.5433         0.011136   
    585. D(H  94,C  38,C  37,H  91)     59.2307         0.011136   
    586. D(H  94,C  38,C  37,C  36)    -64.5402         0.011136   
    587. D(H  93,C  38,C  37,H  92)    -70.2697         0.011136   
    588. D(H  93,C  38,C  37,H  91)    174.4177         0.011136   
    589. D(H  93,C  38,C  37,C  36)     50.6468         0.011136   
    590. D(C  39,C  38,C  37,H  92)     51.6140         0.011136   
    591. D(C  39,C  38,C  37,H  91)    -63.6986         0.011136   
    592. D(C  39,C  38,C  37,C  36)    172.5305         0.011136   
    593. D(H  95,C  39,C  38,H  94)    -64.0526         0.011190   
    594. D(H  95,C  39,C  38,H  93)   -179.4345         0.011190   
    595. D(H  95,C  39,C  38,C  37)     58.8275         0.011190   
    596. D(C  40,C  39,C  38,H  94)     58.5716         0.011190   
    597. D(C  40,C  39,C  38,H  93)    -56.8103         0.011190   
    598. D(C  40,C  39,C  38,C  37)   -178.5482         0.011190   
    599. D(H  96,C  39,C  38,H  94)   -179.5226         0.011190   
    600. D(H  96,C  39,C  38,H  93)     65.0955         0.011190   
    601. D(H  96,C  39,C  38,C  37)    -56.6425         0.011190   
    602. D(H  98,C  40,C  39,H  95)     64.2714         0.011093   
    603. D(H  98,C  40,C  39,C  38)    -58.4642         0.011093   
    604. D(H  97,C  40,C  39,H  96)    -65.0309         0.011093   
    605. D(H  97,C  40,C  39,H  95)    179.5729         0.011093   
    606. D(H  97,C  40,C  39,C  38)     56.8374         0.011093   
    607. D(C  41,C  40,C  39,H  96)     57.2335         0.011093   
    608. D(C  41,C  40,C  39,H  95)    -58.1627         0.011093   
    609. D(H  98,C  40,C  39,H  96)    179.6676         0.011093   
    610. D(C  41,C  40,C  39,C  38)    179.1018         0.011093   
    611. D(H 101,C  41,C  40,H  98)    -62.3168         0.011165   
    612. D(H 101,C  41,C  40,H  97)   -178.2430         0.011165   
    613. D(H 101,C  41,C  40,C  39)     59.8373         0.011165   
    614. D(H 100,C  41,C  40,H  98)    178.1410         0.011165   
    615. D(H 100,C  41,C  40,H  97)     62.2148         0.011165   
    616. D(H 100,C  41,C  40,C  39)    -59.7049         0.011165   
    617. D(H  99,C  41,C  40,H  98)     57.9420         0.011165   
    618. D(H  99,C  41,C  40,H  97)    -57.9842         0.011165   
    619. D(H  99,C  41,C  40,C  39)   -179.9038         0.011165   
    620. D(H 102,O  43,C  17,H  65)     80.2540         0.021387   
    621. D(H 102,O  43,C  17,C  18)    -38.8247         0.021387   
    622. D(H 102,O  43,C  17,C  16)   -163.5014         0.021387   
    623. D(H 104,C  45,C  13,H  61)     81.8361         0.009972   
    624. D(H 104,C  45,C  13,C  14)   -159.9521         0.009972   
    625. D(H 104,C  45,C  13,N  12)    -34.6407         0.009972   
    626. D(H 103,C  45,C  13,H  61)   -164.5391         0.009972   
    627. D(H 103,C  45,C  13,C  14)    -46.3272         0.009972   
    628. D(H 103,C  45,C  13,N  12)     78.9842         0.009972   
    629. D(C  46,C  45,C  13,H  61)    -37.8105         0.009972   
    630. D(C  46,C  45,C  13,C  14)     80.4014         0.009972   
    631. D(C  46,C  45,C  13,N  12)   -154.2873         0.009972   
    632. D(H 107,C  46,C  45,H 104)    -71.7141         0.010991   
    633. D(H 107,C  46,C  45,H 103)    171.8669         0.010991   
    634. D(H 107,C  46,C  45,C  13)     46.1378         0.010991   
    635. D(H 106,C  46,C  45,H 104)    165.5461         0.010991   
    636. D(H 106,C  46,C  45,H 103)     49.1272         0.010991   
    637. D(H 106,C  46,C  45,C  13)    -76.6019         0.010991   
    638. D(H 105,C  46,C  45,H 104)     47.6793         0.010991   
    639. D(H 105,C  46,C  45,H 103)    -68.7397         0.010991   
    640. D(H 105,C  46,C  45,C  13)    165.5312         0.010991   
    641. D(H 108,C  48,C  10,H  59)    -70.9016         0.010363   
    642. D(H 108,C  48,C  10,C  11)     48.0709         0.010363   
    643. D(H 108,C  48,C  10,N   9)    172.6306         0.010363   
    644. D(C  50,C  48,C  10,H  59)    171.9651         0.010363   
    645. D(C  50,C  48,C  10,C  11)    -69.0625         0.010363   
    646. D(C  50,C  48,C  10,N   9)     55.4973         0.010363   
    647. D(C  49,C  48,C  10,H  59)     47.3372         0.010363   
    648. D(C  49,C  48,C  10,C  11)    166.3097         0.010363   
    649. D(C  49,C  48,C  10,N   9)    -69.1306         0.010363   
    650. D(H 111,C  49,C  48,C  50)     56.3878         0.011206   
    651. D(H 111,C  49,C  48,C  10)   -178.9131         0.011206   
    652. D(H 110,C  49,C  48,H 108)    177.5105         0.011206   
    653. D(H 110,C  49,C  48,C  50)    -63.2216         0.011206   
    654. D(H 110,C  49,C  48,C  10)     61.4774         0.011206   
    655. D(H 109,C  49,C  48,H 108)     57.4898         0.011206   
    656. D(H 109,C  49,C  48,C  50)    176.7577         0.011206   
    657. D(H 111,C  49,C  48,H 108)    -62.8801         0.011206   
    658. D(H 109,C  49,C  48,C  10)    -58.5432         0.011206   
    659. D(H 114,C  50,C  48,H 108)    179.2535         0.011039   
    660. D(H 114,C  50,C  48,C  49)     59.2448         0.011039   
    661. D(H 114,C  50,C  48,C  10)    -65.0403         0.011039   
    662. D(H 113,C  50,C  48,H 108)     60.7125         0.011039   
    663. D(H 113,C  50,C  48,C  49)    -59.2962         0.011039   
    664. D(H 113,C  50,C  48,C  10)    176.4188         0.011039   
    665. D(H 112,C  50,C  48,H 108)    -59.4437         0.011039   
    666. D(H 112,C  50,C  48,C  49)   -179.4524         0.011039   
    667. D(H 112,C  50,C  48,C  10)     56.2625         0.011039   
    -----------------------------------------------------------------

Number of atoms                         .... 115
Number of degrees of freedom            .... 667

         *************************************************************
         *                GEOMETRY OPTIMIZATION CYCLE   1            *
         *************************************************************
---------------------------------
CARTESIAN COORDINATES (ANGSTROEM)
---------------------------------
  O      1.608790   -3.269469    3.079680
  C      1.828840   -2.124889    2.692573
  C      2.912873   -1.272052    3.358340
  C      2.430515   -0.747857    4.732965
  C      3.065097    0.644481    4.850122
  C      3.012620    1.162435    3.413445
  N      3.289426   -0.048829    2.624028
  C      3.979200   -0.139939    1.451212
  O      4.195847   -1.238351    0.917552
  N      1.123026   -1.497562    1.709021
  C      0.123935   -2.163518    0.891525
  C      0.604572   -2.272933   -0.572950
  N      1.948361   -2.479894   -0.719861
  C      2.606137   -2.132438   -1.967333
  C      2.437868   -0.607400   -2.182764
  N      2.963276   -0.089304   -3.309693
  C      3.011408    1.337011   -3.625139
  C      1.713773    1.894610   -4.240181
  C      0.659802    2.272227   -3.166516
  C      1.182839    3.296339   -2.133619
  N      0.977237    2.908068   -0.833747
  C      1.501408    3.648444    0.303347
  C      2.877822    3.142245    0.784056
  N      3.204280    1.887074    0.372394
  C      4.410362    1.188368    0.795850
  C      5.370902    0.951260   -0.364467
  O      3.575152    3.815158    1.546875
  C      0.474227    3.583460    1.452092
  C      0.786442    4.390532    2.719670
  C     -0.290449    4.110700    3.774282
  C      0.902574    5.889344    2.426821
  O      1.709414    4.356742   -2.443920
  C     -0.622078    2.817589   -3.793199
  C     -1.906757    2.472225   -3.077282
  C     -2.239590    0.969569   -3.173698
  C     -3.403818    0.559284   -2.268659
  C     -3.542526   -0.960693   -2.146581
  C     -4.472272   -1.395913   -1.012271
  C     -4.510487   -2.912678   -0.814323
  C     -5.291605   -3.345969    0.427118
  C     -5.301370   -4.860802    0.646418
  C     -6.066783   -5.281020    1.902446
  O     -0.596945    3.489998   -4.818560
  O      2.095893    2.968925   -5.070088
  O      1.901482    0.102496   -1.315289
  C      2.181623   -3.036290   -3.147847
  C      3.206078   -3.166820   -4.279414
  O     -0.178327   -2.200596   -1.521558
  C     -1.251581   -1.475689    0.982087
  C     -1.865689   -1.672157    2.368708
  C     -1.161928    0.008719    0.616626
  H      3.794086   -1.923349    3.450396
  H      2.707055   -1.433645    5.540835
  H      1.333373   -0.663953    4.729920
  H      2.533354    1.300456    5.550739
  H      4.112294    0.567911    5.179074
  H      2.006194    1.546412    3.172225
  H      3.725222    1.964705    3.193640
  H      1.459086   -0.589188    1.398229
  H      0.047780   -3.186286    1.297822
  H      2.529531   -2.313094    0.105262
  H      3.683279   -2.285515   -1.784856
  H      3.363359   -0.736695   -3.981216
  H      3.804819    1.487060   -4.367748
  H      3.289151    1.899323   -2.723377
  H      1.254922    1.077082   -4.838843
  H      0.409520    1.350641   -2.624263
  H      0.619803    1.969476   -0.672719
  H      1.648874    4.683170   -0.032783
  H      2.633140    1.407804   -0.334406
  H      4.888632    1.838830    1.543810
  H      5.657526    1.916294   -0.801538
  H      6.273833    0.431128   -0.019891
  H      4.904366    0.329372   -1.138798
  H      0.334597    2.521833    1.725096
  H     -0.490491    3.922455    1.037810
  H      1.757953    4.052864    3.112612
  H     -0.358637    3.036372    4.006026
  H     -0.073958    4.644967    4.710387
  H     -1.282147    4.438943    3.424090
  H      1.747779    6.102575    1.759441
  H     -0.018187    6.271994    1.957572
  H      1.064743    6.454624    3.355757
  H     -2.716578    3.086109   -3.494000
  H     -1.783679    2.735892   -2.011710
  H     -1.358917    0.373216   -2.883869
  H     -2.455474    0.708300   -4.222016
  H     -4.344761    1.009909   -2.626478
  H     -3.227991    0.980669   -1.264167
  H     -2.543394   -1.394362   -1.971018
  H     -3.894915   -1.384482   -3.102735
  H     -5.494061   -1.015704   -1.186029
  H     -4.131388   -0.922829   -0.073475
  H     -3.475334   -3.290957   -0.742464
  H     -4.942089   -3.391653   -1.710446
  H     -6.331128   -2.979329    0.356794
  H     -4.857117   -2.854584    1.316101
  H     -4.260603   -5.222012    0.708119
  H     -5.740605   -5.352364   -0.238318
  H     -6.057203   -6.372044    2.037555
  H     -5.626012   -4.828693    2.804003
  H     -7.118277   -4.959315    1.852013
  H      1.270794    3.479531   -5.239202
  H      1.205376   -2.709015   -3.526503
  H      2.019350   -4.030361   -2.707579
  H      2.940286   -4.009145   -4.932610
  H      3.248356   -2.286520   -4.941006
  H      4.219824   -3.354100   -3.893721
  H     -1.882691   -1.973252    0.231849
  H     -1.983328   -2.738163    2.608367
  H     -1.231705   -1.221912    3.147764
  H     -2.855579   -1.197085    2.425081
  H     -0.728508    0.139590   -0.385089
  H     -2.157673    0.471335    0.623546
  H     -0.548683    0.558873    1.347399

----------------------------
CARTESIAN COORDINATES (A.U.)
----------------------------
  NO LB      ZA    FRAG     MASS         X           Y           Z
   0 O     8.0000    0    15.999    3.040173   -6.178401    5.819753
   1 C     6.0000    0    12.011    3.456007   -4.015458    5.088225
   2 C     6.0000    0    12.011    5.504533   -2.403830    6.346342
   3 C     6.0000    0    12.011    4.593008   -1.413245    8.944007
   4 C     6.0000    0    12.011    5.792194    1.217892    9.165403
   5 C     6.0000    0    12.011    5.693027    2.196685    6.450477
   6 N     7.0000    0    14.007    6.216114   -0.092274    4.958694
   7 C     6.0000    0    12.011    7.519598   -0.264446    2.742392
   8 O     8.0000    0    15.999    7.929002   -2.340144    1.733921
   9 N     7.0000    0    14.007    2.122212   -2.829982    3.229582
  10 C     6.0000    0    12.011    0.234203   -4.088457    1.684739
  11 C     6.0000    0    12.011    1.142475   -4.295221   -1.082718
  12 N     7.0000    0    14.007    3.681868   -4.686321   -1.360340
  13 C     6.0000    0    12.011    4.924886   -4.029723   -3.717721
  14 C     6.0000    0    12.011    4.606903   -1.147820   -4.124826
  15 N     7.0000    0    14.007    5.599781   -0.168760   -6.254414
  16 C     6.0000    0    12.011    5.690737    2.526585   -6.850521
  17 C     6.0000    0    12.011    3.238562    3.580293   -8.012781
  18 C     6.0000    0    12.011    1.246844    4.293887   -5.983848
  19 C     6.0000    0    12.011    2.235241    6.229177   -4.031955
  20 N     7.0000    0    14.007    1.846711    5.495452   -1.575553
  21 C     6.0000    0    12.011    2.837249    6.894561    0.573242
  22 C     6.0000    0    12.011    5.438296    5.937983    1.481652
  23 N     7.0000    0    14.007    6.055211    3.566053    0.703723
  24 C     6.0000    0    12.011    8.334377    2.245690    1.503938
  25 C     6.0000    0    12.011   10.149533    1.797621   -0.688742
  26 O     8.0000    0    15.999    6.756058    7.209604    2.923171
  27 C     6.0000    0    12.011    0.896159    6.771758    2.744055
  28 C     6.0000    0    12.011    1.486161    8.296903    5.139431
  29 C     6.0000    0    12.011   -0.548869    7.768097    7.132359
  30 C     6.0000    0    12.011    1.705618   11.129247    4.586027
  31 O     8.0000    0    15.999    3.230324    8.233049   -4.618339
  32 C     6.0000    0    12.011   -1.175557    5.324472   -7.168107
  33 C     6.0000    0    12.011   -3.603249    4.671829   -5.815220
  34 C     6.0000    0    12.011   -4.232212    1.832221   -5.997419
  35 C     6.0000    0    12.011   -6.432284    1.056894   -4.287143
  36 C     6.0000    0    12.011   -6.694404   -1.815447   -4.056451
  37 C     6.0000    0    12.011   -8.451369   -2.637893   -1.912915
  38 C     6.0000    0    12.011   -8.523585   -5.504163   -1.538848
  39 C     6.0000    0    12.011   -9.999684   -6.322965    0.807136
  40 C     6.0000    0    12.011  -10.018137   -9.185584    1.221553
  41 C     6.0000    0    12.011  -11.464558   -9.979682    3.595101
  42 O     8.0000    0    15.999   -1.128062    6.595141   -9.105758
  43 O     8.0000    0    15.999    3.960664    5.610455   -9.581077
  44 O     8.0000    0    15.999    3.593281    0.193690   -2.485537
  45 C     6.0000    0    12.011    4.122669   -5.737758   -5.948568
  46 C     6.0000    0    12.011    6.058610   -5.984422   -8.086920
  47 O     8.0000    0    15.999   -0.336989   -4.158524   -2.875329
  48 C     6.0000    0    12.011   -2.365145   -2.788648    1.855875
  49 C     6.0000    0    12.011   -3.525641   -3.159918    4.476209
  50 C     6.0000    0    12.011   -2.195726    0.016476    1.165254
  51 H     1.0000    0     1.008    7.169783   -3.634604    6.520303
  52 H     1.0000    0     1.008    5.115593   -2.709196   10.470661
  53 H     1.0000    0     1.008    2.519711   -1.254690    8.938254
  54 H     1.0000    0     1.008    4.787346    2.457506   10.489377
  55 H     1.0000    0     1.008    7.771109    1.073197    9.787031
  56 H     1.0000    0     1.008    3.791157    2.922294    5.994637
  57 H     1.0000    0     1.008    7.039650    3.712754    6.035105
  58 H     1.0000    0     1.008    2.757274   -1.113403    2.642270
  59 H     1.0000    0     1.008    0.090291   -6.021207    2.452528
  60 H     1.0000    0     1.008    4.780120   -4.371114    0.198917
  61 H     1.0000    0     1.008    6.960389   -4.318998   -3.372888
  62 H     1.0000    0     1.008    6.355827   -1.392153   -7.523407
  63 H     1.0000    0     1.008    7.190066    2.810136   -8.253848
  64 H     1.0000    0     1.008    6.215595    3.589201   -5.146437
  65 H     1.0000    0     1.008    2.371459    2.035389   -9.144087
  66 H     1.0000    0     1.008    0.773881    2.552341   -4.959139
  67 H     1.0000    0     1.008    1.171257    3.721771   -1.271255
  68 H     1.0000    0     1.008    3.115920    8.849908   -0.061952
  69 H     1.0000    0     1.008    4.975913    2.660364   -0.631936
  70 H     1.0000    0     1.008    9.238176    3.474884    2.917378
  71 H     1.0000    0     1.008   10.691176    3.621271   -1.514688
  72 H     1.0000    0     1.008   11.855827    0.814714   -0.037588
  73 H     1.0000    0     1.008    9.267908    0.622423   -2.152016
  74 H     1.0000    0     1.008    0.632296    4.765574    3.259959
  75 H     1.0000    0     1.008   -0.926893    7.412366    1.961177
  76 H     1.0000    0     1.008    3.322050    7.658803    5.881985
  77 H     1.0000    0     1.008   -0.677727    5.737911    7.570292
  78 H     1.0000    0     1.008   -0.139761    8.777715    8.901342
  79 H     1.0000    0     1.008   -2.422906    8.388387    6.470592
  80 H     1.0000    0     1.008    3.302823   11.532195    3.324862
  81 H     1.0000    0     1.008   -0.034369   11.852351    3.699276
  82 H     1.0000    0     1.008    2.012072   12.197472    6.341461
  83 H     1.0000    0     1.008   -5.133588    5.831901   -6.602704
  84 H     1.0000    0     1.008   -3.370665    5.170086   -3.801582
  85 H     1.0000    0     1.008   -2.567982    0.705276   -5.449723
  86 H     1.0000    0     1.008   -4.640172    1.338494   -7.978454
  87 H     1.0000    0     1.008   -8.210409    1.908451   -4.963323
  88 H     1.0000    0     1.008   -6.100019    1.853196   -2.388929
  89 H     1.0000    0     1.008   -4.806318   -2.634962   -3.724684
  90 H     1.0000    0     1.008   -7.360323   -2.616291   -5.863319
  91 H     1.0000    0     1.008  -10.382271   -1.919402   -2.241271
  92 H     1.0000    0     1.008   -7.807192   -1.743895   -0.138847
  93 H     1.0000    0     1.008   -6.567429   -6.219007   -1.403054
  94 H     1.0000    0     1.008   -9.339194   -6.409295   -3.232275
  95 H     1.0000    0     1.008  -11.964097   -5.630116    0.674243
  96 H     1.0000    0     1.008   -9.178620   -5.394382    2.487071
  97 H     1.0000    0     1.008   -8.051372   -9.868172    1.338151
  98 H     1.0000    0     1.008  -10.848172  -10.114502   -0.450355
  99 H     1.0000    0     1.008  -11.446456  -12.041417    3.850421
 100 H     1.0000    0     1.008  -10.631622   -9.124908    5.298798
 101 H     1.0000    0     1.008  -13.451595   -9.371747    3.499798
 102 H     1.0000    0     1.008    2.401452    6.575361   -9.900657
 103 H     1.0000    0     1.008    2.277830   -5.119297   -6.664126
 104 H     1.0000    0     1.008    3.816018   -7.616279   -5.116582
 105 H     1.0000    0     1.008    5.556335   -7.576186   -9.321281
 106 H     1.0000    0     1.008    6.138502   -4.320897   -9.337149
 107 H     1.0000    0     1.008    7.974312   -6.338330   -7.358066
 108 H     1.0000    0     1.008   -3.557770   -3.728907    0.438132
 109 H     1.0000    0     1.008   -3.747946   -5.174377    4.929100
 110 H     1.0000    0     1.008   -2.327585   -2.309080    5.948411
 111 H     1.0000    0     1.008   -5.396262   -2.262162    4.582738
 112 H     1.0000    0     1.008   -1.376680    0.263787   -0.727712
 113 H     1.0000    0     1.008   -4.077412    0.890695    1.178332
 114 H     1.0000    0     1.008   -1.036860    1.056117    2.546216

--------------------------------
INTERNAL COORDINATES (ANGSTROEM)
--------------------------------
 O      0   0   0     0.000000000000     0.00000000     0.00000000
 C      1   0   0     1.228143780623     0.00000000     0.00000000
 C      2   1   0     1.531569293139   120.58081001     0.00000000
 C      3   2   1     1.548238931191   110.73018829   284.39847941
 C      4   3   2     1.534608967653   104.24906865   214.84432080
 C      5   4   3     1.528094207883   102.80030176    36.08455454
 N      6   5   4     1.472060978876   102.63993140   322.83056284
 C      7   6   5     1.363666902577   127.68386245   214.70816296
 O      8   7   6     1.240257010256   121.17072584   176.55560176
 N      2   1   3     1.363483166364   124.29161088   182.83567508
 C     10   2   1     1.452577352213   123.44113512   352.55609609
 C     11  10   2     1.545208989215   110.60401935   247.71947251
 N     12  11  10     1.367547150017   114.71947090    35.38816008
 C     13  12  11     1.452440394309   120.07096867   202.09060547
 C     14  13  12     1.549343188055   107.80080062    61.43970605
 N     15  14  13     1.347014070926   116.90787589   181.20108247
 C     16  15  14     1.461573892880   124.66346831   185.87500045
 C     17  16  15     1.540469980812   114.30941075   276.85433890
 C     18  17  16     1.551195738340   112.58909497    83.70054073
 C     19  18  17     1.545719444497   113.19693066    56.91055487
 N     20  19  18     1.372112612340   113.25740216   230.85451714
 C     21  20  19     1.454611078877   122.85634254   173.83004206
 C     22  21  20     1.543319955907   113.44840021   267.14636894
 N     23  22  21     1.360696355663   114.97963759   341.27771678
 C     24  23  22     1.456756675380   123.58178531   184.67038889
 C     25  24  23     1.524857654577   112.01904843   245.73439467
 O     23  22  21     1.233277255038   121.19643880   165.24305861
 C     22  21  20     1.542380586907   108.71035399   143.94678154
 C     28  22  21     1.534795871971   117.22490480   184.33474892
 C     29  28  22     1.533038499268   109.22439465   184.33805319
 C     29  28  22     1.531562931040   111.84589451    60.66360032
 O     20  19  18     1.223937607264   123.37989159    51.89886653
 C     19  18  17     1.527535920383   111.90933039   180.23869616
 C     33  19  18     1.510700273116   115.95018550   145.42303577
 C     34  33  19     1.542092147436   112.12797534   291.54969036
 C     35  34  33     1.530639025819   112.85435937   170.53694360
 C     36  35  34     1.531167583522   112.46600125   191.83568822
 C     37  36  35     1.529870229822   113.36393311   166.63550299
 C     38  37  36     1.530104344293   113.14748528   185.12804007
 C     39  38  37     1.529399622314   113.49102105   172.53053092
 C     40  39  38     1.530655276197   113.57406741   181.45175935
 C     41  40  39     1.529720832348   113.12218845   179.10175583
 O     33  19  18     1.226429982947   121.43574932   325.67429892
 O     18  17  16     1.410288705187   106.40611679   209.21127568
 O     15  14  13     1.242648131847   120.80570710     4.77163668
 C     14  13  12     1.546213231413   113.05198530   291.78285443
 C     46  14  13     1.531989311105   115.47657665   205.71272435
 O     12  11  10     1.232079924054   121.86303912   214.18022113
 C     11  10   2     1.540569430470   112.10704083   122.71371010
 C     49  11  10     1.529197843248   110.76305821   290.86938815
 C     49  11  10     1.531360639704   111.49909376    55.49726001
 H      3   2   1     1.099635631862   105.88965120    46.10683611
 H      4   3   2     1.095186873327   111.36196313    91.43140905
 H      4   3   2     1.100349231370   109.51204566   332.60672924
 H      5   4   3     1.097231764504   113.00243198   157.48145990
 H      5   4   3     1.100315163478   110.68547133   278.98301450
 H      6   5   4     1.103865280206   110.77287439    80.10533777
 H      6   5   4     1.095332117040   114.49367302   201.36840258
 H     10   2   1     1.017188206028   117.40334942   186.70629022
 H     11  10   2     1.103145381532   105.38257156     3.90355946
 H     13  12  11     1.022941297401   116.54730561   345.35701525
 H     14  13  12     1.103161297294   105.48164741   173.67582394
 H     16  15  14     1.014950170468   117.51291654     5.12756045
 H     17  16  15     1.097033701067   107.66146354   158.35504634
 H     17  16  15     1.098413010492   109.31259879    41.71726658
 H     18  17  16     1.112336478270   107.23743020   327.81495704
 H     19  18  17     1.098180251306   106.99743424   298.49287086
 H     21  20  19     1.017174603225   117.62872885     7.18037407
 H     22  21  20     1.097900796273   106.78437920    24.20814189
 H     24  23  22     1.027359477304   120.33725675    10.02756930
 H     25  24  23     1.100584329805   105.89423021     5.15443380
 H     26  25  24     1.097485895142   109.31884760    59.40168865
 H     26  25  24     1.097522444987   110.67247734   179.56790885
 H     26  25  24     1.097264530785   110.93348057   298.96087125
 H     28  22  21     1.105024765373   107.97697075    60.73531670
 H     28  22  21     1.103280410560   106.84104950   306.96910997
 H     29  28  22     1.101025236498   108.23872511   302.36451776
 H     30  29  28     1.101152360760   111.49157648    57.46970335
 H     30  29  28     1.099364488910   111.02200700   177.79662941
 H     30  29  28     1.101745223896   111.05421093   297.52555079
 H     31  29  28     1.097831905204   111.38849351   296.01145290
 H     31  29  28     1.102005944621   110.96945664    56.98629068
 H     31  29  28     1.099436947231   110.65792267   176.52365484
 H     34  33  19     1.098324485655   108.62844648   168.23748116
 H     34  33  19     1.104586234501   107.92879127    50.96843044
 H     35  34  33     1.102371293907   109.77180396    50.15612120
 H     35  34  33     1.101743694688   109.44242810   294.01154354
 H     36  35  34     1.102937718836   110.33803947    67.64094814
 H     36  35  34     1.103396499194   108.34328948   312.03555379
 H     37  36  35     1.103247722466   108.71481131    45.63576659
 H     37  36  35     1.103632070377   109.94018770   289.97777330
 H     38  37  36     1.103994714916   110.35320811    61.66459516
 H     38  37  36     1.105146468316   108.69949383   306.09747185
 H     39  38  37     1.104445859274   108.93699871    50.64681900
 H     39  38  37     1.103962618498   109.56265205   295.45981555
 H     40  39  38     1.104526040800   109.56972200    58.82753354
 H     40  39  38     1.104776383236   109.04398609   303.35754093
 H     41  40  39     1.103392775559   109.02455182    56.83741891
 H     41  40  39     1.103321727175   109.18236301   301.53584150
 H     42  41  40     1.099398982484   111.66359329   180.09615544
 H     42  41  40     1.100765290057   111.05431485   300.29514030
 H     42  41  40     1.100762726070   111.10411615    59.83730891
 H     44  18  17     0.984940789124   105.60305108   196.49857189
 H     46  14  13     1.097063135160   109.47841655    78.98415137
 H     46  14  13     1.099247349172   105.26997088   325.35928444
 H     47  46  14     1.098554860030   110.04272673   165.53119719
 H     47  46  14     1.102006462193   113.64255477   283.39806728
 H     47  46  14     1.100687764360   111.81207165    46.13782074
 H     49  11  10     1.099420122694   105.68577484   172.63063455
 H     50  49  11     1.098928587464   111.43030726   301.45676775
 H     50  49  11     1.100719372520   110.97268972    61.47742201
 H     50  49  11     1.099433357088   110.64357384   181.08686866
 H     51  49  11     1.099278040637   110.85198812    56.26254491
 H     51  49  11     1.097984913921   110.72093408   176.41877164
 H     51  49  11     1.101258283551   111.00738268   294.95971819

---------------------------
INTERNAL COORDINATES (A.U.)
---------------------------
 O      0   0   0     0.000000000000     0.00000000     0.00000000
 C      1   0   0     2.320855398457     0.00000000     0.00000000
 C      2   1   0     2.894246519155   120.58081001     0.00000000
 C      3   2   1     2.925747569825   110.73018829   284.39847941
 C      4   3   2     2.899990671524   104.24906865   214.84432080
 C      5   4   3     2.887679559730   102.80030176    36.08455454
 N      6   5   4     2.781792102507   102.63993140   322.83056284
 C      7   6   5     2.576956983763   127.68386245   214.70816296
 O      8   7   6     2.343746085060   121.17072584   176.55560176
 N      2   1   3     2.576609772641   124.29161088   182.83567508
 C     10   2   1     2.744973384019   123.44113512   352.55609609
 C     11  10   2     2.920021809289   110.60401935   247.71947251
 N     12  11  10     2.584289588756   114.71947090    35.38816008
 C     13  12  11     2.744714571089   120.07096867   202.09060547
 C     14  13  12     2.927834312880   107.80080062    61.43970605
 N     15  14  13     2.545487692588   116.90787589   181.20108247
 C     16  15  14     2.761974382033   124.66346831   185.87500045
 C     17  16  15     2.911066381261   114.30941075   276.85433890
 C     18  17  16     2.931335125568   112.58909497    83.70054073
 C     19  18  17     2.920986429977   113.19693066    56.91055487
 N     20  19  18     2.592917062222   113.25740216   230.85451714
 C     21  20  19     2.748816570446   122.85634254   173.83004206
 C     22  21  20     2.916452053679   113.44840021   267.14636894
 N     23  22  21     2.571343463628   114.97963759   341.27771678
 C     24  23  22     2.752871160229   123.58178531   184.67038889
 C     25  24  23     2.881563360364   112.01904843   245.73439467
 O     23  22  21     2.330556259216   121.19643880   165.24305861
 C     22  21  20     2.914676903532   108.71035399   143.94678154
 C     28  22  21     2.900343869498   117.22490480   184.33474892
 C     29  28  22     2.897022916374   109.22439465   184.33805319
 C     29  28  22     2.894234496531   111.84589451    60.66360032
 O     20  19  18     2.312906882736   123.37989159    51.89886653
 C     19  18  17     2.886624549251   111.90933039   180.23869616
 C     33  19  18     2.854809786629   115.95018550   145.42303577
 C     34  33  19     2.914131831925   112.12797534   291.54969036
 C     35  34  33     2.892488568690   112.85435937   170.53694360
 C     36  35  34     2.893487397995   112.46600125   191.83568822
 C     37  36  35     2.891035754803   113.36393311   166.63550299
 C     38  37  36     2.891478167036   113.14748528   185.12804007
 C     39  38  37     2.890146435496   113.49102105   172.53053092
 C     40  39  38     2.892519277453   113.57406741   181.45175935
 C     41  40  39     2.890753434491   113.12218845   179.10175583
 O     33  19  18     2.317616790199   121.43574932   325.67429892
 O     18  17  16     2.665059422565   106.40611679   209.21127568
 O     15  14  13     2.348264650020   120.80570710     4.77163668
 C     14  13  12     2.921919552017   113.05198530   291.78285443
 C     46  14  13     2.895040238083   115.47657665   205.71272435
 O     12  11  10     2.328293631564   121.86303912   214.18022113
 C     11  10   2     2.911254313880   112.10704083   122.71371010
 C     49  11  10     2.889765128323   110.76305821   290.86938815
 C     49  11  10     2.893852221308   111.49909376    55.49726001
 H      3   2   1     2.078010191320   105.88965120    46.10683611
 H      4   3   2     2.069603256054   111.36196313    91.43140905
 H      4   3   2     2.079358698959   109.51204566   332.60672924
 H      5   4   3     2.073467540352   113.00243198   157.48145990
 H      5   4   3     2.079294319974   110.68547133   278.98301450
 H      6   5   4     2.086003068334   110.77287439    80.10533777
[...]
freq.      85.01  E(vib)   ...       0.48 
freq.      91.22  E(vib)   ...       0.47 
freq.      93.40  E(vib)   ...       0.47 
freq.     100.94  E(vib)   ...       0.46 
freq.     110.41  E(vib)   ...       0.45 
freq.     112.22  E(vib)   ...       0.45 
freq.     119.27  E(vib)   ...       0.44 
freq.     123.72  E(vib)   ...       0.43 
freq.     125.09  E(vib)   ...       0.43 
freq.     131.89  E(vib)   ...       0.42 
freq.     134.40  E(vib)   ...       0.42 
freq.     141.67  E(vib)   ...       0.41 
freq.     143.52  E(vib)   ...       0.41 
freq.     149.35  E(vib)   ...       0.40 
freq.     155.02  E(vib)   ...       0.40 
freq.     160.85  E(vib)   ...       0.39 
freq.     161.33  E(vib)   ...       0.39 
freq.     169.05  E(vib)   ...       0.38 
freq.     174.45  E(vib)   ...       0.38 
freq.     186.56  E(vib)   ...       0.37 
freq.     192.31  E(vib)   ...       0.36 
freq.     196.20  E(vib)   ...       0.36 
freq.     204.63  E(vib)   ...       0.35 
freq.     215.79  E(vib)   ...       0.34 
freq.     220.27  E(vib)   ...       0.33 
freq.     222.90  E(vib)   ...       0.33 
freq.     224.25  E(vib)   ...       0.33 
freq.     231.54  E(vib)   ...       0.32 
freq.     233.99  E(vib)   ...       0.32 
freq.     237.25  E(vib)   ...       0.32 
freq.     238.83  E(vib)   ...       0.32 
freq.     243.49  E(vib)   ...       0.31 
freq.     246.71  E(vib)   ...       0.31 
freq.     249.47  E(vib)   ...       0.31 
freq.     261.05  E(vib)   ...       0.30 
freq.     268.82  E(vib)   ...       0.29 
freq.     273.17  E(vib)   ...       0.29 
freq.     275.39  E(vib)   ...       0.28 
freq.     279.65  E(vib)   ...       0.28 
freq.     292.78  E(vib)   ...       0.27 
freq.     300.24  E(vib)   ...       0.26 
freq.     301.11  E(vib)   ...       0.26 
freq.     315.96  E(vib)   ...       0.25 
freq.     322.62  E(vib)   ...       0.25 
freq.     325.22  E(vib)   ...       0.24 
freq.     336.26  E(vib)   ...       0.24 
freq.     344.13  E(vib)   ...       0.23 
freq.     349.44  E(vib)   ...       0.23 
freq.     355.29  E(vib)   ...       0.22 
freq.     374.33  E(vib)   ...       0.21 
freq.     380.38  E(vib)   ...       0.21 
freq.     389.53  E(vib)   ...       0.20 
freq.     397.89  E(vib)   ...       0.20 
freq.     411.77  E(vib)   ...       0.19 
freq.     416.08  E(vib)   ...       0.18 
freq.     417.69  E(vib)   ...       0.18 
freq.     437.95  E(vib)   ...       0.17 
freq.     447.43  E(vib)   ...       0.17 
freq.     452.78  E(vib)   ...       0.16 
freq.     461.82  E(vib)   ...       0.16 
freq.     463.71  E(vib)   ...       0.16 
freq.     475.02  E(vib)   ...       0.15 
freq.     498.17  E(vib)   ...       0.14 
freq.     517.02  E(vib)   ...       0.13 
freq.     521.44  E(vib)   ...       0.13 
freq.     525.34  E(vib)   ...       0.13 
freq.     544.64  E(vib)   ...       0.12 
freq.     550.41  E(vib)   ...       0.12 
freq.     553.70  E(vib)   ...       0.12 
freq.     578.83  E(vib)   ...       0.11 
freq.     582.44  E(vib)   ...       0.11 
freq.     583.84  E(vib)   ...       0.11 
freq.     596.36  E(vib)   ...       0.10 
freq.     603.71  E(vib)   ...       0.10 
freq.     609.95  E(vib)   ...       0.10 
freq.     623.73  E(vib)   ...       0.09 
freq.     642.86  E(vib)   ...       0.09 
freq.     664.02  E(vib)   ...       0.08 
freq.     675.30  E(vib)   ...       0.08 
freq.     696.69  E(vib)   ...       0.07 
freq.     707.14  E(vib)   ...       0.07 
freq.     710.53  E(vib)   ...       0.07 
freq.     711.99  E(vib)   ...       0.07 
freq.     718.98  E(vib)   ...       0.07 
freq.     721.24  E(vib)   ...       0.07 
freq.     732.15  E(vib)   ...       0.06 
freq.     735.55  E(vib)   ...       0.06 
freq.     737.91  E(vib)   ...       0.06 
freq.     750.86  E(vib)   ...       0.06 
freq.     765.58  E(vib)   ...       0.06 
freq.     767.47  E(vib)   ...       0.06 
freq.     778.20  E(vib)   ...       0.05 
freq.     795.51  E(vib)   ...       0.05 
freq.     801.25  E(vib)   ...       0.05 
freq.     811.34  E(vib)   ...       0.05 
freq.     823.27  E(vib)   ...       0.05 
freq.     830.62  E(vib)   ...       0.04 
freq.     835.84  E(vib)   ...       0.04 
freq.     847.50  E(vib)   ...       0.04 
freq.     855.32  E(vib)   ...       0.04 
freq.     859.26  E(vib)   ...       0.04 
freq.     874.31  E(vib)   ...       0.04 
freq.     876.28  E(vib)   ...       0.04 
freq.     877.73  E(vib)   ...       0.04 
freq.     885.45  E(vib)   ...       0.04 
freq.     888.34  E(vib)   ...       0.04 
freq.     895.13  E(vib)   ...       0.03 
freq.     898.71  E(vib)   ...       0.03 
freq.     902.53  E(vib)   ...       0.03 
freq.     906.54  E(vib)   ...       0.03 
freq.     919.25  E(vib)   ...       0.03 
freq.     921.29  E(vib)   ...       0.03 
freq.     929.50  E(vib)   ...       0.03 
freq.     940.37  E(vib)   ...       0.03 
freq.     941.61  E(vib)   ...       0.03 
freq.     944.76  E(vib)   ...       0.03 
freq.     947.05  E(vib)   ...       0.03 
freq.     956.03  E(vib)   ...       0.03 
freq.     961.88  E(vib)   ...       0.03 
freq.     966.20  E(vib)   ...       0.03 
freq.     975.43  E(vib)   ...       0.03 
freq.     977.45  E(vib)   ...       0.03 
freq.     983.35  E(vib)   ...       0.02 
freq.     994.44  E(vib)   ...       0.02 
freq.    1000.61  E(vib)   ...       0.02 
freq.    1009.37  E(vib)   ...       0.02 
freq.    1012.66  E(vib)   ...       0.02 
freq.    1019.41  E(vib)   ...       0.02 
freq.    1029.17  E(vib)   ...       0.02 
freq.    1030.10  E(vib)   ...       0.02 
freq.    1031.70  E(vib)   ...       0.02 
freq.    1034.38  E(vib)   ...       0.02 
freq.    1036.65  E(vib)   ...       0.02 
freq.    1043.90  E(vib)   ...       0.02 
freq.    1044.18  E(vib)   ...       0.02 
freq.    1050.55  E(vib)   ...       0.02 
freq.    1052.44  E(vib)   ...       0.02 
freq.    1058.95  E(vib)   ...       0.02 
freq.    1060.59  E(vib)   ...       0.02 
freq.    1061.86  E(vib)   ...       0.02 
freq.    1078.07  E(vib)   ...       0.02 
freq.    1092.88  E(vib)   ...       0.02 
freq.    1097.07  E(vib)   ...       0.02 
freq.    1101.27  E(vib)   ...       0.02 
freq.    1102.82  E(vib)   ...       0.02 
freq.    1107.91  E(vib)   ...       0.02 
freq.    1111.97  E(vib)   ...       0.01 
freq.    1122.04  E(vib)   ...       0.01 
freq.    1125.06  E(vib)   ...       0.01 
freq.    1130.06  E(vib)   ...       0.01 
freq.    1135.32  E(vib)   ...       0.01 
freq.    1141.84  E(vib)   ...       0.01 
freq.    1143.42  E(vib)   ...       0.01 
freq.    1159.98  E(vib)   ...       0.01 
freq.    1166.85  E(vib)   ...       0.01 
freq.    1168.97  E(vib)   ...       0.01 
freq.    1172.18  E(vib)   ...       0.01 
freq.    1179.68  E(vib)   ...       0.01 
freq.    1180.47  E(vib)   ...       0.01 
freq.    1190.72  E(vib)   ...       0.01 
freq.    1199.23  E(vib)   ...       0.01 
freq.    1201.62  E(vib)   ...       0.01 
freq.    1203.08  E(vib)   ...       0.01 
freq.    1213.95  E(vib)   ...       0.01 
freq.    1218.93  E(vib)   ...       0.01 
freq.    1224.55  E(vib)   ...       0.01 
freq.    1225.96  E(vib)   ...       0.01 
freq.    1227.91  E(vib)   ...       0.01 
freq.    1230.96  E(vib)   ...       0.01 
freq.    1235.51  E(vib)   ...       0.01 
freq.    1244.62  E(vib)   ...       0.01 
freq.    1246.35  E(vib)   ...       0.01 
freq.    1250.64  E(vib)   ...       0.01 
freq.    1253.75  E(vib)   ...       0.01 
freq.    1255.41  E(vib)   ...       0.01 
freq.    1264.01  E(vib)   ...       0.01 
freq.    1267.94  E(vib)   ...       0.01 
freq.    1268.49  E(vib)   ...       0.01 
freq.    1273.69  E(vib)   ...       0.01 
freq.    1279.84  E(vib)   ...       0.01 
freq.    1283.54  E(vib)   ...       0.01 
freq.    1284.28  E(vib)   ...       0.01 
freq.    1284.99  E(vib)   ...       0.01 
freq.    1285.11  E(vib)   ...       0.01 
freq.    1288.28  E(vib)   ...       0.01 
freq.    1290.49  E(vib)   ...       0.01 
freq.    1293.17  E(vib)   ...       0.01 
freq.    1297.94  E(vib)   ...       0.01 
freq.    1298.51  E(vib)   ...       0.01 
freq.    1299.16  E(vib)   ...       0.01 
freq.    1299.39  E(vib)   ...       0.01 
freq.    1300.27  E(vib)   ...       0.01 
freq.    1301.19  E(vib)   ...       0.01 
freq.    1306.85  E(vib)   ...       0.01 
freq.    1311.77  E(vib)   ...       0.01 
freq.    1326.96  E(vib)   ...       0.01 
freq.    1327.43  E(vib)   ...       0.01 
freq.    1328.06  E(vib)   ...       0.01 
freq.    1328.88  E(vib)   ...       0.01 
freq.    1331.88  E(vib)   ...       0.01 
freq.    1339.47  E(vib)   ...       0.01 
freq.    1341.42  E(vib)   ...       0.01 
freq.    1342.82  E(vib)   ...       0.01 
freq.    1344.80  E(vib)   ...       0.01 
freq.    1349.58  E(vib)   ...       0.01 
freq.    1350.10  E(vib)   ...       0.01 
freq.    1354.95  E(vib)   ...       0.01 
freq.    1359.40  E(vib)   ...       0.01 
freq.    1360.12  E(vib)   ...       0.01 
freq.    1363.77  E(vib)   ...       0.01 
freq.    1367.61  E(vib)   ...       0.01 
freq.    1368.96  E(vib)   ...       0.01 
freq.    1370.78  E(vib)   ...       0.01 
freq.    1391.36  E(vib)   ...       0.00 
freq.    1410.39  E(vib)   ...       0.00 
freq.    1421.70  E(vib)   ...       0.00 
freq.    1426.83  E(vib)   ...       0.00 
freq.    1427.14  E(vib)   ...       0.00 
freq.    1428.60  E(vib)   ...       0.00 
freq.    1433.87  E(vib)   ...       0.00 
freq.    1435.98  E(vib)   ...       0.00 
freq.    1437.92  E(vib)   ...       0.00 
freq.    1437.96  E(vib)   ...       0.00 
freq.    1438.83  E(vib)   ...       0.00 
freq.    1440.57  E(vib)   ...       0.00 
freq.    1441.70  E(vib)   ...       0.00 
freq.    1442.57  E(vib)   ...       0.00 
freq.    1442.77  E(vib)   ...       0.00 
freq.    1444.95  E(vib)   ...       0.00 
freq.    1445.54  E(vib)   ...       0.00 
freq.    1448.69  E(vib)   ...       0.00 
freq.    1449.14  E(vib)   ...       0.00 
freq.    1450.22  E(vib)   ...       0.00 
freq.    1451.00  E(vib)   ...       0.00 
freq.    1454.13  E(vib)   ...       0.00 
freq.    1455.03  E(vib)   ...       0.00 
freq.    1455.87  E(vib)   ...       0.00 
freq.    1458.02  E(vib)   ...       0.00 
freq.    1462.18  E(vib)   ...       0.00 
freq.    1462.32  E(vib)   ...       0.00 
freq.    1465.57  E(vib)   ...       0.00 
freq.    1468.35  E(vib)   ...       0.00 
freq.    1471.10  E(vib)   ...       0.00 
freq.    1473.96  E(vib)   ...       0.00 
freq.    1476.90  E(vib)   ...       0.00 
freq.    1497.08  E(vib)   ...       0.00 
freq.    1509.96  E(vib)   ...       0.00 
freq.    1516.57  E(vib)   ...       0.00 
freq.    1629.11  E(vib)   ...       0.00 
freq.    1639.06  E(vib)   ...       0.00 
freq.    1667.03  E(vib)   ...       0.00 
freq.    1677.23  E(vib)   ...       0.00 
freq.    1678.83  E(vib)   ...       0.00 
freq.    1694.80  E(vib)   ...       0.00 
freq.    1711.91  E(vib)   ...       0.00 
freq.    2839.02  E(vib)   ...       0.00 
freq.    2923.25  E(vib)   ...       0.00 
freq.    2924.77  E(vib)   ...       0.00 
freq.    2927.68  E(vib)   ...       0.00 
freq.    2933.59  E(vib)   ...       0.00 
freq.    2937.81  E(vib)   ...       0.00 
freq.    2937.89  E(vib)   ...       0.00 
freq.    2942.24  E(vib)   ...       0.00 
freq.    2942.58  E(vib)   ...       0.00 
freq.    2944.50  E(vib)   ...       0.00 
freq.    2947.19  E(vib)   ...       0.00 
freq.    2948.88  E(vib)   ...       0.00 
freq.    2950.60  E(vib)   ...       0.00 
freq.    2951.31  E(vib)   ...       0.00 
freq.    2954.85  E(vib)   ...       0.00 
freq.    2955.68  E(vib)   ...       0.00 
freq.    2956.67  E(vib)   ...       0.00 
freq.    2958.18  E(vib)   ...       0.00 
freq.    2960.68  E(vib)   ...       0.00 
freq.    2962.76  E(vib)   ...       0.00 
freq.    2963.70  E(vib)   ...       0.00 
freq.    2964.52  E(vib)   ...       0.00 
freq.    2969.55  E(vib)   ...       0.00 
freq.    2971.16  E(vib)   ...       0.00 
freq.    2978.75  E(vib)   ...       0.00 
freq.    2981.74  E(vib)   ...       0.00 
freq.    2982.57  E(vib)   ...       0.00 
freq.    2984.66  E(vib)   ...       0.00 
freq.    2986.67  E(vib)   ...       0.00 
freq.    2988.12  E(vib)   ...       0.00 
freq.    2990.36  E(vib)   ...       0.00 
freq.    2992.75  E(vib)   ...       0.00 
freq.    2998.98  E(vib)   ...       0.00 
freq.    2999.74  E(vib)   ...       0.00 
freq.    3000.19  E(vib)   ...       0.00 
freq.    3001.21  E(vib)   ...       0.00 
freq.    3005.71  E(vib)   ...       0.00 
freq.    3011.62  E(vib)   ...       0.00 
freq.    3014.16  E(vib)   ...       0.00 
freq.    3019.90  E(vib)   ...       0.00 
freq.    3021.81  E(vib)   ...       0.00 
freq.    3022.05  E(vib)   ...       0.00 
freq.    3027.84  E(vib)   ...       0.00 
freq.    3028.60  E(vib)   ...       0.00 
freq.    3030.12  E(vib)   ...       0.00 
freq.    3030.87  E(vib)   ...       0.00 
freq.    3032.14  E(vib)   ...       0.00 
freq.    3034.78  E(vib)   ...       0.00 
freq.    3037.00  E(vib)   ...       0.00 
freq.    3042.12  E(vib)   ...       0.00 
freq.    3042.94  E(vib)   ...       0.00 
freq.    3045.71  E(vib)   ...       0.00 
freq.    3049.44  E(vib)   ...       0.00 
freq.    3053.69  E(vib)   ...       0.00 
freq.    3054.12  E(vib)   ...       0.00 
freq.    3060.09  E(vib)   ...       0.00 
freq.    3061.98  E(vib)   ...       0.00 
freq.    3063.92  E(vib)   ...       0.00 
freq.    3291.71  E(vib)   ...       0.00 
freq.    3398.17  E(vib)   ...       0.00 
freq.    3469.59  E(vib)   ...       0.00 
freq.    3486.25  E(vib)   ...       0.00 
freq.    3487.43  E(vib)   ...       0.00 
freq.    3510.63  E(vib)   ...       0.00 

------------
INNER ENERGY
------------

The inner energy is: U= E(el) + E(ZPE) + E(vib) + E(rot) + E(trans)
    E(el)   - is the total energy from the electronic structure calculation
              = E(kin-el) + E(nuc-el) + E(el-el) + E(nuc-nuc)
    E(ZPE)  - the the zero temperature vibrational energy from the frequency calculation
    E(vib)  - the the finite temperature correction to E(ZPE) due to population
              of excited vibrational states
    E(rot)  - is the rotational thermal energy
    E(trans)- is the translational thermal energy

Summary of contributions to the inner energy U:
Electronic energy                ...  -2380.08758242 Eh
Zero point energy                ...      0.97797977 Eh     613.69 kcal/mol
Thermal vibrational correction   ...      0.05549287 Eh      34.82 kcal/mol
Thermal rotational correction    ...      0.00141627 Eh       0.89 kcal/mol
Thermal translational correction ...      0.00141627 Eh       0.89 kcal/mol
-----------------------------------------------------------------------
Total thermal energy                  -2379.05127724 Eh


Summary of corrections to the electronic energy:
(perhaps to be used in another calculation)
Total thermal correction                  0.05832542 Eh      36.60 kcal/mol
Non-thermal (ZPE) correction              0.97797977 Eh     613.69 kcal/mol
-----------------------------------------------------------------------
Total correction                          1.03630518 Eh     650.29 kcal/mol


--------
ENTHALPY
--------

The enthalpy is H = U + kB*T
                kB is Boltzmann's constant
Total free energy                 ...  -2379.05127724 Eh 
Thermal Enthalpy correction       ...      0.00094421 Eh       0.59 kcal/mol
-----------------------------------------------------------------------
Total Enthalpy                    ...  -2379.05033303 Eh


Note: Only C1 symmetry has been detected, increase convergence thresholds 
      if your molecule has a higher symmetry. Symmetry factor of 1.0 is   
      used for the rotational entropy correction. 
 

Note: Rotational entropy computed according to Herzberg 
Infrared and Raman Spectra, Chapter V,1, Van Nostrand Reinhold, 1945 
Point Group:  C1, Symmetry Number:   1  
Rotational constants in cm-1:     0.001963     0.001623     0.001375 

Vibrational entropy computed according to the QRRHO of S. Grimme
Chem.Eur.J. 2012 18 9955


-------
ENTROPY
-------

The entropy contributions are T*S = T*(S(el)+S(vib)+S(rot)+S(trans))
     S(el)   - electronic entropy
     S(vib)  - vibrational entropy
     S(rot)  - rotational entropy
     S(trans)- translational entropy
The entropies will be listed as mutliplied by the temperature to get
units of energy

Electronic entropy                ...      0.00000000 Eh      0.00 kcal/mol
Vibrational entropy               ...      0.10202168 Eh     64.02 kcal/mol
Rotational entropy                ...      0.01859653 Eh     11.67 kcal/mol
Translational entropy             ...      0.02166895 Eh     13.60 kcal/mol
-----------------------------------------------------------------------
Final entropy term                ...      0.14228717 Eh     89.29 kcal/mol

In case the symmetry of your molecule has not been determined correctly
or in case you have a reason to use a different symmetry number we print 
out the resulting rotational entropy values for sn=1,12 :
 --------------------------------------------------------
|  sn= 1 | S(rot)=       0.01859653 Eh     11.67 kcal/mol|
|  sn= 2 | S(rot)=       0.01794208 Eh     11.26 kcal/mol|
|  sn= 3 | S(rot)=       0.01755925 Eh     11.02 kcal/mol|
|  sn= 4 | S(rot)=       0.01728762 Eh     10.85 kcal/mol|
|  sn= 5 | S(rot)=       0.01707693 Eh     10.72 kcal/mol|
|  sn= 6 | S(rot)=       0.01690479 Eh     10.61 kcal/mol|
|  sn= 7 | S(rot)=       0.01675924 Eh     10.52 kcal/mol|
|  sn= 8 | S(rot)=       0.01663317 Eh     10.44 kcal/mol|
|  sn= 9 | S(rot)=       0.01652196 Eh     10.37 kcal/mol|
|  sn=10 | S(rot)=       0.01642248 Eh     10.31 kcal/mol|
|  sn=11 | S(rot)=       0.01633249 Eh     10.25 kcal/mol|
|  sn=12 | S(rot)=       0.01625033 Eh     10.20 kcal/mol|
 --------------------------------------------------------


-------------------
GIBBS FREE ENERGY
-------------------

The Gibbs free energy is G = H - T*S

Total enthalpy                    ...  -2379.05033303 Eh 
Total entropy correction          ...     -0.14228717 Eh    -89.29 kcal/mol
-----------------------------------------------------------------------
Final Gibbs free energy         ...  -2379.19262020 Eh

For completeness - the Gibbs free energy minus the electronic energy
G-E(el)                           ...      0.89496222 Eh    561.60 kcal/mol

--------------------------------------------------------------------------
WARNING: No preset parameters were found for the device that Open MPI
detected:

  Local host:            eu-g1-015-3
  Device name:           mlx5_0
  Device vendor ID:      0x02c9
  Device vendor part ID: 4123

Default device parameters will be used, which may result in lower
performance.  You can edit any of the files specified by the
btl_openib_device_param_files MCA parameter to set values for your
device.

NOTE: You can turn off this warning by setting the MCA parameter
      btl_openib_warn_no_device_params_found to 0.
--------------------------------------------------------------------------
--------------------------------------------------------------------------
WARNING: There was an error initializing an OpenFabrics device.

  Local host:   eu-g1-015-3
  Local device: mlx5_0
--------------------------------------------------------------------------

Timings for individual modules:

Sum of individual times         ...    42040.046 sec (= 700.667 min)
GTO integral calculation        ...       39.968 sec (=   0.666 min)   0.1 %
SCF iterations                  ...     1140.713 sec (=  19.012 min)   2.7 %
SCF Gradient evaluation         ...      432.472 sec (=   7.208 min)   1.0 %
Geometry relaxation             ...       15.545 sec (=   0.259 min)   0.0 %
Analytical frequency calculation...    40411.348 sec (= 673.522 min)  96.1 %
                             ****ORCA TERMINATED NORMALLY****
TOTAL RUN TIME: 0 days 11 hours 41 minutes 5 seconds 840 msec
