
                                 *****************
                                 * O   R   C   A *
                                 *****************

           --- An Ab Initio, DFT and Semiempirical electronic structure package ---

                  #######################################################
                  #                        -***-                        #
                  #          Department of theory and spectroscopy      #
                  #               Directorship: Frank Neese             #
                  #        Max Planck Institute fuer Kohlenforschung    #
                  #                Kaiser Wilhelm Platz 1               #
                  #                 D-45470 Muelheim/Ruhr               #
                  #                      Germany                        #
                  #                                                     #
                  #                  All rights reserved                #
                  #                        -***-                        #
                  #######################################################


                         Program Version 4.2.0 -  RELEASE  -


 With contributions from (in alphabetic order):
   Daniel Aravena         : Magnetic Suceptibility
   Michael Atanasov       : Ab Initio Ligand Field Theory (pilot matlab implementation)
   Alexander A. Auer      : GIAO ZORA, VPT2
   Ute Becker             : Parallelization
   Giovanni Bistoni       : ED, misc. LED, open-shell LED, HFLED
   Martin Brehm           : Molecular dynamics
   Dmytro Bykov           : SCF Hessian
   Vijay G. Chilkuri      : MRCI spin determinant printing, contributions to CSF-ICE
   Dipayan Datta          : RHF DLPNO-CCSD density
   Achintya Kumar Dutta   : EOM-CC, STEOM-CC
   Dmitry Ganyushin       : Spin-Orbit,Spin-Spin,Magnetic field MRCI
   Miquel Garcia          : C-PCM Hessian, Gaussian charge scheme
   Yang Guo               : DLPNO-NEVPT2, CIM, IAO-localization
   Andreas Hansen         : Spin unrestricted coupled pair/coupled cluster methods
   Benjamin Helmich-Paris : CASSCF linear response (MC-RPA)
   Lee Huntington         : MR-EOM, pCC
   Robert Izsak           : Overlap fitted RIJCOSX, COSX-SCS-MP3, EOM
   Christian Kollmar      : KDIIS, OOCD, Brueckner-CCSD(T), CCSD density
   Simone Kossmann        : Meta GGA functionals, TD-DFT gradient, OOMP2, MP2 Hessian
   Martin Krupicka        : AUTO-CI
   Lucas Lang             : DCDCAS
   Dagmar Lenk            : GEPOL surface, SMD
   Dimitrios Liakos       : Extrapolation schemes; Compound Job, initial MDCI parallelization
   Dimitrios Manganas     : Further ROCIS development; embedding schemes
   Dimitrios Pantazis     : SARC Basis sets
   Taras Petrenko         : DFT Hessian,TD-DFT gradient, ASA, ECA, R-Raman, ABS, FL, XAS/XES, NRVS
   Peter Pinski           : DLPNO-MP2, DLPNO-MP2 Gradient
   Christoph Reimann      : Effective Core Potentials
   Marius Retegan         : Local ZFS, SOC
   Christoph Riplinger    : Optimizer, TS searches, QM/MM, DLPNO-CCSD(T), (RO)-DLPNO pert. Triples
   Tobias Risthaus        : Range-separated hybrids, TD-DFT gradient, RPA, STAB
   Michael Roemelt        : Original ROCIS implementation
   Masaaki Saitow         : Open-shell DLPNO-CCSD energy and density
   Barbara Sandhoefer     : DKH picture change effects
   Avijit Sen             : IP-ROCIS
   Kantharuban Sivalingam : CASSCF convergence, NEVPT2, FIC-MRCI
   Bernardo de Souza      : ESD, SOC TD-DFT
   Georgi Stoychev        : AutoAux, RI-MP2 NMR
   Willem Van den Heuvel  : Paramagnetic NMR
   Boris Wezisla          : Elementary symmetry handling
   Frank Wennmohs         : Technical directorship


 We gratefully acknowledge several colleagues who have allowed us to
 interface, adapt or use parts of their codes:
   Stefan Grimme, W. Hujo, H. Kruse,             : VdW corrections, initial TS optimization,
                  C. Bannwarth                     DFT functionals, gCP, sTDA/sTD-DF
   Ed Valeev, F. Pavosevic, A. Kumar             : LibInt (2-el integral package), F12 methods
   Garnet Chan, S. Sharma, J. Yang, R. Olivares  : DMRG
   Ulf Ekstrom                                   : XCFun DFT Library
   Mihaly Kallay                                 : mrcc  (arbitrary order and MRCC methods)
   Andreas Klamt, Michael Diedenhofen            : otool_cosmo (COSMO solvation model)
   Jiri Pittner, Ondrej Demel                    : Mk-CCSD
   Frank Weinhold                                : gennbo (NPA and NBO analysis)
   Christopher J. Cramer and Donald G. Truhlar   : smd solvation model
   Lars Goerigk                                  : TD-DFT with DH, B97 family of functionals
   V. Asgeirsson, H. Jonsson                     : NEB implementation
   FAccTs GmbH                                   : IRC, NEB, NEB-TS, Multilevel, MM, QM/MM, CI optimization
   S Lehtola, MJT Oliveira, MAL Marques          : LibXC Library


 Your calculation uses the libint2 library for the computation of 2-el integrals
 For citations please refer to: http://libint.valeyev.net

 Your ORCA version has been built with support for libXC version: 4.2.3
 For citations please refer to: https://tddft.org/programs/libxc/

 This ORCA versions uses:
   CBLAS   interface :  Fast vector & matrix operations
   LAPACKE interface :  Fast linear algebra routines
   SCALAPACK package :  Parallel linear algebra routines




***************************************
The coordinates will be read from file: 70.xyz
***************************************


Your calculation utilizes the atom-pairwise dispersion correction
with the Becke-Johnson damping scheme (D3BJ)
Cite in your paper:
S.Grimme, S.Ehrlich, L.Goerigk, J Comput Chem, (2011), 32, 1456–1465 
S.Grimme, J.Antony, S.Ehrlich and H.Krieg, J.Chem.Phys., 132, (2010), 154104 
   

----- Orbital basis set information -----
Your calculation utilizes the basis: def2-TZVP
   F. Weigend and R. Ahlrichs, Phys. Chem. Chem. Phys. 7, 3297 (2005).

----- AuxJ basis set information -----
Your calculation utilizes the auxiliary basis: def2/J
   F. Weigend, Phys. Chem. Chem. Phys. 8, 1057 (2006).

================================================================================
                                        WARNINGS
                       Please study these warnings very carefully!
================================================================================


WARNING: Geometry Optimization
  ===> : Switching off AutoStart
         For restart on a previous wavefunction, please use MOREAD

INFO   : the flag for use of LIBINT has been found!

================================================================================
                                       INPUT FILE
================================================================================
NAME = 70.inp
|  1> !RI BP86 def2-tzvp def2/J D3BJ VeryTightSCF VeryTightOpt Grid5 FinalGrid6 freq
|  2> %maxcore 4000
|  3> %pal nprocs 24
|  4> end
|  5> * xyzfile 0 1 70.xyz 
|  6> 
|  7>                          ****END OF INPUT****
================================================================================

                       *****************************
                       * Geometry Optimization Run *
                       *****************************

Geometry optimization settings:
Update method            Update   .... BFGS
Choice of coordinates    CoordSys .... Z-matrix Internals
Initial Hessian          InHess   .... Almoef's Model

Convergence Tolerances:
Energy Change            TolE     ....  2.0000e-07 Eh
Max. Gradient            TolMAXG  ....  3.0000e-05 Eh/bohr
RMS Gradient             TolRMSG  ....  8.0000e-06 Eh/bohr
Max. Displacement        TolMAXD  ....  2.0000e-04 bohr
RMS Displacement         TolRMSD  ....  1.0000e-04 bohr
Strict Convergence                ....  False
------------------------------------------------------------------------------
                        ORCA OPTIMIZATION COORDINATE SETUP
------------------------------------------------------------------------------

The optimization will be done in new redundant internal coordinates
Making redundant internal coordinates   ...  (new redundants) done
Evaluating the initial hessian          ...  (Almloef) done
Evaluating the coordinates              ...  done
Calculating the B-matrix                .... done
Calculating the G-matrix                .... done
Diagonalizing the G-matrix              .... done
Small eigenvalue found = 5.049e-04
Small eigenvalue found = 7.018e-04
Small eigenvalue found = 1.760e-03
Small eigenvalue found = 2.570e-03
Small eigenvalue found = 2.682e-03
Small eigenvalue found = 4.443e-03
Small eigenvalue found = 4.825e-03
Small eigenvalue found = 5.533e-03
Small eigenvalue found = 6.234e-03
Small eigenvalue found = 8.163e-03
Small eigenvalue found = 1.012e-02
Small eigenvalue found = 1.174e-02
Small eigenvalue found = 1.192e-02
Small eigenvalue found = 1.532e-02
Small eigenvalue found = 1.802e-02
Small eigenvalue found = 1.849e-02
Small eigenvalue found = 2.022e-02
Small eigenvalue found = 2.379e-02
Small eigenvalue found = 2.568e-02
Small eigenvalue found = 2.954e-02
The first mode is                       ....  325
The number of degrees of freedom        ....  339

    -----------------------------------------------------------------
                    Redundant Internal Coordinates


    -----------------------------------------------------------------
         Definition                    Initial Value    Approx d2E/dq
    -----------------------------------------------------------------
      1. B(C   1,O   0)                  1.2289         1.011406   
      2. B(C   2,C   1)                  1.5370         0.364114   
      3. B(C   3,C   2)                  1.5425         0.356794   
      4. B(C   4,C   3)                  1.5362         0.365222   
      5. B(C   5,C   4)                  1.5326         0.370045   
      6. B(N   6,C   5)                  1.4763         0.407571   
      7. B(N   6,C   2)                  1.4711         0.415349   
      8. B(C   7,N   6)                  1.3604         0.623893   
      9. B(O   8,C   7)                  1.2388         0.975351   
     10. B(N   9,C   1)                  1.3705         0.601233   
     11. B(C  10,N   9)                  1.4650         0.424894   
     12. B(C  11,C  10)                  1.5312         0.371904   
     13. B(N  12,C  11)                  1.3596         0.625808   
     14. B(C  13,N  12)                  1.4738         0.411286   
     15. B(C  14,C  13)                  1.5343         0.367670   
     16. B(N  15,C  14)                  1.3624         0.619420   
     17. B(C  16,N  15)                  1.4592         0.433960   
     18. B(C  17,C  16)                  1.5520         0.344554   
     19. B(C  18,C  17)                  1.5499         0.347244   
     20. B(C  19,C  18)                  1.5290         0.374998   
     21. B(N  20,C  19)                  1.3573         0.631101   
     22. B(C  21,N  20)                  1.4617         0.429959   
     23. B(C  22,C  21)                  1.5342         0.367811   
     24. B(N  23,C  22)                  1.3582         0.628858   
     25. B(C  24,C   7)                  1.5377         0.363104   
     26. B(C  24,N  23)                  1.4605         0.431938   
     27. B(C  25,C  24)                  1.5282         0.376084   
     28. B(O  26,C  22)                  1.2387         0.975682   
     29. B(C  27,C  21)                  1.5450         0.353550   
     30. B(C  28,C  27)                  1.5358         0.365644   
     31. B(C  29,C  28)                  1.5309         0.372384   
     32. B(C  30,C  28)                  1.5332         0.369264   
     33. B(O  31,C  19)                  1.2366         0.983109   
     34. B(C  32,C  18)                  1.5302         0.373323   
     35. B(C  33,C  32)                  1.5146         0.395339   
     36. B(C  34,C  33)                  1.5292         0.374653   
     37. B(C  35,C  34)                  1.5352         0.366456   
     38. B(C  36,C  35)                  1.5368         0.364302   
     39. B(C  37,C  36)                  1.5361         0.365287   
     40. B(C  38,C  37)                  1.5385         0.362103   
     41. B(C  39,C  38)                  1.5324         0.370261   
     42. B(C  40,C  39)                  1.5309         0.372406   
     43. B(C  41,C  40)                  1.5299         0.373771   
     44. B(O  42,C  32)                  1.2249         1.026334   
     45. B(O  43,C  17)                  1.4269         0.488596   
     46. B(O  44,C  14)                  1.2361         0.985041   
     47. B(C  45,C  13)                  1.5338         0.368394   
     48. B(C  46,C  45)                  1.5280         0.376264   
     49. B(O  47,C  11)                  1.2367         0.982871   
     50. B(C  48,C  10)                  1.5329         0.369673   
     51. B(C  49,C  48)                  1.5322         0.370588   
     52. B(C  50,C  48)                  1.5304         0.373062   
     53. B(H  51,C   2)                  1.0977         0.350098   
     54. B(H  52,C   3)                  1.0998         0.347409   
     55. B(H  53,C   3)                  1.0967         0.351312   
     56. B(H  54,C   4)                  1.0998         0.347351   
     57. B(H  55,C   4)                  1.0972         0.350693   
     58. B(H  56,C   5)                  1.0964         0.351679   
     59. B(H  57,C   5)                  1.1033         0.342959   
     60. B(H  58,N   9)                  1.0227         0.413019   
     61. B(H  59,C  10)                  1.1004         0.346548   
     62. B(H  60,N  12)                  1.0194         0.417955   
     63. B(H  61,C  13)                  1.1001         0.346930   
     64. B(H  62,N  15)                  1.0187         0.419077   
     65. B(H  63,C  16)                  1.0979         0.349838   
     66. B(H  64,C  16)                  1.0961         0.352170   
     67. B(H  65,C  17)                  1.0971         0.350777   
     68. B(H  66,C  18)                  1.1044         0.341584   
     69. B(H  67,O  47)                  2.1659         0.006195   
     70. B(H  67,N  20)                  1.0195         0.417833   
     71. B(H  68,C  21)                  1.0984         0.349191   
     72. B(H  69,O  44)                  2.1584         0.006367   
     73. B(H  69,N  23)                  1.0257         0.408412   
     74. B(H  70,C  24)                  1.0982         0.349411   
     75. B(H  71,C  25)                  1.0978         0.349912   
     76. B(H  72,C  25)                  1.0982         0.349458   
     77. B(H  73,C  25)                  1.0981         0.349603   
     78. B(H  74,C  27)                  1.1049         0.340966   
     79. B(H  75,C  27)                  1.1008         0.346146   
     80. B(H  76,C  28)                  1.1026         0.343809   
     81. B(H  77,C  29)                  1.0971         0.350798   
     82. B(H  78,C  29)                  1.0996         0.347591   
     83. B(H  79,C  29)                  1.1024         0.344071   
     84. B(H  80,C  30)                  1.1002         0.346893   
     85. B(H  81,C  30)                  1.1020         0.344580   
     86. B(H  82,C  30)                  1.0999         0.347261   
     87. B(H  83,C  33)                  1.0999         0.347221   
     88. B(H  84,C  33)                  1.1072         0.338007   
     89. B(H  85,C  34)                  1.1003         0.346685   
     90. B(H  86,C  34)                  1.1001         0.346937   
     91. B(H  87,C  35)                  1.1016         0.345037   
     92. B(H  88,C  35)                  1.1011         0.345717   
     93. B(H  89,C  36)                  1.1034         0.342819   
     94. B(H  90,H  76)                  2.4407         0.000482   
     95. B(H  90,C  36)                  1.0998         0.347341   
     96. B(H  91,C  37)                  1.1023         0.344195   
     97. B(H  92,C  37)                  1.1044         0.341546   
     98. B(H  93,C  38)                  1.1047         0.341167   
     99. B(H  94,C  38)                  1.1037         0.342481   
    100. B(H  95,C  39)                  1.1049         0.340859   
    101. B(H  96,C  39)                  1.1013         0.345400   
    102. B(H  97,C  40)                  1.1034         0.342745   
    103. B(H  98,C  40)                  1.1036         0.342546   
    104. B(H  99,C  41)                  1.0995         0.347718   
    105. B(H 100,C  41)                  1.1007         0.346187   
    106. B(H 101,C  41)                  1.1008         0.346048   
    107. B(H 102,O  43)                  0.9805         0.482208   
    108. B(H 103,C  45)                  1.1024         0.344083   
    109. B(H 104,C  45)                  1.1029         0.343411   
    110. B(H 105,C  46)                  1.0982         0.349478   
    111. B(H 106,C  46)                  1.0988         0.348675   
    112. B(H 107,C  46)                  1.0992         0.348125   
    113. B(H 108,C  48)                  1.1032         0.343021   
    114. B(H 109,H  65)                  2.2918         0.000834   
    115. B(H 109,C  49)                  1.0990         0.348389   
    116. B(H 110,C  49)                  1.1015         0.345260   
    117. B(H 111,C  49)                  1.0986         0.348930   
    118. B(H 112,C  50)                  1.0982         0.349441   
    119. B(H 113,C  50)                  1.0990         0.348327   
    120. B(H 114,C  50)                  1.1010         0.345826   
    121. A(O   0,C   1,N   9)          123.5749         0.465538   
    122. A(C   2,C   1,N   9)          115.4773         0.390282   
    123. A(O   0,C   1,C   2)          120.8904         0.427922   
    124. A(C   1,C   2,H  51)          104.6083         0.321470   
    125. A(N   6,C   2,H  51)          110.4600         0.326530   
    126. A(C   1,C   2,N   6)          112.7045         0.366088   
    127. A(C   1,C   2,C   3)          113.2173         0.358941   
    128. A(C   3,C   2,H  51)          112.5732         0.320404   
    129. A(C   3,C   2,N   6)          103.4892         0.364817   
    130. A(C   4,C   3,H  53)          113.6689         0.321812   
    131. A(C   4,C   3,H  52)          110.4124         0.321224   
    132. A(C   2,C   3,C   4)          103.9054         0.359126   
    133. A(C   2,C   3,H  53)          111.7544         0.320585   
    134. A(C   2,C   3,H  52)          109.2518         0.320000   
    135. A(H  52,C   3,H  53)          107.7887         0.288091   
    136. A(H  54,C   4,H  55)          107.8186         0.288004   
    137. A(C   3,C   4,H  55)          113.0453         0.321719   
    138. A(C   3,C   4,C   5)          103.6100         0.361365   
    139. A(C   3,C   4,H  54)          110.3700         0.321215   
    140. A(C   5,C   4,H  55)          112.2567         0.322411   
    141. A(C   5,C   4,H  54)          109.7087         0.321906   
    142. A(H  56,C   5,H  57)          109.7595         0.287557   
    143. A(C   4,C   5,N   6)          102.7648         0.365916   
    144. A(C   4,C   5,H  56)          112.7797         0.322559   
    145. A(N   6,C   5,H  57)          110.3047         0.324416   
    146. A(N   6,C   5,H  56)          109.9665         0.325757   
    147. A(C   4,C   5,H  57)          111.0811         0.321236   
    148. A(C   5,N   6,C   7)          128.7071         0.398104   
    149. A(C   2,N   6,C   7)          118.4418         0.399429   
    150. A(C   2,N   6,C   5)          112.8018         0.370911   
    151. A(O   8,C   7,C  24)          120.6623         0.424937   
    152. A(N   6,C   7,O   8)          120.7824         0.465597   
    153. A(N   6,C   7,C  24)          118.5428         0.392625   
    154. A(C   1,N   9,C  10)          120.0288         0.398428   
    155. A(C  10,N   9,H  58)          115.0366         0.333967   
    156. A(C   1,N   9,H  58)          117.3907         0.353991   
    157. A(C  48,C  10,H  59)          110.1527         0.321731   
    158. A(C  11,C  10,H  59)          111.5700         0.322048   
    159. A(N   9,C  10,C  11)          102.8390         0.368854   
    160. A(N   9,C  10,C  48)          113.2783         0.368473   
    161. A(N   9,C  10,H  59)          106.0337         0.327205   
    162. A(C  11,C  10,C  48)          112.6159         0.362423   
    163. A(N  12,C  11,O  47)          122.7049         0.466514   
    164. A(C  10,C  11,O  47)          120.1878         0.427351   
    165. A(C  10,C  11,N  12)          116.9038         0.394487   
    166. A(C  13,N  12,H  60)          115.2930         0.332824   
    167. A(C  11,N  12,C  13)          121.4553         0.398954   
    168. A(C  11,N  12,H  60)          115.7722         0.357125   
    169. A(C  14,C  13,C  45)          112.4364         0.361501   
    170. A(N  12,C  13,H  61)          107.8588         0.325515   
    171. A(C  14,C  13,H  61)          105.8322         0.321503   
    172. A(N  12,C  13,C  14)          111.8662         0.366081   
    173. A(C  45,C  13,H  61)          109.1331         0.321606   
    174. A(N  12,C  13,C  45)          109.5234         0.366204   
    175. A(C  13,C  14,N  15)          115.0003         0.392989   
    176. A(N  15,C  14,O  44)          124.0444         0.465826   
    177. A(C  13,C  14,O  44)          120.8158         0.426643   
    178. A(C  14,N  15,H  62)          115.4307         0.356665   
    179. A(C  16,N  15,H  62)          115.9771         0.335953   
    180. A(C  14,N  15,C  16)          121.6427         0.402014   
    181. A(H  63,C  16,H  64)          108.0813         0.288515   
    182. A(C  17,C  16,H  64)          112.2398         0.318889   
    183. A(N  15,C  16,H  63)          110.0364         0.328858   
    184. A(C  17,C  16,H  63)          109.3167         0.318544   
    185. A(N  15,C  16,C  17)          110.2632         0.365375   
    186. A(N  15,C  16,H  64)          106.8496         0.329219   
    187. A(O  43,C  17,H  65)          105.4900         0.335533   
    188. A(C  18,C  17,H  65)          105.9138         0.319088   
    189. A(C  16,C  17,H  65)          106.5747         0.318683   
    190. A(C  16,C  17,C  18)          114.2493         0.353956   
    191. A(C  18,C  17,O  43)          111.3966         0.373393   
    192. A(C  16,C  17,O  43)          112.4714         0.372893   
    193. A(C  19,C  18,H  66)          110.0096         0.321724   
    194. A(C  17,C  18,H  66)          107.3933         0.317709   
    195. A(C  17,C  18,C  32)          113.4469         0.358809   
    196. A(C  17,C  18,C  19)          110.1391         0.359083   
    197. A(C  19,C  18,C  32)          108.4569         0.363546   
    198. A(C  32,C  18,H  66)          107.3330         0.321488   
    199. A(C  18,C  19,N  20)          116.4286         0.395644   
    200. A(N  20,C  19,O  31)          123.4527         0.467255   
    201. A(C  18,C  19,O  31)          120.0879         0.428004   
    202. A(C  19,N  20,H  67)          118.7379         0.357619   
    203. A(C  19,N  20,C  21)          119.8918         0.402683   
    204. A(C  21,N  20,H  67)          116.1309         0.335270   
    205. A(C  27,C  21,H  68)          110.4893         0.319790   
    206. A(C  22,C  21,H  68)          110.2149         0.321865   
    207. A(N  20,C  21,H  68)          106.9452         0.328256   
    208. A(N  20,C  21,C  22)          111.1420         0.368903   
    209. A(C  22,C  21,C  27)          105.8345         0.359000   
    210. A(N  20,C  21,C  27)          112.2615         0.366409   
    211. A(C  21,C  22,N  23)          114.2963         0.394058   
    212. A(C  21,C  22,O  26)          121.9662         0.425944   
    213. A(N  23,C  22,O  26)          123.1370         0.466302   
    214. A(C  22,N  23,C  24)          121.4796         0.402756   
    215. A(C  24,N  23,H  69)          120.1114         0.334257   
    216. A(C  22,N  23,H  69)          117.2991         0.356021   
    217. A(C  25,C  24,H  70)          109.9617         0.323074   
    218. A(N  23,C  24,H  70)          106.2115         0.328539   
    219. A(C   7,C  24,H  70)          109.5621         0.321220   
    220. A(N  23,C  24,C  25)          109.3537         0.370609   
    221. A(C   7,C  24,N  23)          112.7137         0.368379   
    222. A(C   7,C  24,C  25)          108.9967         0.362005   
    223. A(H  71,C  25,H  73)          109.3906         0.288194   
    224. A(C  24,C  25,H  73)          110.0147         0.323103   
    225. A(H  71,C  25,H  72)          108.7874         0.288176   
    226. A(C  24,C  25,H  72)          110.4849         0.323081   
    227. A(C  24,C  25,H  71)          110.1641         0.323150   
    228. A(H  72,C  25,H  73)          107.9535         0.288136   
    229. A(C  28,C  27,H  75)          110.3649         0.321093   
    230. A(C  21,C  27,C  28)          116.0539         0.358639   
    231. A(H  74,C  27,H  75)          106.5360         0.286585   
    232. A(C  21,C  27,H  75)          106.8546         0.319333   
    233. A(C  28,C  27,H  74)          108.6008         0.320303   
    234. A(C  21,C  27,H  74)          108.0062         0.318548   
    235. A(C  29,C  28,C  30)          110.9534         0.362434   
    236. A(C  27,C  28,C  30)          109.5792         0.361306   
    237. A(C  27,C  28,C  29)          111.8966         0.361825   
    238. A(C  30,C  28,H  76)          107.9982         0.321255   
    239. A(C  29,C  28,H  76)          108.1146         0.321698   
    240. A(C  27,C  28,H  76)          108.1692         0.320738   
    241. A(C  28,C  29,H  79)          110.4999         0.321738   
    242. A(H  78,C  29,H  79)          107.7143         0.287178   
    243. A(H  77,C  29,H  79)          108.9658         0.287590   
    244. A(H  77,C  29,H  78)          107.3513         0.288048   
    245. A(C  28,C  29,H  78)          110.8101         0.322275   
    246. A(C  28,C  29,H  77)          111.3700         0.322760   
    247. A(H  81,C  30,H  82)          107.6148         0.287201   
    248. A(H  80,C  30,H  82)          107.9690         0.287502   
    249. A(C  28,C  30,H  82)          110.9332         0.321781   
    250. A(H  80,C  30,H  81)          107.7736         0.287154   
    251. A(C  28,C  30,H  81)          110.9001         0.321373   
    252. A(C  28,C  30,H  80)          111.4890         0.321725   
    253. A(C  33,C  32,O  42)          122.4718         0.435439   
    254. A(C  18,C  32,O  42)          121.2320         0.430975   
    255. A(C  18,C  32,C  33)          116.1515         0.366848   
    256. A(C  32,C  33,C  34)          114.9037         0.367072   
    257. A(C  34,C  33,H  84)          110.0007         0.321122   
    258. A(H  83,C  33,H  84)          105.4432         0.286334   
    259. A(C  32,C  33,H  84)          104.6685         0.323963   
    260. A(C  34,C  33,H  83)          111.9431         0.322539   
    261. A(C  32,C  33,H  83)          109.2234         0.325398   
    262. A(C  33,C  34,C  35)          114.0370         0.362338   
    263. A(H  85,C  34,H  86)          106.6235         0.287433   
    264. A(C  35,C  34,H  86)          109.0487         0.321330   
    265. A(C  33,C  34,H  86)          108.6089         0.322496   
    266. A(C  35,C  34,H  85)          109.9467         0.321292   
    267. A(C  33,C  34,H  85)          108.3077         0.322458   
    268. A(C  34,C  35,C  36)          115.2483         0.360610   
    269. A(H  87,C  35,H  88)          105.9339         0.287061   
    270. A(C  36,C  35,H  88)          107.9227         0.320835   
    271. A(C  34,C  35,H  88)          108.8125         0.321145   
    272. A(C  36,C  35,H  87)          110.2742         0.320732   
    273. A(C  34,C  35,H  87)          108.2423         0.321041   
    274. A(C  35,C  36,C  37)          117.5816         0.360413   
    275. A(H  89,C  36,H  90)          105.1160         0.286982   
    276. A(C  37,C  36,H  90)          108.7979         0.321223   
    277. A(C  35,C  36,H  90)          108.1975         0.321081   
    278. A(C  37,C  36,H  89)          108.3530         0.320535   
    279. A(C  35,C  36,H  89)          108.0983         0.320394   
    280. A(C  36,C  37,C  38)          116.2770         0.360042   
    281. A(H  91,C  37,H  92)          105.2609         0.286408   
    282. A(C  38,C  37,H  92)          109.1949         0.319882   
    283. A(C  36,C  37,H  92)          110.3372         0.320340   
    284. A(C  38,C  37,H  91)          108.2483         0.320286   
    285. A(C  36,C  37,H  91)          106.9126         0.320745   
    286. A(C  37,C  38,C  39)          115.7685         0.360873   
    287. A(H  93,C  38,H  94)          105.7313         0.286136   
    288. A(C  39,C  38,H  94)          107.6967         0.321193   
    289. A(C  37,C  38,H  94)          108.8088         0.320025   
    290. A(C  39,C  38,H  93)          109.3515         0.320991   
    291. A(C  37,C  38,H  93)          109.0121         0.319824   
    292. A(C  38,C  39,C  40)          113.1373         0.362605   
    293. A(H  95,C  39,H  96)          105.9931         0.286475   
    294. A(C  40,C  39,H  96)          108.8818         0.321944   
    295. A(C  38,C  39,H  96)          110.4458         0.321640   
    296. A(C  40,C  39,H  95)          109.1228         0.321247   
    297. A(C  38,C  39,H  95)          109.0048         0.320944   
    298. A(C  39,C  40,C  41)          113.0806         0.363189   
    299. A(H  97,C  40,H  98)          105.9340         0.286350   
    300. A(C  41,C  40,H  98)          109.7091         0.321700   
    301. A(C  39,C  40,H  98)          109.1664         0.321507   
    302. A(C  41,C  40,H  97)          109.6222         0.321730   
    303. A(C  39,C  40,H  97)          109.0765         0.321538   
    304. A(H 100,C  41,H 101)          107.4258         0.287253   
    305. A(H  99,C  41,H 101)          107.6898         0.287451   
    306. A(C  40,C  41,H 101)          111.0719         0.322236   
    307. A(H  99,C  41,H 100)          107.6944         0.287469   
    308. A(C  40,C  41,H 100)          111.0653         0.322257   
    309. A(C  40,C  41,H  99)          111.7005         0.322490   
    310. A(C  17,O  43,H 102)          104.6875         0.350857   
    311. A(C  13,C  45,C  46)          112.3681         0.362930   
    312. A(C  46,C  45,H 104)          109.7235         0.322183   
    313. A(C  13,C  45,H 104)          107.7876         0.321070   
    314. A(C  46,C  45,H 103)          110.3559         0.322286   
    315. A(C  13,C  45,H 103)          109.5841         0.321173   
    316. A(H 103,C  45,H 104)          106.8375         0.286637   
    317. A(H 106,C  46,H 107)          107.6607         0.287844   
    318. A(H 105,C  46,H 107)          108.0543         0.287948   
    319. A(C  45,C  46,H 107)          110.8904         0.322904   
    320. A(H 105,C  46,H 106)          108.0256         0.288019   
    321. A(C  45,C  46,H 106)          111.3654         0.322987   
    322. A(C  45,C  46,H 105)          110.7063         0.323109   
    323. A(C  50,C  48,H 108)          109.1097         0.321673   
    324. A(C  49,C  48,H 108)          108.6135         0.321323   
    325. A(C  10,C  48,H 108)          106.9395         0.321193   
    326. A(C  49,C  48,C  50)          111.5147         0.362768   
    327. A(C  10,C  48,C  50)          110.7056         0.362615   
    328. A(C  10,C  48,C  49)          109.8237         0.362203   
    329. A(H 110,C  49,H 111)          107.5880         0.287505   
    330. A(H 109,C  49,H 111)          107.3026         0.287911   
    331. A(C  48,C  49,H 111)          110.7550         0.322222   
    332. A(H 109,C  49,H 110)          108.0163         0.287436   
    333. A(C  48,C  49,H 110)          110.6951         0.321665   
    334. A(C  48,C  49,H 109)          112.2920         0.322141   
    335. A(H 113,C  50,H 114)          107.8724         0.287501   
    336. A(H 112,C  50,H 114)          107.8201         0.287645   
    337. A(C  48,C  50,H 114)          110.8628         0.322102   
    338. A(H 112,C  50,H 113)          108.2083         0.287969   
    339. A(C  48,C  50,H 113)          110.5543         0.322482   
    340. A(C  48,C  50,H 112)          111.3910         0.322651   
    341. D(H  51,C   2,C   1,N   9)   -153.1692         0.009952   
    342. D(C   3,C   2,C   1,N   9)     83.9124         0.009952   
    343. D(N   6,C   2,C   1,N   9)    -33.1279         0.009952   
    344. D(N   6,C   2,C   1,O   0)    149.5301         0.009952   
    345. D(C   3,C   2,C   1,O   0)    -93.4297         0.009952   
    346. D(H  51,C   2,C   1,O   0)     29.4887         0.009952   
    347. D(C   4,C   3,C   2,N   6)     26.2533         0.010226   
    348. D(H  53,C   3,C   2,H  51)    -91.5092         0.010226   
    349. D(H  53,C   3,C   2,C   1)     26.8843         0.010226   
    350. D(C   4,C   3,C   2,H  51)    145.5291         0.010226   
    351. D(H  53,C   3,C   2,N   6)    149.2149         0.010226   
    352. D(H  52,C   3,C   2,H  51)     27.6859         0.010226   
    353. D(C   4,C   3,C   2,C   1)    -96.0774         0.010226   
    354. D(H  52,C   3,C   2,C   1)    146.0794         0.010226   
    355. D(H  52,C   3,C   2,N   6)    -91.5899         0.010226   
    356. D(H  55,C   4,C   3,H  53)     79.8075         0.010681   
    357. D(H  55,C   4,C   3,H  52)    -41.4600         0.010681   
    358. D(H  54,C   4,C   3,H  52)   -162.3025         0.010681   
    359. D(H  55,C   4,C   3,C   2)   -158.4971         0.010681   
    360. D(H  54,C   4,C   3,H  53)    -41.0350         0.010681   
    361. D(C   5,C   4,C   3,C   2)    -36.7283         0.010681   
    362. D(H  54,C   4,C   3,C   2)     80.6604         0.010681   
    363. D(C   5,C   4,C   3,H  53)   -158.4237         0.010681   
    364. D(C   5,C   4,C   3,H  52)     80.3088         0.010681   
    365. D(N   6,C   5,C   4,C   3)     32.4166         0.010946   
    366. D(H  57,C   5,C   4,C   3)    -85.5307         0.010946   
    367. D(H  56,C   5,C   4,H  55)    -86.9369         0.010946   
    368. D(H  56,C   5,C   4,C   3)    150.7683         0.010946   
    369. D(H  57,C   5,C   4,H  54)    156.6196         0.010946   
    370. D(H  56,C   5,C   4,H  54)     32.9186         0.010946   
    371. D(H  57,C   5,C   4,H  55)     36.7641         0.010946   
    372. D(N   6,C   5,C   4,H  54)    -85.4331         0.010946   
    373. D(N   6,C   5,C   4,H  55)    154.7115         0.010946   
    374. D(C   5,N   6,C   2,C   3)     -6.0083         0.014713   
    375. D(C   7,N   6,C   5,H  57)    -80.8041         0.014173   
    376. D(C   7,N   6,C   5,H  56)     40.3909         0.014173   
    377. D(C   7,N   6,C   5,C   4)    160.7021         0.014173   
    378. D(C   2,N   6,C   5,H  57)    101.8254         0.014173   
    379. D(C   2,N   6,C   5,H  56)   -136.9797         0.014173   
    380. D(C   7,N   6,C   2,H  51)     55.6060         0.014713   
    381. D(C   2,N   6,C   5,C   4)    -16.6685         0.014173   
    382. D(C   7,N   6,C   2,C   3)    176.3251         0.014713   
    383. D(C   5,N   6,C   2,C   1)    116.6633         0.014713   
    384. D(C   7,N   6,C   2,C   1)    -61.0033         0.014713   
    385. D(C   5,N   6,C   2,H  51)   -126.7274         0.014713   
    386. D(C  24,C   7,N   6,C   5)      4.1712         0.031550   
    387. D(C  24,C   7,N   6,C   2)   -178.5856         0.031550   
    388. D(O   8,C   7,N   6,C   5)   -177.1061         0.031550   
    389. D(O   8,C   7,N   6,C   2)      0.1370         0.031550   
    390. D(H  58,N   9,C   1,O   0)   -167.5808         0.029136   
    391. D(C  10,N   9,C   1,C   2)    163.3713         0.029136   
    392. D(H  58,N   9,C   1,C   2)     15.1569         0.029136   
    393. D(C  10,N   9,C   1,O   0)    -19.3664         0.029136   
    394. D(H  59,C  10,N   9,C   1)     17.9404         0.015392   
    395. D(C  48,C  10,N   9,H  58)    -72.2146         0.015392   
    396. D(C  48,C  10,N   9,C   1)    138.8625         0.015392   
    397. D(C  11,C  10,N   9,C   1)    -99.3064         0.015392   
    398. D(H  59,C  10,N   9,H  58)    166.8633         0.015392   
    399. D(C  11,C  10,N   9,H  58)     49.6164         0.015392   
    400. D(O  47,C  11,C  10,N   9)    -78.9262         0.010350   
    401. D(N  12,C  11,C  10,H  59)    -17.2188         0.010350   
    402. D(N  12,C  11,C  10,C  48)   -141.6917         0.010350   
    403. D(N  12,C  11,C  10,N   9)     96.0294         0.010350   
    404. D(O  47,C  11,C  10,H  59)    167.8256         0.010350   
    405. D(O  47,C  11,C  10,C  48)     43.3528         0.010350   
    406. D(H  60,N  12,C  11,O  47)    167.9034         0.031759   
    407. D(H  60,N  12,C  11,C  10)     -6.9144         0.031759   
    408. D(C  13,N  12,C  11,O  47)     19.5254         0.031759   
    409. D(C  13,N  12,C  11,C  10)   -155.2924         0.031759   
    410. D(H  61,C  13,N  12,C  11)     69.4971         0.014429   
    411. D(H  61,C  13,N  12,H  60)    -79.0214         0.014429   
    412. D(C  45,C  13,N  12,H  60)     39.6383         0.014429   
    413. D(C  45,C  13,N  12,C  11)   -171.8432         0.014429   
    414. D(C  14,C  13,N  12,C  11)    -46.4891         0.014429   
    415. D(C  14,C  13,N  12,H  60)    164.9924         0.014429   
    416. D(O  44,C  14,C  13,C  45)   -108.3426         0.010132   
    417. D(O  44,C  14,C  13,N  12)    127.9263         0.010132   
    418. D(N  15,C  14,C  13,H  61)   -173.4098         0.010132   
    419. D(N  15,C  14,C  13,C  45)     67.5330         0.010132   
    420. D(O  44,C  14,C  13,H  61)     10.7146         0.010132   
    421. D(N  15,C  14,C  13,N  12)    -56.1981         0.010132   
    422. D(H  62,N  15,C  14,O  44)   -173.0994         0.031064   
    423. D(H  62,N  15,C  14,C  13)     11.1757         0.031064   
    424. D(C  16,N  15,C  14,O  44)    -23.4766         0.031064   
    425. D(C  16,N  15,C  14,C  13)    160.7985         0.031064   
    426. D(H  64,C  16,N  15,H  62)    175.3206         0.016056   
    427. D(H  64,C  16,N  15,C  14)     25.8525         0.016056   
    428. D(H  63,C  16,N  15,H  62)    -67.5738         0.016056   
    429. D(H  63,C  16,N  15,C  14)    142.9581         0.016056   
    430. D(C  17,C  16,N  15,C  14)    -96.3804         0.016056   
    431. D(C  17,C  16,N  15,H  62)     53.0877         0.016056   
    432. D(H  65,C  17,C  16,H  64)   -100.8834         0.009590   
    433. D(H  65,C  17,C  16,H  63)    139.2064         0.009590   
    434. D(H  65,C  17,C  16,N  15)     18.1145         0.009590   
    435. D(O  43,C  17,C  16,H  64)    143.9879         0.009590   
    436. D(O  43,C  17,C  16,H  63)     24.0777         0.009590   
    437. D(O  43,C  17,C  16,N  15)    -97.0143         0.009590   
    438. D(C  18,C  17,C  16,H  64)     15.7212         0.009590   
    439. D(C  18,C  17,C  16,H  63)   -104.1890         0.009590   
    440. D(C  18,C  17,C  16,N  15)    134.7190         0.009590   
    441. D(H  66,C  18,C  17,H  65)    -49.8885         0.009727   
    442. D(H  66,C  18,C  17,O  43)     64.3155         0.009727   
    443. D(H  66,C  18,C  17,C  16)   -166.8744         0.009727   
    444. D(C  32,C  18,C  17,O  43)    -54.1194         0.009727   
    445. D(C  32,C  18,C  17,C  16)     74.6907         0.009727   
    446. D(C  32,C  18,C  17,H  65)   -168.3234         0.009727   
    447. D(C  19,C  18,C  17,H  65)     69.9000         0.009727   
    448. D(C  19,C  18,C  17,O  43)   -175.8960         0.009727   
    449. D(C  19,C  18,C  17,C  16)    -47.0859         0.009727   
    450. D(O  31,C  19,C  18,H  66)   -144.5793         0.010511   
    451. D(O  31,C  19,C  18,C  32)    -27.4629         0.010511   
    452. D(O  31,C  19,C  18,C  17)     97.2308         0.010511   
    453. D(N  20,C  19,C  18,H  66)     37.3695         0.010511   
    454. D(N  20,C  19,C  18,C  17)    -80.8204         0.010511   
    455. D(N  20,C  19,C  18,C  32)    154.4859         0.010511   
    456. D(H  67,N  20,C  19,O  31)   -164.2918         0.032343   
    457. D(H  67,N  20,C  19,C  18)     13.6872         0.032343   
    458. D(C  21,N  20,C  19,O  31)    -10.8379         0.032343   
    459. D(C  21,N  20,C  19,C  18)    167.1410         0.032343   
    460. D(H  68,C  21,N  20,H  67)    129.2393         0.015761   
    461. D(H  68,C  21,N  20,C  19)    -24.8809         0.015761   
    462. D(C  27,C  21,N  20,H  67)   -109.4209         0.015761   
    463. D(C  27,C  21,N  20,C  19)     96.4588         0.015761   
    464. D(C  22,C  21,N  20,H  67)      8.9001         0.015761   
    465. D(C  22,C  21,N  20,C  19)   -145.2202         0.015761   
    466. D(N  23,C  22,C  21,C  27)   -112.1394         0.010139   
    467. D(N  23,C  22,C  21,N  20)    125.7285         0.010139   
    468. D(O  26,C  22,C  21,H  68)    178.7176         0.010139   
    469. D(O  26,C  22,C  21,C  27)     59.2351         0.010139   
    470. D(O  26,C  22,C  21,N  20)    -62.8971         0.010139   
    471. D(N  23,C  22,C  21,H  68)      7.3431         0.010139   
    472. D(H  69,N  23,C  22,O  26)    155.7788         0.032095   
    473. D(H  69,N  23,C  22,C  21)    -32.9609         0.032095   
    474. D(C  24,N  23,C  22,O  26)    -12.1845         0.032095   
    475. D(C  24,N  23,C  22,C  21)    159.0758         0.032095   
    476. D(H  70,C  24,N  23,H  69)    150.8502         0.015907   
    477. D(H  70,C  24,N  23,C  22)    -41.5196         0.015907   
    478. D(C  25,C  24,N  23,H  69)     32.2336         0.015907   
    479. D(C  25,C  24,N  23,C  22)   -160.1362         0.015907   
    480. D(C   7,C  24,N  23,H  69)    -89.1688         0.015907   
    481. D(C   7,C  24,N  23,C  22)     78.4614         0.015907   
    482. D(H  70,C  24,C   7,O   8)   -174.1977         0.009901   
    483. D(H  70,C  24,C   7,N   6)      4.5265         0.009901   
    484. D(C  25,C  24,C   7,O   8)    -53.8329         0.009901   
    485. D(C  25,C  24,C   7,N   6)    124.8913         0.009901   
    486. D(N  23,C  24,C   7,O   8)     67.7720         0.009901   
    487. D(N  23,C  24,C   7,N   6)   -113.5037         0.009901   
    488. D(H  73,C  25,C  24,H  70)    179.1109         0.011285   
    489. D(H  73,C  25,C  24,N  23)    -64.6322         0.011285   
    490. D(H  73,C  25,C  24,C   7)     58.9924         0.011285   
    491. D(H  72,C  25,C  24,H  70)     60.0141         0.011285   
    492. D(H  72,C  25,C  24,N  23)    176.2711         0.011285   
    493. D(H  72,C  25,C  24,C   7)    -60.1044         0.011285   
    494. D(H  71,C  25,C  24,H  70)    -60.2132         0.011285   
    495. D(H  71,C  25,C  24,N  23)     56.0437         0.011285   
    496. D(H  71,C  25,C  24,C   7)    179.6683         0.011285   
    497. D(H  75,C  27,C  21,H  68)    176.9288         0.010055   
    498. D(H  75,C  27,C  21,C  22)    -63.7693         0.010055   
    499. D(H  75,C  27,C  21,N  20)     57.6434         0.010055   
    500. D(H  74,C  27,C  21,H  68)    -68.7921         0.010055   
    501. D(H  74,C  27,C  21,C  22)     50.5097         0.010055   
    502. D(H  74,C  27,C  21,N  20)    171.9225         0.010055   
    503. D(C  28,C  27,C  21,H  68)     53.3653         0.010055   
    504. D(C  28,C  27,C  21,C  22)    172.6671         0.010055   
    505. D(C  28,C  27,C  21,N  20)    -65.9201         0.010055   
    506. D(H  76,C  28,C  27,H  75)    -71.5323         0.010704   
    507. D(H  76,C  28,C  27,H  74)    172.0281         0.010704   
    508. D(H  76,C  28,C  27,C  21)     50.1854         0.010704   
    509. D(C  30,C  28,C  27,H  75)     45.9766         0.010704   
    510. D(C  30,C  28,C  27,H  74)    -70.4630         0.010704   
    511. D(C  30,C  28,C  27,C  21)    167.6943         0.010704   
    512. D(C  29,C  28,C  27,H  75)    169.4824         0.010704   
    513. D(C  29,C  28,C  27,H  74)     53.0428         0.010704   
    514. D(C  29,C  28,C  27,C  21)    -68.7998         0.010704   
    515. D(H  79,C  29,C  28,C  30)     62.8845         0.011077   
    516. D(H  79,C  29,C  28,C  27)    -59.8435         0.011077   
    517. D(H  78,C  29,C  28,H  76)     61.8239         0.011077   
    518. D(H  78,C  29,C  28,C  30)    -56.4307         0.011077   
    519. D(H  78,C  29,C  28,C  27)   -179.1586         0.011077   
    520. D(H  77,C  29,C  28,H  76)    -57.6032         0.011077   
    521. D(H  77,C  29,C  28,C  30)   -175.8577         0.011077   
    522. D(H  79,C  29,C  28,H  76)   -178.8610         0.011077   
    523. D(H  77,C  29,C  28,C  27)     61.4143         0.011077   
    524. D(H  82,C  30,C  28,H  76)    -61.3344         0.010903   
    525. D(H  82,C  30,C  28,C  29)     56.9906         0.010903   
    526. D(H  82,C  30,C  28,C  27)   -178.9503         0.010903   
    527. D(H  81,C  30,C  28,H  76)    179.1346         0.010903   
    528. D(H  81,C  30,C  28,C  29)    -62.5404         0.010903   
    529. D(H  81,C  30,C  28,C  27)     61.5187         0.010903   
    530. D(H  80,C  30,C  28,H  76)     59.0352         0.010903   
    531. D(H  80,C  30,C  28,C  29)    177.3602         0.010903   
    532. D(H  80,C  30,C  28,C  27)    -58.5807         0.010903   
    533. D(O  42,C  32,C  18,H  66)   -122.1922         0.010424   
    534. D(O  42,C  32,C  18,C  19)    118.9879         0.010424   
    535. D(O  42,C  32,C  18,C  17)     -3.7225         0.010424   
    536. D(C  33,C  32,C  18,H  66)     53.5385         0.010424   
    537. D(C  33,C  32,C  18,C  19)    -65.2815         0.010424   
    538. D(C  33,C  32,C  18,C  17)    172.0081         0.010424   
    539. D(H  84,C  33,C  32,O  42)     97.4149         0.011612   
    540. D(H  84,C  33,C  32,C  18)    -78.2578         0.011612   
    541. D(H  83,C  33,C  32,O  42)   -150.0790         0.011612   
    542. D(H  83,C  33,C  32,C  18)     34.2483         0.011612   
    543. D(C  34,C  33,C  32,O  42)    -23.3371         0.011612   
    544. D(C  34,C  33,C  32,C  18)    160.9901         0.011612   
    545. D(H  86,C  34,C  33,H  84)    -67.1788         0.011204   
    546. D(H  86,C  34,C  33,H  83)    175.9399         0.011204   
    547. D(H  86,C  34,C  33,C  32)     50.6020         0.011204   
    548. D(H  85,C  34,C  33,H  84)     48.2484         0.011204   
    549. D(H  85,C  34,C  33,H  83)    -68.6329         0.011204   
    550. D(H  85,C  34,C  33,C  32)    166.0292         0.011204   
    551. D(C  35,C  34,C  33,H  84)    171.0016         0.011204   
    552. D(C  35,C  34,C  33,H  83)     54.1202         0.011204   
    553. D(C  35,C  34,C  33,C  32)    -71.2177         0.011204   
    554. D(H  88,C  35,C  34,H  86)    -57.6544         0.010748   
    555. D(H  88,C  35,C  34,H  85)   -174.2235         0.010748   
    556. D(H  88,C  35,C  34,C  33)     63.9224         0.010748   
    557. D(H  87,C  35,C  34,H  86)     57.0322         0.010748   
    558. D(H  87,C  35,C  34,H  85)    -59.5369         0.010748   
    559. D(H  87,C  35,C  34,C  33)    178.6090         0.010748   
    560. D(C  36,C  35,C  34,H  86)   -178.9932         0.010748   
    561. D(C  36,C  35,C  34,H  85)     64.4377         0.010748   
    562. D(C  36,C  35,C  34,C  33)    -57.4164         0.010748   
    563. D(H  90,C  36,C  35,H  87)   -167.0851         0.010630   
    564. D(H  90,C  36,C  35,C  34)     70.0155         0.010630   
    565. D(H  89,C  36,C  35,H  88)     61.5386         0.010630   
    566. D(H  89,C  36,C  35,H  87)    -53.7426         0.010630   
    567. D(H  89,C  36,C  35,C  34)   -176.6420         0.010630   
    568. D(C  37,C  36,C  35,H  88)   -175.4740         0.010630   
    569. D(C  37,C  36,C  35,H  87)     69.2448         0.010630   
    570. D(H  90,C  36,C  35,H  88)    -51.8039         0.010630   
    571. D(C  37,C  36,C  35,C  34)    -53.6546         0.010630   
    572. D(H  92,C  37,C  36,H  90)    -65.9780         0.010684   
    573. D(H  92,C  37,C  36,H  89)   -179.7532         0.010684   
    574. D(H  92,C  37,C  36,C  35)     57.3888         0.010684   
    575. D(H  91,C  37,C  36,H  90)     47.9823         0.010684   
    576. D(H  91,C  37,C  36,H  89)    -65.7930         0.010684   
    577. D(H  91,C  37,C  36,C  35)    171.3491         0.010684   
    578. D(C  38,C  37,C  36,H  90)    168.9888         0.010684   
    579. D(C  38,C  37,C  36,H  89)     55.2136         0.010684   
    580. D(C  38,C  37,C  36,C  35)    -67.6443         0.010684   
    581. D(H  94,C  38,C  37,H  92)     79.8984         0.010511   
    582. D(H  94,C  38,C  37,H  91)    -34.1969         0.010511   
    583. D(H  94,C  38,C  37,C  36)   -154.4891         0.010511   
    584. D(H  93,C  38,C  37,H  92)   -165.2477         0.010511   
    585. D(H  93,C  38,C  37,H  91)     80.6570         0.010511   
    586. D(H  93,C  38,C  37,C  36)    -39.6353         0.010511   
    587. D(C  39,C  38,C  37,H  92)    -41.5014         0.010511   
    588. D(C  39,C  38,C  37,H  91)   -155.5967         0.010511   
    589. D(C  39,C  38,C  37,C  36)     84.1111         0.010511   
    590. D(H  95,C  39,C  38,H  94)    -66.6290         0.010958   
    591. D(H  95,C  39,C  38,H  93)    178.9337         0.010958   
    592. D(H  95,C  39,C  38,C  37)     55.3647         0.010958   
    593. D(C  40,C  39,C  38,H  94)     54.9692         0.010958   
    594. D(C  40,C  39,C  38,H  93)    -59.4681         0.010958   
    595. D(C  40,C  39,C  38,C  37)    176.9630         0.010958   
    596. D(H  96,C  39,C  38,H  94)    177.3054         0.010958   
    597. D(H  96,C  39,C  38,H  93)     62.8681         0.010958   
    598. D(H  96,C  39,C  38,C  37)    -60.7009         0.010958   
    599. D(H  98,C  40,C  39,H  95)     64.4641         0.011078   
    600. D(H  98,C  40,C  39,C  38)    -57.0677         0.011078   
    601. D(H  97,C  40,C  39,H  96)    -64.9486         0.011078   
    602. D(H  97,C  40,C  39,H  95)    179.7876         0.011078   
    603. D(H  97,C  40,C  39,C  38)     58.2558         0.011078   
    604. D(C  41,C  40,C  39,H  96)     57.3014         0.011078   
    605. D(C  41,C  40,C  39,H  95)    -57.9624         0.011078   
    606. D(H  98,C  40,C  39,H  96)    179.7279         0.011078   
    607. D(C  41,C  40,C  39,C  38)   -179.4942         0.011078   
    608. D(H 101,C  41,C  40,H  98)    -62.3882         0.011155   
    609. D(H 101,C  41,C  40,H  97)   -178.3205         0.011155   
    610. D(H 101,C  41,C  40,C  39)     59.7350         0.011155   
    611. D(H 100,C  41,C  40,H  98)    178.1184         0.011155   
    612. D(H 100,C  41,C  40,H  97)     62.1860         0.011155   
    613. D(H 100,C  41,C  40,C  39)    -59.7584         0.011155   
    614. D(H  99,C  41,C  40,H  98)     57.8644         0.011155   
    615. D(H  99,C  41,C  40,H  97)    -58.0679         0.011155   
    616. D(H  99,C  41,C  40,C  39)    179.9876         0.011155   
    617. D(H 102,O  43,C  17,H  65)    176.0475         0.018848   
    618. D(H 102,O  43,C  17,C  18)     61.5800         0.018848   
    619. D(H 102,O  43,C  17,C  16)    -68.1690         0.018848   
    620. D(H 104,C  45,C  13,H  61)     62.3332         0.010855   
    621. D(H 104,C  45,C  13,C  14)    179.4415         0.010855   
    622. D(H 104,C  45,C  13,N  12)    -55.5335         0.010855   
    623. D(H 103,C  45,C  13,H  61)    178.2471         0.010855   
    624. D(H 103,C  45,C  13,C  14)    -64.6446         0.010855   
    625. D(H 103,C  45,C  13,N  12)     60.3803         0.010855   
    626. D(C  46,C  45,C  13,H  61)    -58.6835         0.010855   
    627. D(C  46,C  45,C  13,C  14)     58.4248         0.010855   
    628. D(C  46,C  45,C  13,N  12)   -176.5503         0.010855   
    629. D(H 107,C  46,C  45,H 104)    -61.5721         0.011295   
    630. D(H 107,C  46,C  45,H 103)   -179.0382         0.011295   
    631. D(H 107,C  46,C  45,C  13)     58.3267         0.011295   
    632. D(H 106,C  46,C  45,H 104)    178.5602         0.011295   
    633. D(H 106,C  46,C  45,H 103)     61.0941         0.011295   
    634. D(H 106,C  46,C  45,C  13)    -61.5410         0.011295   
    635. D(H 105,C  46,C  45,H 104)     58.3552         0.011295   
    636. D(H 105,C  46,C  45,H 103)    -59.1108         0.011295   
    637. D(H 105,C  46,C  45,C  13)    178.2540         0.011295   
    638. D(H 108,C  48,C  10,H  59)    179.8330         0.010926   
    639. D(H 108,C  48,C  10,C  11)    -54.9187         0.010926   
    640. D(H 108,C  48,C  10,N   9)     61.2668         0.010926   
    641. D(C  50,C  48,C  10,H  59)     61.0835         0.010926   
    642. D(C  50,C  48,C  10,C  11)   -173.6682         0.010926   
    643. D(C  50,C  48,C  10,N   9)    -57.4827         0.010926   
    644. D(C  49,C  48,C  10,H  59)    -62.4908         0.010926   
    645. D(C  49,C  48,C  10,C  11)     62.7575         0.010926   
    646. D(C  49,C  48,C  10,N   9)    178.9430         0.010926   
    647. D(H 111,C  49,C  48,C  50)     57.9222         0.010977   
    648. D(H 111,C  49,C  48,C  10)   -178.9783         0.010977   
    649. D(H 110,C  49,C  48,H 108)    178.4032         0.010977   
    650. D(H 110,C  49,C  48,C  50)    -61.3259         0.010977   
    651. D(H 110,C  49,C  48,C  10)     61.7735         0.010977   
    652. D(H 109,C  49,C  48,H 108)     57.5927         0.010977   
    653. D(H 109,C  49,C  48,C  50)    177.8635         0.010977   
    654. D(H 111,C  49,C  48,H 108)    -62.3486         0.010977   
    655. D(H 109,C  49,C  48,C  10)    -59.0370         0.010977   
    656. D(H 114,C  50,C  48,H 108)    179.5069         0.011115   
    657. D(H 114,C  50,C  48,C  49)     59.5282         0.011115   
    658. D(H 114,C  50,C  48,C  10)    -63.0669         0.011115   
    659. D(H 113,C  50,C  48,H 108)     59.9250         0.011115   
    660. D(H 113,C  50,C  48,C  49)    -60.0537         0.011115   
    661. D(H 113,C  50,C  48,C  10)    177.3512         0.011115   
    662. D(H 112,C  50,C  48,H 108)    -60.4254         0.011115   
    663. D(H 112,C  50,C  48,C  49)    179.5959         0.011115   
    664. D(H 112,C  50,C  48,C  10)     57.0008         0.011115   
    -----------------------------------------------------------------

Number of atoms                         .... 115
Number of degrees of freedom            .... 664

         *************************************************************
         *                GEOMETRY OPTIMIZATION CYCLE   1            *
         *************************************************************
---------------------------------
CARTESIAN COORDINATES (ANGSTROEM)
---------------------------------
  O      6.529267   -1.711568    2.146162
  C      5.632295   -0.925490    2.442270
  C      5.957109    0.459801    3.023459
  C      5.962023    0.486272    4.565734
  C      4.555797    0.985241    4.930875
  C      4.245467    2.017905    3.841787
  N      4.954122    1.474946    2.666016
  C      4.758440    1.757052    1.349658
  O      5.407711    1.171077    0.472379
  N      4.298634   -1.223856    2.339806
  C      3.858224   -2.329130    1.485103
  C      3.406356   -1.613356    0.209126
  N      4.308844   -1.534780   -0.804651
  C      4.233738   -0.469484   -1.820355
  C      2.806890   -0.289193   -2.354946
  N      2.241725   -1.413024   -2.878011
  C      0.797415   -1.536939   -3.045093
  C      0.180114   -2.296053   -1.840341
  C     -1.106672   -1.646719   -1.270494
  C     -0.900542   -0.142885   -1.086842
  N     -0.240209    0.243902    0.034108
  C      0.246512    1.616850    0.155703
  C      1.573390    1.667546    0.924269
  N      2.577031    2.302545    0.265264
  C      3.734306    2.841189    0.974906
  C      4.419310    3.892224    0.102311
  O      1.660585    1.308348    2.106506
  C     -0.731513    2.516964    0.943279
  C     -2.092707    2.775585    0.280654
  C     -1.962268    3.649478   -0.969489
  C     -3.046545    3.412737    1.297909
  O     -1.294674    0.647182   -1.952668
  C     -2.339115   -1.862757   -2.151330
  C     -3.663848   -1.419224   -1.566240
  C     -4.783160   -1.215454   -2.588062
  C     -4.597245    0.019213   -3.481362
  C     -4.467219    1.355648   -2.733755
  C     -5.570740    1.718688   -1.728733
  C     -6.960494    2.012355   -2.319748
  C     -7.842187    0.788229   -2.588931
  C     -9.236087    1.152923   -3.106184
  C    -10.119374   -0.069541   -3.362792
  O     -2.255882   -2.436337   -3.230425
  O     -0.012974   -3.683709   -2.111024
  O      2.271550    0.824866   -2.367780
  C      5.245755   -0.753895   -2.937261
  C      5.282194    0.357116   -3.985715
  O      2.302441   -1.057624    0.165569
  C      2.743949   -3.173802    2.113257
  C      2.327036   -4.286293    1.145715
  C      3.190553   -3.741563    3.462418
  H      6.933973    0.717876    2.594498
  H      6.724176    1.198659    4.913750
  H      6.204051   -0.496383    4.988368
  H      3.830773    0.160004    4.876920
  H      4.500855    1.415065    5.938889
  H      3.173259    2.099997    3.627740
  H      4.649597    3.009317    4.108244
  H      3.635625   -0.449557    2.421951
  H      4.749567   -2.949415    1.306985
  H      5.248862   -1.864333   -0.587800
  H      4.493607    0.481375   -1.331839
  H      2.746327   -2.279907   -2.700060
  H      0.571224   -2.080847   -3.971549
  H      0.400400   -0.519926   -3.142116
  H      0.920870   -2.255492   -1.032039
  H     -1.312081   -2.121901   -0.294973
  H      0.261335   -0.459865    0.575025
  H      0.384107    1.999274   -0.864711
  H      2.590228    2.226445   -0.757554
  H      3.343357    3.309156    1.888260
  H      3.702583    4.673785   -0.181688
  H      5.253467    4.357361    0.644344
  H      4.824420    3.422422   -0.803720
  H     -0.235184    3.488193    1.119611
  H     -0.868700    2.051305    1.931211
  H     -2.517456    1.804374   -0.022774
  H     -1.339337    3.165780   -1.732166
  H     -2.947676    3.835571   -1.420613
  H     -1.520785    4.626550   -0.713175
  H     -3.183215    2.769601    2.179994
  H     -2.658440    4.383509    1.646282
  H     -4.035741    3.590690    0.851181
  H     -3.504734   -0.524257   -0.946943
  H     -3.940333   -2.223235   -0.856951
  H     -5.737949   -1.145947   -2.045583
  H     -4.846397   -2.111711   -3.222903
  H     -5.437471    0.059895   -4.192668
  H     -3.690929   -0.117258   -4.091591
  H     -4.400751    2.162641   -3.483294
  H     -3.497705    1.365864   -2.214580
  H     -5.229071    2.616221   -1.187666
  H     -5.662406    0.932355   -0.958684
  H     -6.839637    2.589040   -3.254196
  H     -7.508584    2.674981   -1.627953
  H     -7.943450    0.205487   -1.655621
  H     -7.357077    0.116816   -3.314765
  H     -9.133983    1.738080   -4.036108
  H     -9.728533    1.822017   -2.379718
  H    -11.113973    0.218023   -3.732974
  H     -9.664071   -0.736662   -4.110619
  H    -10.261772   -0.655318   -2.441691
  H     -0.722199   -3.708684   -2.787624
  H      5.010763   -1.720989   -3.411352
  H      6.240173   -0.859423   -2.472049
  H      6.036174    0.141076   -4.754334
  H      4.309786    0.468321   -4.485081
  H      5.532733    1.323019   -3.524722
  H      1.882308   -2.503138    2.271030
  H      1.968220   -3.890643    0.185240
  H      3.172833   -4.961620    0.941351
  H      1.515613   -4.890650    1.573755
  H      3.495655   -2.943029    4.151804
  H      2.373933   -4.307483    3.932284
  H      4.045802   -4.423520    3.337096

----------------------------
CARTESIAN COORDINATES (A.U.)
----------------------------
  NO LB      ZA    FRAG     MASS         X           Y           Z
   0 O     8.0000    0    15.999   12.338526   -3.234394    4.055658
   1 C     6.0000    0    12.011   10.643495   -1.748922    4.615221
   2 C     6.0000    0    12.011   11.257304    0.868898    5.713509
   3 C     6.0000    0    12.011   11.266592    0.918920    8.627988
   4 C     6.0000    0    12.011    8.609208    1.861836    9.318004
   5 C     6.0000    0    12.011    8.022769    3.813289    7.259925
   6 N     7.0000    0    14.007    9.361934    2.787245    5.038040
   7 C     6.0000    0    12.011    8.992148    3.320348    2.550485
   8 O     8.0000    0    15.999   10.219093    2.213016    0.892667
   9 N     7.0000    0    14.007    8.123241   -2.312753    4.421593
  10 C     6.0000    0    12.011    7.290986   -4.401418    2.806438
  11 C     6.0000    0    12.011    6.437079   -3.048802    0.395191
  12 N     7.0000    0    14.007    8.142535   -2.900313   -1.520569
  13 C     6.0000    0    12.011    8.000605   -0.887196   -3.439972
  14 C     6.0000    0    12.011    5.304253   -0.546495   -4.450203
  15 N     7.0000    0    14.007    4.236247   -2.670228   -5.438653
  16 C     6.0000    0    12.011    1.506896   -2.904394   -5.754392
  17 C     6.0000    0    12.011    0.340366   -4.338912   -3.477740
  18 C     6.0000    0    12.011   -2.091306   -3.111847   -2.400885
  19 C     6.0000    0    12.011   -1.701777   -0.270014   -2.053834
  20 N     7.0000    0    14.007   -0.453930    0.460907    0.064456
  21 C     6.0000    0    12.011    0.465840    3.055403    0.294235
  22 C     6.0000    0    12.011    2.973276    3.151205    1.746615
  23 N     7.0000    0    14.007    4.869882    4.351179    0.501277
  24 C     6.0000    0    12.011    7.056816    5.369069    1.842305
  25 C     6.0000    0    12.011    8.351286    7.355237    0.193340
  26 O     8.0000    0    15.999    3.138050    2.472420    3.980719
  27 C     6.0000    0    12.011   -1.382359    4.756373    1.782540
  28 C     6.0000    0    12.011   -3.954644    5.245096    0.530359
  29 C     6.0000    0    12.011   -3.708149    6.896513   -1.832068
  30 C     6.0000    0    12.011   -5.757136    6.449138    2.452692
  31 O     8.0000    0    15.999   -2.446579    1.222997   -3.690008
  32 C     6.0000    0    12.011   -4.420287   -3.520100   -4.065425
  33 C     6.0000    0    12.011   -6.923670   -2.681944   -2.959764
  34 C     6.0000    0    12.011   -9.038863   -2.296876   -4.890728
  35 C     6.0000    0    12.011   -8.687534    0.036307   -6.578821
  36 C     6.0000    0    12.011   -8.441821    2.561804   -5.166048
  37 C     6.0000    0    12.011  -10.527174    3.247850   -3.266833
  38 C     6.0000    0    12.011  -13.153427    3.802800   -4.383688
  39 C     6.0000    0    12.011  -14.819585    1.489537   -4.892371
  40 C     6.0000    0    12.011  -17.453675    2.178709   -5.869837
  41 C     6.0000    0    12.011  -19.122846   -0.131414   -6.354755
  42 O     8.0000    0    15.999   -4.262999   -4.604011   -6.104619
  43 O     8.0000    0    15.999   -0.024517   -6.961201   -3.989258
  44 O     8.0000    0    15.999    4.292607    1.558770   -4.474455
  45 C     6.0000    0    12.011    9.913040   -1.424655   -5.550619
  46 C     6.0000    0    12.011    9.981900    0.674852   -7.531910
  47 O     8.0000    0    15.999    4.350983   -1.998619    0.312880
  48 C     6.0000    0    12.011    5.185313   -5.997617    3.993477
  49 C     6.0000    0    12.011    4.397461   -8.099920    2.165088
  50 C     6.0000    0    12.011    6.029271   -7.070530    6.543022
  51 H     1.0000    0     1.008   13.103310    1.356589    4.902891
  52 H     1.0000    0     1.008   12.706851    2.265136    9.285642
  53 H     1.0000    0     1.008   11.723957   -0.938028    9.426650
  54 H     1.0000    0     1.008    7.239112    0.302364    9.216043
  55 H     1.0000    0     1.008    8.505384    2.674086   11.222874
  56 H     1.0000    0     1.008    5.996590    3.968419    6.855435
  57 H     1.0000    0     1.008    8.786465    5.686786    7.763456
  58 H     1.0000    0     1.008    6.870336   -0.849540    4.576824
  59 H     1.0000    0     1.008    8.975381   -5.573587    2.469843
  60 H     1.0000    0     1.008    9.918912   -3.523079   -1.110780
  61 H     1.0000    0     1.008    8.491687    0.909667   -2.516811
  62 H     1.0000    0     1.008    5.189806   -4.308399   -5.102374
  63 H     1.0000    0     1.008    1.079458   -3.932230   -7.505140
  64 H     1.0000    0     1.008    0.756646   -0.982517   -5.937738
  65 H     1.0000    0     1.008    1.740192   -4.262262   -1.950271
  66 H     1.0000    0     1.008   -2.479474   -4.009811   -0.557418
  67 H     1.0000    0     1.008    0.493852   -0.869019    1.086640
  68 H     1.0000    0     1.008    0.725858    3.778081   -1.634067
  69 H     1.0000    0     1.008    4.894822    4.207371   -1.431569
  70 H     1.0000    0     1.008    6.318029    6.253398    3.568293
  71 H     1.0000    0     1.008    6.996868    8.832173   -0.343341
  72 H     1.0000    0     1.008    9.927614    8.234218    1.217633
  73 H     1.0000    0     1.008    9.116833    6.467440   -1.518811
  74 H     1.0000    0     1.008   -0.444433    6.591730    2.115758
  75 H     1.0000    0     1.008   -1.641606    3.876405    3.649460
  76 H     1.0000    0     1.008   -4.757303    3.409772   -0.043036
  77 H     1.0000    0     1.008   -2.530981    5.982458   -3.273320
  78 H     1.0000    0     1.008   -5.570301    7.248178   -2.684569
  79 H     1.0000    0     1.008   -2.873868    8.742912   -1.347705
  80 H     1.0000    0     1.008   -6.015404    5.233787    4.119591
  81 H     1.0000    0     1.008   -5.023723    8.283631    3.111021
  82 H     1.0000    0     1.008   -7.626445    6.785420    1.608499
  83 H     1.0000    0     1.008   -6.622988   -0.990703   -1.789464
  84 H     1.0000    0     1.008   -7.446151   -4.201306   -1.619402
  85 H     1.0000    0     1.008  -10.843152   -2.165525   -3.865592
  86 H     1.0000    0     1.008   -9.158362   -3.990556   -6.090405
  87 H     1.0000    0     1.008  -10.275332    0.113184   -7.922994
  88 H     1.0000    0     1.008   -6.974845   -0.221585   -7.731986
  89 H     1.0000    0     1.008   -8.316214    4.086799   -6.582472
  90 H     1.0000    0     1.008   -6.609705    2.581109   -4.184950
  91 H     1.0000    0     1.008   -9.881512    4.943942   -2.244363
  92 H     1.0000    0     1.008  -10.700397    1.761895   -1.811650
  93 H     1.0000    0     1.008  -12.925041    4.892577   -6.149540
  94 H     1.0000    0     1.008  -14.189168    5.054981   -3.076386
  95 H     1.0000    0     1.008  -15.010945    0.388314   -3.128670
  96 H     1.0000    0     1.008  -13.902860    0.220750   -6.263997
  97 H     1.0000    0     1.008  -17.260726    3.284496   -7.627138
  98 H     1.0000    0     1.008  -18.384263    3.443113   -4.497015
  99 H     1.0000    0     1.008  -21.002364    0.412003   -7.054299
 100 H     1.0000    0     1.008  -18.262448   -1.392090   -7.767944
 101 H     1.0000    0     1.008  -19.391939   -1.238371   -4.614126
 102 H     1.0000    0     1.008   -1.364759   -7.008398   -5.267846
 103 H     1.0000    0     1.008    9.468970   -3.252198   -6.446521
 104 H     1.0000    0     1.008   11.792218   -1.624074   -4.671495
 105 H     1.0000    0     1.008   11.406716    0.266596   -8.984388
 106 H     1.0000    0     1.008    8.144316    0.884999   -8.475574
 107 H     1.0000    0     1.008   10.455349    2.500144   -6.660759
 108 H     1.0000    0     1.008    3.557046   -4.730245    4.291625
 109 H     1.0000    0     1.008    3.719396   -7.352249    0.350053
 110 H     1.0000    0     1.008    5.995786   -9.376103    1.778895
 111 H     1.0000    0     1.008    2.864094   -9.241989    2.973967
 112 H     1.0000    0     1.008    6.605830   -5.561519    7.845773
 113 H     1.0000    0     1.008    4.486083   -8.139963    7.430940
 114 H     1.0000    0     1.008    7.645458   -8.359241    6.306198

--------------------------------
INTERNAL COORDINATES (ANGSTROEM)
--------------------------------
 O      0   0   0     0.000000000000     0.00000000     0.00000000
 C      1   0   0     1.228884250523     0.00000000     0.00000000
 C      2   1   0     1.536982532039   120.89043392     0.00000000
 C      3   2   1     1.542510788787   113.21728116   266.57029088
 C      4   3   2     1.536155114553   103.90537908   263.92263648
 C      5   4   3     1.532583951465   103.61001834   323.27173368
 N      3   2   1     1.471145264582   112.70451646   149.53008018
 C      7   3   2     1.360394055311   118.44178516   298.99668854
 O      8   7   3     1.238765271490   120.78242288     0.13704721
 N      2   1   3     1.370464785542   123.57494445   182.88012438
 C     10   2   1     1.464960333398   120.02875924   340.63362669
 C     11  10   2     1.531220253006   102.83903132   260.69357604
 N     12  11  10     1.359559448736   116.90376446    96.02940108
 C     13  12  11     1.473821535112   121.45529567   204.70762867
 C     14  13  12     1.534336690622   111.86623513   313.51090435
 N     15  14  13     1.362352456105   115.00032954   303.80186402
 C     16  15  14     1.459213454764   121.64274866   160.79848263
 C     17  16  15     1.552012605125   110.26321517   263.61962632
 C     18  17  16     1.549896111569   114.24928040   134.71903782
 C     19  18  17     1.528964607881   110.13905319   312.91407869
 N     20  19  18     1.357266926425   116.42862804   279.17963743
 C     21  20  19     1.461734627979   119.89184023   167.14102857
 C     22  21  20     1.534232741816   111.14197367   214.77976892
 N     23  22  21     1.358236031540   114.29632684   125.72846588
 C     24  23  22     1.460484518335   121.47963163   159.07575294
 C     25  24  23     1.528177451365   109.35372919   199.86383115
 O     23  22  21     1.238672784294   121.96619728   297.10289864
 C     22  21  20     1.544997095853   112.26149104    96.45878783
 C     28  22  21     1.535840788913   116.05385221   294.07989609
 C     29  28  22     1.530868725347   111.89663932   291.20016665
 C     29  28  22     1.533159160529   109.57923681   167.69433958
 O     20  19  18     1.236608696091   120.08792752    97.23081491
 C     19  18  17     1.530183815062   113.44690646    74.69066446
 C     33  19  18     1.514585606606   116.15148835   172.00814348
 C     34  33  19     1.529215619557   114.90374234   160.99009249
 C     35  34  33     1.535236857725   114.03700911   288.78230900
 C     36  35  34     1.536841964539   115.24827027   302.58361407
 C     37  36  35     1.536107242477   117.58155293   306.34542226
 C     38  37  36     1.538490334825   116.27699064   292.35565360
 C     39  38  37     1.532425084039   115.76846787    84.11108680
 C     40  39  38     1.530853196759   113.13732376   176.96295243
 C     41  40  39     1.529857214302   113.08061497   180.50580527
 O     33  19  18     1.224895834424   121.23198376   356.27748036
 O     18  17  16     1.426934010460   112.47136577   262.98573532
 O     15  14  13     1.236074238835   120.81575128   127.92626769
 C     14  13  12     1.533801637365   109.52336525   188.15677398
 C     46  14  13     1.528047700981   112.36814025   183.44974651
 O     12  11  10     1.236674436010   120.18777248   281.07382074
 C     11  10   2     1.532858258370   113.27830797   138.86248100
 C     49  11  10     1.532184790736   109.82367459   178.94302938
 C     49  11  10     1.530373646829   110.70564102   302.51732717
 H      3   2   1     1.097667479687   104.60825917    29.48868476
 H      4   3   2     1.099766465910   109.25182703   146.07941437
 H      4   3   2     1.096725288506   111.75437511    26.88426454
 H      5   4   3     1.099812321984   110.37003059    80.66038279
 H      5   4   3     1.097205264726   113.04534655   201.50291448
 H      6   5   4     1.096441681172   112.77966877   150.76827995
 H      6   5   4     1.103276152830   111.08114111   274.46926095
 H     10   2   1     1.022676441888   117.39068301   192.41919341
 H     11  10   2     1.100442000813   106.03365520    17.94040682
 H     13  12  11     1.019443046765   115.77217894   353.08555116
 H     14  13  12     1.100141853763   107.85875605    69.49705315
 H     16  15  14     1.018713045095   115.43067903    11.17571319
 H     17  16  15     1.097869750033   110.03641273   142.95810933
 H     17  16  15     1.096061342815   106.84964244    25.85254260
 H     18  17  16     1.097140125900   106.57474611    18.11446290
 H     19  18  17     1.104369211100   107.39327633   193.12560007
 H     21  20  19     1.019522001368   118.73793687    13.68715603
 H     22  21  20     1.098373826372   106.94520877   335.11905830
 H     24  23  22     1.025730001086   117.29912762   327.03908710
 H     25  24  23     1.098202773819   106.21151420   318.48040545
 H     26  25  24     1.097812198614   110.16409223    56.04372826
 H     26  25  24     1.098166264916   110.48491136   176.27106307
 H     26  25  24     1.098053125004   110.01474416   295.36783424
 H     28  22  21     1.104862715841   108.00617915   171.92248411
 H     28  22  21     1.100757844885   106.85459234    57.64342954
 H     29  28  22     1.102602218606   108.16916102    50.18542555
 H     30  29  28     1.097124297659   111.36999531    61.41434832
 H     30  29  28     1.099624149123   110.81013209   180.84138671
 H     30  29  28     1.102394569080   110.49986774   300.15654140
 H     31  29  28     1.100171032723   111.48902014   301.41926159
 H     31  29  28     1.101992104868   110.90013424    61.51870732
 H     31  29  28     1.099882486022   110.93322597   181.04966502
 H     34  33  19     1.099913912407   109.22344916    34.24827301
 H     34  33  19     1.107234987645   104.66853118   281.74216199
 H     35  34  33     1.100334621681   108.30769503   166.02918663
 H     35  34  33     1.100136428804   108.60886069    50.60199699
 H     36  35  34     1.101631586694   108.24230942   178.60900350
 H     36  35  34     1.101095609233   108.81247411    63.92241637
 H     37  36  35     1.103387467061   108.09825837   183.35795353
 H     37  36  35     1.099819903000   108.19747562    70.01547995
 H     38  37  36     1.102296749725   106.91256176   171.34912813
 H     38  37  36     1.104400010166   110.33719788    57.38884484
 H     39  38  37     1.104701796088   109.01205317   320.36472252
 H     39  38  37     1.103655840179   108.80875717   205.51089167
 H     40  39  38     1.104948163074   109.00476133    55.36474869
 H     40  39  38     1.101345180746   110.44575451   299.29911513
 H     41  40  39     1.103445622140   109.07649334    58.25582064
 H     41  40  39     1.103604061609   109.16635400   302.93227488
 H     42  41  40     1.099524343480   111.70051899   179.98764722
 H     42  41  40     1.100725804715   111.06530957   300.24156711
 H     42  41  40     1.100835244774   111.07189784    59.73501643
 H     44  18  17     0.980516326154   104.68746113   291.83102995
 H     46  14  13     1.102385428976   109.58406067    60.38028351
 H     46  14  13     1.102917065604   107.78759911   304.46645426
 H     47  46  14     1.098150183429   110.70631701   178.25401745
 H     47  46  14     1.098776227744   111.36543815   298.45896058
 H     47  46  14     1.099205855884   110.89040084    58.32668040
 H     49  11  10     1.103226734371   106.93953372    61.26683420
 H     50  49  11     1.098999961278   112.29199770   300.96298974
 H     50  49  11     1.101455519196   110.69513394    61.77352102
 H     50  49  11     1.098577651963   110.75495713   181.02165515
 H     51  49  11     1.098178856826   111.39104936    57.00082232
 H     51  49  11     1.099048463951   110.55433191   177.35122778
 H     51  49  11     1.101009576755   110.86282011   296.93314595

---------------------------
INTERNAL COORDINATES (A.U.)
---------------------------
 O      0   0   0     0.000000000000     0.00000000     0.00000000
 C      1   0   0     2.322254683778     0.00000000     0.00000000
 C      2   1   0     2.904476058175   120.89043392     0.00000000
 C      3   2   1     2.914922949426   113.21728116   266.57029088
 C      4   3   2     2.902912465727   103.90537908   263.92263648
 C      5   4   3     2.896163945512   103.61001834   323.27173368
 N      3   2   1     2.780061653275   112.70451646   149.53008018
 C      7   3   2     2.570772198752   118.44178516   298.99668854
 O      8   7   3     2.340927107328   120.78242288     0.13704721
 N      2   1   3     2.589803120857   123.57494445   182.88012438
 C     10   2   1     2.768373827181   120.02875924   340.63362669
 C     11  10   2     2.893586928895   102.83903132   260.69357604
 N     12  11  10     2.569195020896   116.90376446    96.02940108
 C     13  12  11     2.785119071638   121.45529567   204.70762867
 C     14  13  12     2.899476142503   111.86623513   313.51090435
 N     15  14  13     2.574473039914   115.00032954   303.80186402
 C     16  15  14     2.757513800438   121.64274866   160.79848263
 C     17  16  15     2.932878780080   110.26321517   263.61962632
 C     18  17  16     2.928879186894   114.24928040   134.71903782
 C     19  18  17     2.889324377353   110.13905319   312.91407869
 N     20  19  18     2.564862781573   116.42862804   279.17963743
 C     21  20  19     2.762278127350   119.89184023   167.14102857
 C     22  21  20     2.899279707728   111.14197367   214.77976892
 N     23  22  21     2.566694124835   114.29632684   125.72846588
 C     24  23  22     2.759915762484   121.47963163   159.07575294
 C     25  24  23     2.887836867114   109.35372919   199.86383115
 O     23  22  21     2.340752331857   121.96619728   297.10289864
 C     22  21  20     2.919621388866   112.26149104    96.45878783
 C     28  22  21     2.902318476352   116.05385221   294.07989609
 C     29  28  22     2.892922637892   111.89663932   291.20016665
 C     29  28  22     2.897250933112   109.57923681   167.69433958
 O     20  19  18     2.336851770437   120.08792752    97.23081491
 C     19  18  17     2.891628345027   113.44690646    74.69066446
 C     33  19  18     2.862152002864   116.15148835   172.00814348
 C     34  33  19     2.889798720677   114.90374234   160.99009249
 C     35  34  33     2.901177211803   114.03700911   288.78230900
 C     36  35  34     2.904210424096   115.24827027   302.58361407
 C     37  36  35     2.902822000614   117.58155293   306.34542226
 C     38  37  36     2.907325392505   116.27699064   292.35565360
 C     39  38  37     2.895863729586   115.76846787    84.11108680
 C     40  39  38     2.892893293113   113.13732376   176.96295243
 C     41  40  39     2.891011159034   113.08061497   180.50580527
 O     33  19  18     2.314717669643   121.23198376   356.27748036
 O     18  17  16     2.696514490947   112.47136577   262.98573532
 O     15  14  13     2.335841792594   120.81575128   127.92626769
 C     14  13  12     2.898465038380   109.52336525   188.15677398
 C     46  14  13     2.887591674423   112.36814025   183.44974651
 O     12  11  10     2.336976000880   120.18777248   281.07382074
 C     11  10   2     2.896682310439   113.27830797   138.86248100
 C     49  11  10     2.895409641050   109.82367459   178.94302938
 C     49  11  10     2.891987075078   110.70564102   302.51732717
 H      3   2   1     2.074290922720   104.60825917    29.48868476
 H      4   3   2     2.078257431841   109.25182703   146.07941437
 H      4   3   2     2.072510439423   111.75437511    26.88426454
 H      5   4   3     2.078344087261   110.37003059    80.66038279
 H      5   4   3     2.073417463029   113.04534655   201.50291448
 H      6   5   4     2.071974499231   112.77966877   150.76827995
 H      6   5   4     2.084889778936   111.08114111   274.46926095
 H     10   2   1     1.932578398781   117.39068301   192.41919341
[...]
freq.      89.74  E(vib)   ...       0.47 
freq.      91.40  E(vib)   ...       0.47 
freq.      97.86  E(vib)   ...       0.46 
freq.      99.41  E(vib)   ...       0.46 
freq.     111.05  E(vib)   ...       0.45 
freq.     114.99  E(vib)   ...       0.44 
freq.     117.20  E(vib)   ...       0.44 
freq.     121.45  E(vib)   ...       0.44 
freq.     131.19  E(vib)   ...       0.42 
freq.     133.92  E(vib)   ...       0.42 
freq.     135.21  E(vib)   ...       0.42 
freq.     145.49  E(vib)   ...       0.41 
freq.     147.52  E(vib)   ...       0.41 
freq.     155.81  E(vib)   ...       0.40 
freq.     157.50  E(vib)   ...       0.40 
freq.     166.70  E(vib)   ...       0.39 
freq.     169.40  E(vib)   ...       0.38 
freq.     177.28  E(vib)   ...       0.37 
freq.     184.88  E(vib)   ...       0.37 
freq.     199.22  E(vib)   ...       0.35 
freq.     203.20  E(vib)   ...       0.35 
freq.     205.80  E(vib)   ...       0.35 
freq.     208.44  E(vib)   ...       0.34 
freq.     213.47  E(vib)   ...       0.34 
freq.     221.10  E(vib)   ...       0.33 
freq.     221.70  E(vib)   ...       0.33 
freq.     231.00  E(vib)   ...       0.32 
freq.     233.29  E(vib)   ...       0.32 
freq.     236.52  E(vib)   ...       0.32 
freq.     237.22  E(vib)   ...       0.32 
freq.     238.71  E(vib)   ...       0.32 
freq.     241.55  E(vib)   ...       0.31 
freq.     249.38  E(vib)   ...       0.31 
freq.     256.33  E(vib)   ...       0.30 
freq.     267.98  E(vib)   ...       0.29 
freq.     269.70  E(vib)   ...       0.29 
freq.     278.25  E(vib)   ...       0.28 
freq.     282.75  E(vib)   ...       0.28 
freq.     294.78  E(vib)   ...       0.27 
freq.     298.04  E(vib)   ...       0.27 
freq.     300.24  E(vib)   ...       0.26 
freq.     307.97  E(vib)   ...       0.26 
freq.     315.45  E(vib)   ...       0.25 
freq.     317.80  E(vib)   ...       0.25 
freq.     329.73  E(vib)   ...       0.24 
freq.     339.13  E(vib)   ...       0.23 
freq.     347.55  E(vib)   ...       0.23 
freq.     363.06  E(vib)   ...       0.22 
freq.     366.31  E(vib)   ...       0.22 
freq.     370.69  E(vib)   ...       0.21 
freq.     383.85  E(vib)   ...       0.20 
freq.     384.19  E(vib)   ...       0.20 
freq.     386.28  E(vib)   ...       0.20 
freq.     400.35  E(vib)   ...       0.19 
freq.     402.73  E(vib)   ...       0.19 
freq.     408.25  E(vib)   ...       0.19 
freq.     422.30  E(vib)   ...       0.18 
freq.     428.51  E(vib)   ...       0.18 
freq.     433.13  E(vib)   ...       0.17 
freq.     444.91  E(vib)   ...       0.17 
freq.     454.47  E(vib)   ...       0.16 
freq.     462.17  E(vib)   ...       0.16 
freq.     480.36  E(vib)   ...       0.15 
freq.     496.74  E(vib)   ...       0.14 
freq.     519.27  E(vib)   ...       0.13 
freq.     532.93  E(vib)   ...       0.13 
freq.     547.50  E(vib)   ...       0.12 
freq.     554.56  E(vib)   ...       0.12 
freq.     562.91  E(vib)   ...       0.11 
freq.     574.38  E(vib)   ...       0.11 
freq.     582.39  E(vib)   ...       0.11 
freq.     592.15  E(vib)   ...       0.10 
freq.     600.85  E(vib)   ...       0.10 
freq.     620.51  E(vib)   ...       0.09 
freq.     633.34  E(vib)   ...       0.09 
freq.     642.44  E(vib)   ...       0.09 
freq.     664.37  E(vib)   ...       0.08 
freq.     680.71  E(vib)   ...       0.08 
freq.     682.18  E(vib)   ...       0.08 
freq.     686.96  E(vib)   ...       0.07 
freq.     701.38  E(vib)   ...       0.07 
freq.     708.96  E(vib)   ...       0.07 
freq.     712.00  E(vib)   ...       0.07 
freq.     729.51  E(vib)   ...       0.06 
freq.     732.20  E(vib)   ...       0.06 
freq.     736.89  E(vib)   ...       0.06 
freq.     740.76  E(vib)   ...       0.06 
freq.     756.60  E(vib)   ...       0.06 
freq.     765.49  E(vib)   ...       0.06 
freq.     767.19  E(vib)   ...       0.06 
freq.     773.36  E(vib)   ...       0.05 
freq.     778.00  E(vib)   ...       0.05 
freq.     784.52  E(vib)   ...       0.05 
freq.     799.98  E(vib)   ...       0.05 
freq.     806.82  E(vib)   ...       0.05 
freq.     820.05  E(vib)   ...       0.05 
freq.     821.47  E(vib)   ...       0.05 
freq.     833.47  E(vib)   ...       0.04 
freq.     836.21  E(vib)   ...       0.04 
freq.     845.30  E(vib)   ...       0.04 
freq.     855.78  E(vib)   ...       0.04 
freq.     856.92  E(vib)   ...       0.04 
freq.     876.12  E(vib)   ...       0.04 
freq.     882.37  E(vib)   ...       0.04 
freq.     890.74  E(vib)   ...       0.04 
freq.     896.92  E(vib)   ...       0.03 
freq.     898.52  E(vib)   ...       0.03 
freq.     900.71  E(vib)   ...       0.03 
freq.     904.84  E(vib)   ...       0.03 
freq.     905.66  E(vib)   ...       0.03 
freq.     907.07  E(vib)   ...       0.03 
freq.     921.61  E(vib)   ...       0.03 
freq.     922.91  E(vib)   ...       0.03 
freq.     926.67  E(vib)   ...       0.03 
freq.     934.15  E(vib)   ...       0.03 
freq.     937.71  E(vib)   ...       0.03 
freq.     943.10  E(vib)   ...       0.03 
freq.     944.57  E(vib)   ...       0.03 
freq.     946.06  E(vib)   ...       0.03 
freq.     956.08  E(vib)   ...       0.03 
freq.     958.45  E(vib)   ...       0.03 
freq.     973.69  E(vib)   ...       0.03 
freq.     976.34  E(vib)   ...       0.03 
freq.     983.34  E(vib)   ...       0.02 
freq.     990.86  E(vib)   ...       0.02 
freq.     994.05  E(vib)   ...       0.02 
freq.     998.29  E(vib)   ...       0.02 
freq.    1008.35  E(vib)   ...       0.02 
freq.    1014.68  E(vib)   ...       0.02 
freq.    1020.32  E(vib)   ...       0.02 
freq.    1023.93  E(vib)   ...       0.02 
freq.    1027.64  E(vib)   ...       0.02 
freq.    1028.87  E(vib)   ...       0.02 
freq.    1041.25  E(vib)   ...       0.02 
freq.    1054.91  E(vib)   ...       0.02 
freq.    1057.03  E(vib)   ...       0.02 
freq.    1064.74  E(vib)   ...       0.02 
freq.    1072.54  E(vib)   ...       0.02 
freq.    1073.67  E(vib)   ...       0.02 
freq.    1077.34  E(vib)   ...       0.02 
freq.    1085.77  E(vib)   ...       0.02 
freq.    1091.70  E(vib)   ...       0.02 
freq.    1095.09  E(vib)   ...       0.02 
freq.    1103.04  E(vib)   ...       0.02 
freq.    1104.09  E(vib)   ...       0.02 
freq.    1104.55  E(vib)   ...       0.02 
freq.    1107.45  E(vib)   ...       0.02 
freq.    1117.43  E(vib)   ...       0.01 
freq.    1124.89  E(vib)   ...       0.01 
freq.    1132.76  E(vib)   ...       0.01 
freq.    1136.16  E(vib)   ...       0.01 
freq.    1139.80  E(vib)   ...       0.01 
freq.    1146.38  E(vib)   ...       0.01 
freq.    1151.94  E(vib)   ...       0.01 
freq.    1156.81  E(vib)   ...       0.01 
freq.    1157.83  E(vib)   ...       0.01 
freq.    1162.10  E(vib)   ...       0.01 
freq.    1165.15  E(vib)   ...       0.01 
freq.    1166.71  E(vib)   ...       0.01 
freq.    1170.49  E(vib)   ...       0.01 
freq.    1182.51  E(vib)   ...       0.01 
freq.    1193.41  E(vib)   ...       0.01 
freq.    1194.69  E(vib)   ...       0.01 
freq.    1204.34  E(vib)   ...       0.01 
freq.    1208.32  E(vib)   ...       0.01 
freq.    1218.98  E(vib)   ...       0.01 
freq.    1221.80  E(vib)   ...       0.01 
freq.    1227.93  E(vib)   ...       0.01 
freq.    1234.82  E(vib)   ...       0.01 
freq.    1237.09  E(vib)   ...       0.01 
freq.    1237.36  E(vib)   ...       0.01 
freq.    1250.11  E(vib)   ...       0.01 
freq.    1253.08  E(vib)   ...       0.01 
freq.    1260.34  E(vib)   ...       0.01 
freq.    1261.39  E(vib)   ...       0.01 
freq.    1269.26  E(vib)   ...       0.01 
freq.    1270.65  E(vib)   ...       0.01 
freq.    1275.36  E(vib)   ...       0.01 
freq.    1278.63  E(vib)   ...       0.01 
freq.    1282.02  E(vib)   ...       0.01 
freq.    1283.94  E(vib)   ...       0.01 
freq.    1288.69  E(vib)   ...       0.01 
freq.    1290.66  E(vib)   ...       0.01 
freq.    1292.42  E(vib)   ...       0.01 
freq.    1293.23  E(vib)   ...       0.01 
freq.    1296.92  E(vib)   ...       0.01 
freq.    1297.82  E(vib)   ...       0.01 
freq.    1307.69  E(vib)   ...       0.01 
freq.    1308.41  E(vib)   ...       0.01 
freq.    1312.50  E(vib)   ...       0.01 
freq.    1315.87  E(vib)   ...       0.01 
freq.    1317.56  E(vib)   ...       0.01 
freq.    1321.99  E(vib)   ...       0.01 
freq.    1325.38  E(vib)   ...       0.01 
freq.    1326.94  E(vib)   ...       0.01 
freq.    1328.84  E(vib)   ...       0.01 
freq.    1331.27  E(vib)   ...       0.01 
freq.    1334.57  E(vib)   ...       0.01 
freq.    1337.86  E(vib)   ...       0.01 
freq.    1344.29  E(vib)   ...       0.01 
freq.    1344.62  E(vib)   ...       0.01 
freq.    1345.17  E(vib)   ...       0.01 
freq.    1348.37  E(vib)   ...       0.01 
freq.    1348.83  E(vib)   ...       0.01 
freq.    1351.47  E(vib)   ...       0.01 
freq.    1353.77  E(vib)   ...       0.01 
freq.    1355.56  E(vib)   ...       0.01 
freq.    1361.88  E(vib)   ...       0.01 
freq.    1363.67  E(vib)   ...       0.01 
freq.    1366.04  E(vib)   ...       0.01 
freq.    1367.80  E(vib)   ...       0.01 
freq.    1371.49  E(vib)   ...       0.01 
freq.    1373.20  E(vib)   ...       0.01 
freq.    1389.43  E(vib)   ...       0.00 
freq.    1400.55  E(vib)   ...       0.00 
freq.    1402.58  E(vib)   ...       0.00 
freq.    1420.38  E(vib)   ...       0.00 
freq.    1425.22  E(vib)   ...       0.00 
freq.    1431.64  E(vib)   ...       0.00 
freq.    1434.59  E(vib)   ...       0.00 
freq.    1435.90  E(vib)   ...       0.00 
freq.    1437.29  E(vib)   ...       0.00 
freq.    1438.86  E(vib)   ...       0.00 
freq.    1440.44  E(vib)   ...       0.00 
freq.    1440.84  E(vib)   ...       0.00 
freq.    1441.66  E(vib)   ...       0.00 
freq.    1441.97  E(vib)   ...       0.00 
freq.    1443.20  E(vib)   ...       0.00 
freq.    1445.00  E(vib)   ...       0.00 
freq.    1446.04  E(vib)   ...       0.00 
freq.    1449.82  E(vib)   ...       0.00 
freq.    1450.77  E(vib)   ...       0.00 
freq.    1450.94  E(vib)   ...       0.00 
freq.    1451.93  E(vib)   ...       0.00 
freq.    1452.02  E(vib)   ...       0.00 
freq.    1452.72  E(vib)   ...       0.00 
freq.    1454.72  E(vib)   ...       0.00 
freq.    1454.99  E(vib)   ...       0.00 
freq.    1456.02  E(vib)   ...       0.00 
freq.    1462.31  E(vib)   ...       0.00 
freq.    1462.53  E(vib)   ...       0.00 
freq.    1466.32  E(vib)   ...       0.00 
freq.    1468.11  E(vib)   ...       0.00 
freq.    1473.97  E(vib)   ...       0.00 
freq.    1482.53  E(vib)   ...       0.00 
freq.    1484.12  E(vib)   ...       0.00 
freq.    1496.88  E(vib)   ...       0.00 
freq.    1498.67  E(vib)   ...       0.00 
freq.    1636.80  E(vib)   ...       0.00 
freq.    1639.91  E(vib)   ...       0.00 
freq.    1658.52  E(vib)   ...       0.00 
freq.    1665.24  E(vib)   ...       0.00 
freq.    1674.86  E(vib)   ...       0.00 
freq.    1687.66  E(vib)   ...       0.00 
freq.    1697.07  E(vib)   ...       0.00 
freq.    2925.42  E(vib)   ...       0.00 
freq.    2926.92  E(vib)   ...       0.00 
freq.    2931.14  E(vib)   ...       0.00 
freq.    2933.54  E(vib)   ...       0.00 
freq.    2935.47  E(vib)   ...       0.00 
freq.    2937.99  E(vib)   ...       0.00 
freq.    2940.88  E(vib)   ...       0.00 
freq.    2946.47  E(vib)   ...       0.00 
freq.    2946.96  E(vib)   ...       0.00 
freq.    2948.54  E(vib)   ...       0.00 
freq.    2949.66  E(vib)   ...       0.00 
freq.    2951.70  E(vib)   ...       0.00 
freq.    2951.94  E(vib)   ...       0.00 
freq.    2955.84  E(vib)   ...       0.00 
freq.    2959.86  E(vib)   ...       0.00 
freq.    2960.13  E(vib)   ...       0.00 
freq.    2961.41  E(vib)   ...       0.00 
freq.    2962.94  E(vib)   ...       0.00 
freq.    2964.47  E(vib)   ...       0.00 
freq.    2964.77  E(vib)   ...       0.00 
freq.    2973.37  E(vib)   ...       0.00 
freq.    2974.00  E(vib)   ...       0.00 
freq.    2975.00  E(vib)   ...       0.00 
freq.    2977.10  E(vib)   ...       0.00 
freq.    2978.61  E(vib)   ...       0.00 
freq.    2983.53  E(vib)   ...       0.00 
freq.    2990.59  E(vib)   ...       0.00 
freq.    2992.04  E(vib)   ...       0.00 
freq.    2995.40  E(vib)   ...       0.00 
freq.    2996.65  E(vib)   ...       0.00 
freq.    2996.78  E(vib)   ...       0.00 
freq.    2997.65  E(vib)   ...       0.00 
freq.    3002.86  E(vib)   ...       0.00 
freq.    3003.98  E(vib)   ...       0.00 
freq.    3007.30  E(vib)   ...       0.00 
freq.    3012.62  E(vib)   ...       0.00 
freq.    3013.23  E(vib)   ...       0.00 
freq.    3016.98  E(vib)   ...       0.00 
freq.    3018.47  E(vib)   ...       0.00 
freq.    3019.75  E(vib)   ...       0.00 
freq.    3020.23  E(vib)   ...       0.00 
freq.    3020.32  E(vib)   ...       0.00 
freq.    3023.84  E(vib)   ...       0.00 
freq.    3025.55  E(vib)   ...       0.00 
freq.    3025.91  E(vib)   ...       0.00 
freq.    3026.50  E(vib)   ...       0.00 
freq.    3030.31  E(vib)   ...       0.00 
freq.    3038.76  E(vib)   ...       0.00 
freq.    3041.43  E(vib)   ...       0.00 
freq.    3041.67  E(vib)   ...       0.00 
freq.    3043.09  E(vib)   ...       0.00 
freq.    3043.40  E(vib)   ...       0.00 
freq.    3045.97  E(vib)   ...       0.00 
freq.    3050.00  E(vib)   ...       0.00 
freq.    3052.79  E(vib)   ...       0.00 
freq.    3053.69  E(vib)   ...       0.00 
freq.    3059.58  E(vib)   ...       0.00 
freq.    3064.30  E(vib)   ...       0.00 
freq.    3367.64  E(vib)   ...       0.00 
freq.    3414.09  E(vib)   ...       0.00 
freq.    3462.56  E(vib)   ...       0.00 
freq.    3466.15  E(vib)   ...       0.00 
freq.    3468.79  E(vib)   ...       0.00 
freq.    3555.42  E(vib)   ...       0.00 

------------
INNER ENERGY
------------

The inner energy is: U= E(el) + E(ZPE) + E(vib) + E(rot) + E(trans)
    E(el)   - is the total energy from the electronic structure calculation
              = E(kin-el) + E(nuc-el) + E(el-el) + E(nuc-nuc)
    E(ZPE)  - the the zero temperature vibrational energy from the frequency calculation
    E(vib)  - the the finite temperature correction to E(ZPE) due to population
              of excited vibrational states
    E(rot)  - is the rotational thermal energy
    E(trans)- is the translational thermal energy

Summary of contributions to the inner energy U:
Electronic energy                ...  -2380.07880486 Eh
Zero point energy                ...      0.97887557 Eh     614.25 kcal/mol
Thermal vibrational correction   ...      0.05516568 Eh      34.62 kcal/mol
Thermal rotational correction    ...      0.00141627 Eh       0.89 kcal/mol
Thermal translational correction ...      0.00141627 Eh       0.89 kcal/mol
-----------------------------------------------------------------------
Total thermal energy                  -2379.04193106 Eh


Summary of corrections to the electronic energy:
(perhaps to be used in another calculation)
Total thermal correction                  0.05799822 Eh      36.39 kcal/mol
Non-thermal (ZPE) correction              0.97887557 Eh     614.25 kcal/mol
-----------------------------------------------------------------------
Total correction                          1.03687379 Eh     650.65 kcal/mol


--------
ENTHALPY
--------

The enthalpy is H = U + kB*T
                kB is Boltzmann's constant
Total free energy                 ...  -2379.04193106 Eh 
Thermal Enthalpy correction       ...      0.00094421 Eh       0.59 kcal/mol
-----------------------------------------------------------------------
Total Enthalpy                    ...  -2379.04098686 Eh


Note: Only C1 symmetry has been detected, increase convergence thresholds 
      if your molecule has a higher symmetry. Symmetry factor of 1.0 is   
      used for the rotational entropy correction. 
 

Note: Rotational entropy computed according to Herzberg 
Infrared and Raman Spectra, Chapter V,1, Van Nostrand Reinhold, 1945 
Point Group:  C1, Symmetry Number:   1  
Rotational constants in cm-1:     0.003230     0.001025     0.000950 

Vibrational entropy computed according to the QRRHO of S. Grimme
Chem.Eur.J. 2012 18 9955


-------
ENTROPY
-------

The entropy contributions are T*S = T*(S(el)+S(vib)+S(rot)+S(trans))
     S(el)   - electronic entropy
     S(vib)  - vibrational entropy
     S(rot)  - rotational entropy
     S(trans)- translational entropy
The entropies will be listed as mutliplied by the temperature to get
units of energy

Electronic entropy                ...      0.00000000 Eh      0.00 kcal/mol
Vibrational entropy               ...      0.10091802 Eh     63.33 kcal/mol
Rotational entropy                ...      0.01875295 Eh     11.77 kcal/mol
Translational entropy             ...      0.02166895 Eh     13.60 kcal/mol
-----------------------------------------------------------------------
Final entropy term                ...      0.14133993 Eh     88.69 kcal/mol

In case the symmetry of your molecule has not been determined correctly
or in case you have a reason to use a different symmetry number we print 
out the resulting rotational entropy values for sn=1,12 :
 --------------------------------------------------------
|  sn= 1 | S(rot)=       0.01875295 Eh     11.77 kcal/mol|
|  sn= 2 | S(rot)=       0.01809850 Eh     11.36 kcal/mol|
|  sn= 3 | S(rot)=       0.01771566 Eh     11.12 kcal/mol|
|  sn= 4 | S(rot)=       0.01744404 Eh     10.95 kcal/mol|
|  sn= 5 | S(rot)=       0.01723335 Eh     10.81 kcal/mol|
|  sn= 6 | S(rot)=       0.01706121 Eh     10.71 kcal/mol|
|  sn= 7 | S(rot)=       0.01691566 Eh     10.61 kcal/mol|
|  sn= 8 | S(rot)=       0.01678958 Eh     10.54 kcal/mol|
|  sn= 9 | S(rot)=       0.01667837 Eh     10.47 kcal/mol|
|  sn=10 | S(rot)=       0.01657890 Eh     10.40 kcal/mol|
|  sn=11 | S(rot)=       0.01648891 Eh     10.35 kcal/mol|
|  sn=12 | S(rot)=       0.01640675 Eh     10.30 kcal/mol|
 --------------------------------------------------------


-------------------
GIBBS FREE ENERGY
-------------------

The Gibbs free energy is G = H - T*S

Total enthalpy                    ...  -2379.04098686 Eh 
Total entropy correction          ...     -0.14133993 Eh    -88.69 kcal/mol
-----------------------------------------------------------------------
Final Gibbs free energy         ...  -2379.18232678 Eh

For completeness - the Gibbs free energy minus the electronic energy
G-E(el)                           ...      0.89647808 Eh    562.55 kcal/mol

--------------------------------------------------------------------------
WARNING: No preset parameters were found for the device that Open MPI
detected:

  Local host:            eu-g1-044-3
  Device name:           mlx5_0
  Device vendor ID:      0x02c9
  Device vendor part ID: 4123

Default device parameters will be used, which may result in lower
performance.  You can edit any of the files specified by the
btl_openib_device_param_files MCA parameter to set values for your
device.

NOTE: You can turn off this warning by setting the MCA parameter
      btl_openib_warn_no_device_params_found to 0.
--------------------------------------------------------------------------
--------------------------------------------------------------------------
WARNING: There was an error initializing an OpenFabrics device.

  Local host:   eu-g1-044-3
  Local device: mlx5_0
--------------------------------------------------------------------------

Timings for individual modules:

Sum of individual times         ...    36884.116 sec (= 614.735 min)
GTO integral calculation        ...       32.918 sec (=   0.549 min)   0.1 %
SCF iterations                  ...      970.440 sec (=  16.174 min)   2.6 %
SCF Gradient evaluation         ...      328.295 sec (=   5.472 min)   0.9 %
Geometry relaxation             ...       12.379 sec (=   0.206 min)   0.0 %
Analytical frequency calculation...    35540.083 sec (= 592.335 min)  96.4 %
                             ****ORCA TERMINATED NORMALLY****
TOTAL RUN TIME: 0 days 10 hours 15 minutes 6 seconds 878 msec
