
                                 *****************
                                 * O   R   C   A *
                                 *****************

           --- An Ab Initio, DFT and Semiempirical electronic structure package ---

                  #######################################################
                  #                        -***-                        #
                  #          Department of theory and spectroscopy      #
                  #               Directorship: Frank Neese             #
                  #        Max Planck Institute fuer Kohlenforschung    #
                  #                Kaiser Wilhelm Platz 1               #
                  #                 D-45470 Muelheim/Ruhr               #
                  #                      Germany                        #
                  #                                                     #
                  #                  All rights reserved                #
                  #                        -***-                        #
                  #######################################################


                         Program Version 4.2.0 -  RELEASE  -


 With contributions from (in alphabetic order):
   Daniel Aravena         : Magnetic Suceptibility
   Michael Atanasov       : Ab Initio Ligand Field Theory (pilot matlab implementation)
   Alexander A. Auer      : GIAO ZORA, VPT2
   Ute Becker             : Parallelization
   Giovanni Bistoni       : ED, misc. LED, open-shell LED, HFLED
   Martin Brehm           : Molecular dynamics
   Dmytro Bykov           : SCF Hessian
   Vijay G. Chilkuri      : MRCI spin determinant printing, contributions to CSF-ICE
   Dipayan Datta          : RHF DLPNO-CCSD density
   Achintya Kumar Dutta   : EOM-CC, STEOM-CC
   Dmitry Ganyushin       : Spin-Orbit,Spin-Spin,Magnetic field MRCI
   Miquel Garcia          : C-PCM Hessian, Gaussian charge scheme
   Yang Guo               : DLPNO-NEVPT2, CIM, IAO-localization
   Andreas Hansen         : Spin unrestricted coupled pair/coupled cluster methods
   Benjamin Helmich-Paris : CASSCF linear response (MC-RPA)
   Lee Huntington         : MR-EOM, pCC
   Robert Izsak           : Overlap fitted RIJCOSX, COSX-SCS-MP3, EOM
   Christian Kollmar      : KDIIS, OOCD, Brueckner-CCSD(T), CCSD density
   Simone Kossmann        : Meta GGA functionals, TD-DFT gradient, OOMP2, MP2 Hessian
   Martin Krupicka        : AUTO-CI
   Lucas Lang             : DCDCAS
   Dagmar Lenk            : GEPOL surface, SMD
   Dimitrios Liakos       : Extrapolation schemes; Compound Job, initial MDCI parallelization
   Dimitrios Manganas     : Further ROCIS development; embedding schemes
   Dimitrios Pantazis     : SARC Basis sets
   Taras Petrenko         : DFT Hessian,TD-DFT gradient, ASA, ECA, R-Raman, ABS, FL, XAS/XES, NRVS
   Peter Pinski           : DLPNO-MP2, DLPNO-MP2 Gradient
   Christoph Reimann      : Effective Core Potentials
   Marius Retegan         : Local ZFS, SOC
   Christoph Riplinger    : Optimizer, TS searches, QM/MM, DLPNO-CCSD(T), (RO)-DLPNO pert. Triples
   Tobias Risthaus        : Range-separated hybrids, TD-DFT gradient, RPA, STAB
   Michael Roemelt        : Original ROCIS implementation
   Masaaki Saitow         : Open-shell DLPNO-CCSD energy and density
   Barbara Sandhoefer     : DKH picture change effects
   Avijit Sen             : IP-ROCIS
   Kantharuban Sivalingam : CASSCF convergence, NEVPT2, FIC-MRCI
   Bernardo de Souza      : ESD, SOC TD-DFT
   Georgi Stoychev        : AutoAux, RI-MP2 NMR
   Willem Van den Heuvel  : Paramagnetic NMR
   Boris Wezisla          : Elementary symmetry handling
   Frank Wennmohs         : Technical directorship


 We gratefully acknowledge several colleagues who have allowed us to
 interface, adapt or use parts of their codes:
   Stefan Grimme, W. Hujo, H. Kruse,             : VdW corrections, initial TS optimization,
                  C. Bannwarth                     DFT functionals, gCP, sTDA/sTD-DF
   Ed Valeev, F. Pavosevic, A. Kumar             : LibInt (2-el integral package), F12 methods
   Garnet Chan, S. Sharma, J. Yang, R. Olivares  : DMRG
   Ulf Ekstrom                                   : XCFun DFT Library
   Mihaly Kallay                                 : mrcc  (arbitrary order and MRCC methods)
   Andreas Klamt, Michael Diedenhofen            : otool_cosmo (COSMO solvation model)
   Jiri Pittner, Ondrej Demel                    : Mk-CCSD
   Frank Weinhold                                : gennbo (NPA and NBO analysis)
   Christopher J. Cramer and Donald G. Truhlar   : smd solvation model
   Lars Goerigk                                  : TD-DFT with DH, B97 family of functionals
   V. Asgeirsson, H. Jonsson                     : NEB implementation
   FAccTs GmbH                                   : IRC, NEB, NEB-TS, Multilevel, MM, QM/MM, CI optimization
   S Lehtola, MJT Oliveira, MAL Marques          : LibXC Library


 Your calculation uses the libint2 library for the computation of 2-el integrals
 For citations please refer to: http://libint.valeyev.net

 Your ORCA version has been built with support for libXC version: 4.2.3
 For citations please refer to: https://tddft.org/programs/libxc/

 This ORCA versions uses:
   CBLAS   interface :  Fast vector & matrix operations
   LAPACKE interface :  Fast linear algebra routines
   SCALAPACK package :  Parallel linear algebra routines




***************************************
The coordinates will be read from file: 72_old.xyz
***************************************


Your calculation utilizes the atom-pairwise dispersion correction
with the Becke-Johnson damping scheme (D3BJ)
Cite in your paper:
S.Grimme, S.Ehrlich, L.Goerigk, J Comput Chem, (2011), 32, 1456–1465 
S.Grimme, J.Antony, S.Ehrlich and H.Krieg, J.Chem.Phys., 132, (2010), 154104 
   

----- Orbital basis set information -----
Your calculation utilizes the basis: def2-TZVP
   F. Weigend and R. Ahlrichs, Phys. Chem. Chem. Phys. 7, 3297 (2005).

----- AuxJ basis set information -----
Your calculation utilizes the auxiliary basis: def2/J
   F. Weigend, Phys. Chem. Chem. Phys. 8, 1057 (2006).

================================================================================
                                        WARNINGS
                       Please study these warnings very carefully!
================================================================================


WARNING: Geometry Optimization
  ===> : Switching off AutoStart
         For restart on a previous wavefunction, please use MOREAD

INFO   : the flag for use of LIBINT has been found!

================================================================================
                                       INPUT FILE
================================================================================
NAME = 72.inp
|  1> !RI BP86 def2-tzvp def2/J D3BJ TIGHTSCF TightOpt Grid5 FinalGrid6 freq
|  2> %maxcore 4000
|  3> %pal nprocs 24
|  4> end
|  5> * xyzfile 0 1 72_old.xyz 
|  6> 
|  7>                          ****END OF INPUT****
================================================================================

                       *****************************
                       * Geometry Optimization Run *
                       *****************************

Geometry optimization settings:
Update method            Update   .... BFGS
Choice of coordinates    CoordSys .... Z-matrix Internals
Initial Hessian          InHess   .... Almoef's Model

Convergence Tolerances:
Energy Change            TolE     ....  1.0000e-06 Eh
Max. Gradient            TolMAXG  ....  1.0000e-04 Eh/bohr
RMS Gradient             TolRMSG  ....  3.0000e-05 Eh/bohr
Max. Displacement        TolMAXD  ....  1.0000e-03 bohr
RMS Displacement         TolRMSD  ....  6.0000e-04 bohr
Strict Convergence                ....  False
------------------------------------------------------------------------------
                        ORCA OPTIMIZATION COORDINATE SETUP
------------------------------------------------------------------------------

The optimization will be done in new redundant internal coordinates
Making redundant internal coordinates   ...  (new redundants) done
Evaluating the initial hessian          ...  (Almloef) done
Evaluating the coordinates              ...  done
Calculating the B-matrix                .... done
Calculating the G-matrix                .... done
Diagonalizing the G-matrix              .... done
Small eigenvalue found = 2.812e-04
Small eigenvalue found = 1.149e-03
Small eigenvalue found = 2.048e-03
Small eigenvalue found = 3.737e-03
Small eigenvalue found = 5.013e-03
Small eigenvalue found = 6.196e-03
Small eigenvalue found = 6.364e-03
Small eigenvalue found = 7.002e-03
Small eigenvalue found = 9.555e-03
Small eigenvalue found = 1.004e-02
Small eigenvalue found = 1.202e-02
Small eigenvalue found = 1.394e-02
Small eigenvalue found = 1.590e-02
Small eigenvalue found = 1.741e-02
Small eigenvalue found = 1.996e-02
Small eigenvalue found = 2.145e-02
Small eigenvalue found = 2.364e-02
Small eigenvalue found = 2.425e-02
Small eigenvalue found = 2.932e-02
The first mode is                       ....  326
The number of degrees of freedom        ....  339

    -----------------------------------------------------------------
                    Redundant Internal Coordinates


    -----------------------------------------------------------------
         Definition                    Initial Value    Approx d2E/dq
    -----------------------------------------------------------------
      1. B(C   1,O   0)                  1.2310         1.003410   
      2. B(C   2,C   1)                  1.5519         0.344687   
      3. B(C   3,C   2)                  1.5341         0.368050   
      4. B(C   4,C   3)                  1.5392         0.361159   
      5. B(C   5,C   4)                  1.5457         0.352625   
      6. B(N   6,C   5)                  1.4748         0.409829   
      7. B(N   6,C   2)                  1.4662         0.422916   
      8. B(C   7,N   6)                  1.3641         0.615482   
      9. B(O   8,C   7)                  1.2332         0.995478   
     10. B(N   9,C   1)                  1.3692         0.603993   
     11. B(C  10,N   9)                  1.4544         0.441763   
     12. B(C  11,C  10)                  1.5373         0.363736   
     13. B(N  12,C  11)                  1.3715         0.598962   
     14. B(C  13,N  12)                  1.4562         0.438767   
     15. B(C  14,C  13)                  1.5323         0.370396   
     16. B(N  15,C  14)                  1.3640         0.615702   
     17. B(C  16,N  15)                  1.4564         0.438474   
     18. B(C  17,C  16)                  1.5538         0.342305   
     19. B(C  18,C  17)                  1.5473         0.350538   
     20. B(C  19,C  18)                  1.5285         0.375584   
     21. B(N  20,C  19)                  1.3727         0.596415   
     22. B(C  21,N  20)                  1.4638         0.426760   
     23. B(C  22,C  21)                  1.5292         0.374670   
     24. B(N  23,C  22)                  1.3559         0.634312   
     25. B(C  24,N  23)                  1.4566         0.438077   
     26. B(C  24,C   7)                  1.5551         0.340687   
     27. B(C  25,C  24)                  1.5307         0.372558   
     28. B(O  26,C  22)                  1.2450         0.953334   
     29. B(C  27,C  21)                  1.5379         0.362919   
     30. B(C  28,C  27)                  1.5387         0.361835   
     31. B(C  29,C  28)                  1.5372         0.363882   
     32. B(C  30,C  28)                  1.5362         0.365168   
     33. B(O  31,C  19)                  1.2347         0.990182   
     34. B(C  32,C  18)                  1.5576         0.337612   
     35. B(C  33,C  32)                  1.5190         0.389050   
     36. B(C  34,C  33)                  1.5410         0.358809   
     37. B(C  35,C  34)                  1.5312         0.371962   
     38. B(C  36,C  35)                  1.5328         0.369741   
     39. B(C  37,C  36)                  1.5323         0.370413   
     40. B(C  38,C  37)                  1.5313         0.371769   
     41. B(C  39,C  38)                  1.5328         0.369765   
     42. B(C  40,C  39)                  1.5334         0.368950   
     43. B(C  41,C  40)                  1.5313         0.371825   
     44. B(O  42,C  32)                  1.2200         1.045054   
     45. B(O  43,C  17)                  1.4204         0.500468   
     46. B(O  44,C  14)                  1.2429         0.960559   
     47. B(C  45,C  13)                  1.5382         0.362518   
     48. B(C  46,C  45)                  1.5297         0.374016   
     49. B(O  47,C  11)                  1.2324         0.998336   
     50. B(C  48,C  10)                  1.5540         0.342102   
     51. B(C  49,C  48)                  1.5348         0.367027   
     52. B(C  50,C  48)                  1.5338         0.368418   
     53. B(H  51,C   2)                  1.1078         0.337291   
     54. B(H  52,C   3)                  1.1071         0.338199   
     55. B(H  53,C   3)                  1.1049         0.340902   
     56. B(H  54,C   4)                  1.1091         0.335747   
     57. B(H  55,C   4)                  1.1071         0.338150   
     58. B(H  56,C   5)                  1.1115         0.332723   
     59. B(H  57,C   5)                  1.1107         0.333719   
     60. B(H  58,N   9)                  1.0284         0.404410   
     61. B(H  59,C  10)                  1.1086         0.336336   
     62. B(H  60,N  12)                  1.0294         0.402934   
     63. B(H  61,C  13)                  1.1130         0.330885   
     64. B(H  62,N  15)                  1.0208         0.415918   
     65. B(H  63,C  16)                  1.1075         0.337669   
     66. B(H  64,C  16)                  1.1096         0.335101   
     67. B(H  65,C  17)                  1.1171         0.325968   
     68. B(H  66,C  18)                  1.1076         0.337594   
     69. B(H  67,N  20)                  1.0380         0.390426   
     70. B(H  68,C  21)                  1.1108         0.333633   
     71. B(H  69,N  23)                  1.0222         0.413691   
     72. B(H  70,C  24)                  1.1105         0.334026   
     73. B(H  71,C  25)                  1.1086         0.336256   
     74. B(H  72,C  25)                  1.1062         0.339233   
     75. B(H  73,C  25)                  1.1081         0.336975   
     76. B(H  74,C  27)                  1.1134         0.330442   
     77. B(H  75,C  27)                  1.1095         0.335254   
     78. B(H  76,C  28)                  1.1165         0.326750   
     79. B(H  77,C  29)                  1.1084         0.336612   
     80. B(H  78,C  29)                  1.1109         0.333460   
     81. B(H  79,C  29)                  1.1089         0.335951   
     82. B(H  80,C  30)                  1.1071         0.338149   
     83. B(H  81,C  30)                  1.1093         0.335507   
     84. B(H  82,C  30)                  1.1119         0.332254   
     85. B(H  83,C  33)                  1.1076         0.337504   
     86. B(H  84,C  33)                  1.1123         0.331740   
     87. B(H  85,C  34)                  1.1103         0.334214   
     88. B(H  86,C  34)                  1.1091         0.335642   
     89. B(H  87,H  73)                  2.0181         0.002279   
     90. B(H  87,C  35)                  1.1092         0.335637   
     91. B(H  88,C  35)                  1.1138         0.329924   
     92. B(H  89,C  36)                  1.1132         0.330726   
     93. B(H  90,C  36)                  1.1121         0.332005   
     94. B(H  91,C  37)                  1.1139         0.329891   
     95. B(H  92,C  37)                  1.1141         0.329635   
     96. B(H  93,C  38)                  1.1130         0.330911   
     97. B(H  94,H  52)                  2.1862         0.001229   
     98. B(H  94,C  38)                  1.1143         0.329391   
     99. B(H  95,C  39)                  1.1159         0.327407   
    100. B(H  96,C  39)                  1.1138         0.329959   
    101. B(H  97,C  40)                  1.1127         0.331261   
    102. B(H  98,C  40)                  1.1134         0.330415   
    103. B(H  99,C  41)                  1.1089         0.336002   
    104. B(H 100,C  41)                  1.1105         0.333995   
    105. B(H 101,C  41)                  1.1110         0.333374   
    106. B(H 102,O   8)                  3.6638         0.000025   
    107. B(H 102,O  43)                  0.9997         0.449314   
    108. B(H 103,C  45)                  1.1116         0.332652   
    109. B(H 104,H  75)                  1.9796         0.002625   
    110. B(H 104,C  45)                  1.1118         0.332364   
    111. B(H 105,C  46)                  1.1083         0.336721   
    112. B(H 106,C  46)                  1.1074         0.337843   
    113. B(H 107,C  46)                  1.1084         0.336611   
    114. B(H 108,C  48)                  1.1117         0.332561   
    115. B(H 109,C  49)                  1.1082         0.336846   
    116. B(H 110,C  49)                  1.1090         0.335819   
    117. B(H 111,O  26)                  2.5297         0.001628   
    118. B(H 111,C  49)                  1.1095         0.335219   
    119. B(H 112,C  50)                  1.1085         0.336402   
    120. B(H 113,C  50)                  1.1106         0.333843   
    121. B(H 114,C  50)                  1.1088         0.336021   
    122. A(O   0,C   1,N   9)          123.9219         0.465252   
    123. A(C   2,C   1,N   9)          116.7376         0.386875   
    124. A(O   0,C   1,C   2)          119.2985         0.423141   
    125. A(C   1,C   2,H  51)          108.0262         0.316674   
    126. A(N   6,C   2,H  51)          109.3712         0.325500   
    127. A(C   1,C   2,N   6)          112.9307         0.363791   
    128. A(C   1,C   2,C   3)          109.4292         0.357492   
    129. A(C   3,C   2,H  51)          114.3319         0.320079   
    130. A(C   3,C   2,N   6)          102.8115         0.367900   
    131. A(C   4,C   3,H  53)          113.6646         0.319648   
    132. A(C   4,C   3,H  52)          111.1762         0.319232   
    133. A(C   2,C   3,C   4)          102.0355         0.360344   
    134. A(C   2,C   3,H  53)          110.8973         0.320636   
    135. A(C   2,C   3,H  52)          109.7285         0.320219   
    136. A(H  52,C   3,H  53)          109.1501         0.285541   
    137. A(H  54,C   4,H  55)          107.4868         0.284858   
    138. A(C   3,C   4,H  55)          113.4957         0.319225   
    139. A(C   3,C   4,C   5)          104.3588         0.357727   
    140. A(C   3,C   4,H  54)          109.6827         0.318853   
    141. A(C   5,C   4,H  55)          111.8796         0.317982   
    142. A(C   5,C   4,H  54)          109.9182         0.317613   
    143. A(H  56,C   5,H  57)          107.7268         0.283874   
    144. A(C   4,C   5,N   6)          104.0102         0.363252   
    145. A(C   4,C   5,H  56)          112.0085         0.317145   
    146. A(N   6,C   5,H  57)          110.0520         0.323258   
    147. A(N   6,C   5,H  56)          111.6431         0.323099   
    148. A(C   4,C   5,H  57)          111.4231         0.317299   
    149. A(C   5,N   6,C   7)          127.3288         0.397541   
    150. A(C   2,N   6,C   7)          121.0235         0.399744   
    151. A(C   2,N   6,C   5)          111.3811         0.372419   
    152. A(O   8,C   7,C  24)          121.2407         0.421661   
    153. A(N   6,C   7,O   8)          122.9923         0.466182   
    154. A(N   6,C   7,C  24)          115.6978         0.387359   
    155. A(C   1,N   9,C  10)          119.7164         0.401490   
    156. A(C  10,N   9,H  58)          120.1231         0.334960   
    157. A(C   1,N   9,H  58)          120.1013         0.353004   
    158. A(C  48,C  10,H  59)          107.9431         0.316141   
    159. A(C  11,C  10,H  59)          103.3326         0.319315   
    160. A(N   9,C  10,C  11)          115.7693         0.369915   
    161. A(N   9,C  10,C  48)          113.0359         0.366043   
    162. A(N   9,C  10,H  59)          104.7027         0.327692   
    163. A(C  11,C  10,C  48)          111.0683         0.356321   
    164. A(N  12,C  11,O  47)          122.6819         0.464109   
    165. A(C  10,C  11,O  47)          119.6856         0.426846   
    166. A(C  10,C  11,N  12)          117.6176         0.389954   
    167. A(C  13,N  12,H  60)          120.3454         0.334378   
    168. A(C  11,N  12,C  13)          119.3163         0.400419   
    169. A(C  11,N  12,H  60)          120.1050         0.352287   
    170. A(C  14,C  13,C  45)          115.9380         0.360966   
    171. A(N  12,C  13,H  61)          103.7879         0.326445   
    172. A(C  14,C  13,H  61)          105.3708         0.319409   
    173. A(N  12,C  13,C  14)          108.1920         0.370637   
    174. A(C  45,C  13,H  61)          107.7212         0.318291   
    175. A(N  12,C  13,C  45)          114.7155         0.369270   
    176. A(C  13,C  14,N  15)          117.6383         0.393083   
    177. A(N  15,C  14,O  44)          121.7905         0.463176   
    178. A(C  13,C  14,O  44)          120.5687         0.425287   
    179. A(C  14,N  15,H  62)          119.2826         0.355843   
    180. A(C  16,N  15,H  62)          119.8538         0.336109   
    181. A(C  14,N  15,C  16)          120.6886         0.402321   
    182. A(H  63,C  16,H  64)          107.7648         0.284709   
    183. A(C  17,C  16,H  64)          107.3605         0.315982   
    184. A(N  15,C  16,H  63)          109.0612         0.327502   
    185. A(C  17,C  16,H  63)          110.1568         0.316375   
    186. A(N  15,C  16,C  17)          115.5065         0.365612   
    187. A(N  15,C  16,H  64)          106.6648         0.327090   
    188. A(O  43,C  17,H  65)          110.8323         0.332795   
    189. A(C  18,C  17,H  65)          104.4898         0.315783   
    190. A(C  16,C  17,H  65)          105.1899         0.314567   
    191. A(C  16,C  17,C  18)          116.1153         0.354129   
    192. A(C  18,C  17,O  43)          108.1954         0.375554   
    193. A(C  16,C  17,O  43)          111.7237         0.374017   
    194. A(C  19,C  18,H  66)          106.3287         0.321188   
    195. A(C  17,C  18,H  66)          107.8928         0.317589   
    196. A(C  17,C  18,C  32)          107.0039         0.353302   
    197. A(C  17,C  18,C  19)          119.3066         0.359756   
    198. A(C  19,C  18,C  32)          111.0197         0.357463   
    199. A(C  32,C  18,H  66)          104.2502         0.315654   
    200. A(C  18,C  19,N  20)          116.5450         0.391853   
    201. A(N  20,C  19,O  31)          123.4612         0.463053   
    202. A(C  18,C  19,O  31)          119.9407         0.428675   
    203. A(C  19,N  20,H  67)          114.6696         0.350162   
    204. A(C  19,N  20,C  21)          120.7542         0.398172   
    205. A(C  21,N  20,H  67)          120.5182         0.331108   
    206. A(C  27,C  21,H  68)          109.1969         0.318778   
    207. A(C  22,C  21,H  68)          110.2803         0.320441   
    208. A(N  20,C  21,H  68)          105.9513         0.325400   
    209. A(N  20,C  21,C  22)          106.5066         0.369602   
    210. A(C  22,C  21,C  27)          109.4862         0.361741   
    211. A(N  20,C  21,C  27)          115.3138         0.367585   
    212. A(C  21,C  22,N  23)          116.2242         0.395936   
    213. A(C  21,C  22,O  26)          121.6413         0.425586   
    214. A(N  23,C  22,O  26)          122.1165         0.465063   
    215. A(C  22,N  23,C  24)          120.5141         0.404375   
    216. A(C  24,N  23,H  69)          118.7799         0.335758   
    217. A(C  22,N  23,H  69)          117.9056         0.357322   
    218. A(C  25,C  24,H  70)          109.5658         0.320207   
    219. A(N  23,C  24,H  70)          107.8402         0.326868   
    220. A(C   7,C  24,H  70)          108.0991         0.315574   
    221. A(N  23,C  24,C  25)          110.0667         0.370908   
    222. A(C   7,C  24,N  23)          107.8508         0.365259   
    223. A(C   7,C  24,C  25)          113.2533         0.357523   
    224. A(H  71,C  25,H  73)          109.0439         0.284771   
    225. A(C  24,C  25,H  73)          110.7191         0.320667   
    226. A(H  71,C  25,H  72)          107.9597         0.285067   
    227. A(C  24,C  25,H  72)          110.9340         0.321018   
    228. A(C  24,C  25,H  71)          110.6176         0.320555   
    229. A(H  72,C  25,H  73)          107.4616         0.285162   
    230. A(C  28,C  27,H  75)          110.5795         0.318874   
    231. A(C  21,C  27,C  28)          116.4495         0.359598   
    232. A(H  74,C  27,H  75)          105.4520         0.283774   
    233. A(C  21,C  27,H  75)          107.7430         0.319030   
    234. A(C  28,C  27,H  74)          108.7337         0.318123   
    235. A(C  21,C  27,H  74)          107.2867         0.318279   
    236. A(C  29,C  28,C  30)          110.7457         0.360323   
    237. A(C  27,C  28,C  30)          112.6112         0.359976   
    238. A(C  27,C  28,C  29)          109.7463         0.359760   
    239. A(C  30,C  28,H  76)          107.7168         0.318016   
    240. A(C  29,C  28,H  76)          108.2958         0.317833   
    241. A(C  27,C  28,H  76)          107.5626         0.317541   
    242. A(C  28,C  29,H  79)          111.2084         0.319276   
    243. A(H  78,C  29,H  79)          107.4454         0.284266   
    244. A(H  77,C  29,H  79)          107.9216         0.284683   
    245. A(H  77,C  29,H  78)          107.2528         0.284353   
    246. A(C  28,C  29,H  78)          110.4798         0.318889   
    247. A(C  28,C  29,H  77)          112.3190         0.319379   
    248. A(H  81,C  30,H  82)          107.3301         0.284048   
    249. A(H  80,C  30,H  82)          109.2171         0.284394   
    250. A(C  28,C  30,H  82)          110.5112         0.318884   
    251. A(H  80,C  30,H  81)          107.5694         0.284826   
    252. A(C  28,C  30,H  81)          110.6399         0.319391   
    253. A(C  28,C  30,H  80)          111.4381         0.319801   
    254. A(C  33,C  32,O  42)          121.8732         0.435599   
    255. A(C  18,C  32,O  42)          118.6892         0.424651   
    256. A(C  18,C  32,C  33)          119.2758         0.359612   
    257. A(C  32,C  33,C  34)          111.2371         0.363368   
    258. A(C  34,C  33,H  84)          110.1405         0.317891   
    259. A(H  83,C  33,H  84)          108.3160         0.284242   
    260. A(C  32,C  33,H  84)          107.2319         0.322122   
    261. A(C  34,C  33,H  83)          108.6382         0.318785   
    262. A(C  32,C  33,H  83)          111.2325         0.323033   
    263. A(C  33,C  34,C  35)          111.7962         0.360592   
    264. A(H  85,C  34,H  86)          107.5475         0.284326   
    265. A(C  35,C  34,H  86)          109.2410         0.320376   
    266. A(C  33,C  34,H  86)          107.3295         0.318498   
    267. A(C  35,C  34,H  85)          111.5690         0.320152   
    268. A(C  33,C  34,H  85)          109.1779         0.318277   
    269. A(C  34,C  35,C  36)          114.1713         0.362444   
    270. A(H  87,C  35,H  88)          106.5668         0.283755   
    271. A(C  36,C  35,H  88)          110.5295         0.319165   
    272. A(C  34,C  35,H  88)          110.5932         0.319477   
    273. A(C  36,C  35,H  87)          107.3763         0.320061   
    274. A(C  34,C  35,H  87)          107.2120         0.320375   
    275. A(C  35,C  36,C  37)          112.9232         0.362186   
    276. A(H  89,C  36,H  90)          106.1635         0.283382   
    277. A(C  37,C  36,H  90)          108.5082         0.319588   
    278. A(C  35,C  36,H  90)          108.1998         0.319493   
    279. A(C  37,C  36,H  89)          110.1928         0.319386   
    280. A(C  35,C  36,H  89)          110.5837         0.319292   
    281. A(C  36,C  37,C  38)          114.4614         0.362524   
    282. A(H  91,C  37,H  92)          105.5478         0.282956   
    283. A(C  38,C  37,H  92)          109.6985         0.319405   
    284. A(C  36,C  37,H  92)          110.1517         0.319214   
    285. A(C  38,C  37,H  91)          108.3267         0.319445   
    286. A(C  36,C  37,H  91)          108.2460         0.319255   
    287. A(C  37,C  38,C  39)          113.3957         0.362416   
    288. A(H  93,C  38,H  94)          105.3168         0.283060   
    289. A(C  39,C  38,H  94)          109.2343         0.319084   
    290. A(C  37,C  38,H  94)          108.8670         0.319366   
    291. A(C  39,C  38,H  93)          109.7110         0.319324   
    292. A(C  37,C  38,H  93)          109.9937         0.319606   
    293. A(C  38,C  39,C  40)          114.2183         0.361945   
    294. A(H  95,C  39,H  96)          105.1938         0.282668   
    295. A(C  40,C  39,H  96)          109.5681         0.319059   
    296. A(C  38,C  39,H  96)          109.5767         0.319174   
    297. A(C  40,C  39,H  95)          109.0011         0.318655   
    298. A(C  38,C  39,H  95)          108.8890         0.318770   
    299. A(C  39,C  40,C  41)          113.4263         0.362289   
    300. A(H  97,C  40,H  98)          105.4304         0.283242   
    301. A(C  41,C  40,H  98)          109.6049         0.319536   
    302. A(C  39,C  40,H  98)          109.0441         0.319131   
    303. A(C  41,C  40,H  97)          109.8711         0.319669   
    304. A(C  39,C  40,H  97)          109.1513         0.319265   
    305. A(H 100,C  41,H 101)          107.1926         0.283997   
    306. A(H  99,C  41,H 101)          107.4527         0.284262   
    307. A(C  40,C  41,H 101)          111.1820         0.320002   
    308. A(H  99,C  41,H 100)          107.5615         0.284344   
    309. A(C  40,C  41,H 100)          111.3730         0.320099   
    310. A(C  40,C  41,H  99)          111.8476         0.320412   
    311. A(C  17,O  43,H 102)          107.7362         0.348107   
    312. A(C  13,C  45,C  46)          113.1118         0.361565   
    313. A(C  46,C  45,H 104)          109.1007         0.320150   
    314. A(C  13,C  45,H 104)          109.9812         0.318522   
    315. A(C  46,C  45,H 103)          110.0372         0.320195   
    316. A(C  13,C  45,H 103)          107.8814         0.318567   
    317. A(H 103,C  45,H 104)          106.5151         0.283686   
    318. A(H 106,C  46,H 107)          106.9853         0.284931   
    319. A(H 105,C  46,H 107)          107.8615         0.284784   
    320. A(C  45,C  46,H 107)          110.7854         0.320815   
    321. A(H 105,C  46,H 106)          108.6999         0.284946   
    322. A(C  45,C  46,H 106)          111.1397         0.321007   
    323. A(C  45,C  46,H 105)          111.2105         0.320832   
    324. A(C  50,C  48,H 108)          108.6063         0.319393   
    325. A(C  49,C  48,H 108)          108.3384         0.319196   
    326. A(C  10,C  48,H 108)          104.4814         0.315561   
    327. A(C  49,C  48,C  50)          111.6009         0.361397   
    328. A(C  10,C  48,C  50)          110.3873         0.357096   
    329. A(C  10,C  48,C  49)          113.0741         0.356866   
    330. A(H 110,C  49,H 111)          107.7428         0.284482   
    331. A(H 109,C  49,H 111)          106.9510         0.284617   
    332. A(C  48,C  49,H 111)          111.7560         0.319611   
    333. A(H 109,C  49,H 110)          107.8177         0.284696   
    334. A(C  48,C  49,H 110)          110.6983         0.319705   
    335. A(C  48,C  49,H 109)          111.6692         0.319864   
    336. A(H 113,C  50,H 114)          107.5793         0.284326   
    337. A(H 112,C  50,H 114)          108.3026         0.284664   
    338. A(C  48,C  50,H 114)          111.1035         0.319934   
    339. A(H 112,C  50,H 113)          107.5464         0.284376   
    340. A(C  48,C  50,H 113)          110.5948         0.319594   
    341. A(C  48,C  50,H 112)          111.5519         0.319993   
    342. D(H  51,C   2,C   1,N   9)   -103.9142         0.009003   
    343. D(C   3,C   2,C   1,N   9)    131.0392         0.009003   
    344. D(N   6,C   2,C   1,N   9)     17.1774         0.009003   
    345. D(N   6,C   2,C   1,O   0)   -160.5582         0.009003   
    346. D(C   3,C   2,C   1,O   0)    -46.6964         0.009003   
    347. D(H  51,C   2,C   1,O   0)     78.3501         0.009003   
    348. D(C   4,C   3,C   2,N   6)     37.9296         0.010836   
    349. D(H  53,C   3,C   2,H  51)    -82.2569         0.010836   
    350. D(H  53,C   3,C   2,C   1)     39.0504         0.010836   
    351. D(C   4,C   3,C   2,H  51)    156.3637         0.010836   
    352. D(H  53,C   3,C   2,N   6)    159.3091         0.010836   
    353. D(H  52,C   3,C   2,H  51)     38.4042         0.010836   
    354. D(C   4,C   3,C   2,C   1)    -82.3291         0.010836   
    355. D(H  52,C   3,C   2,C   1)    159.7114         0.010836   
    356. D(H  52,C   3,C   2,N   6)    -80.0298         0.010836   
    357. D(H  55,C   4,C   3,H  53)     82.1734         0.010460   
    358. D(H  55,C   4,C   3,H  52)    -41.4594         0.010460   
    359. D(H  54,C   4,C   3,H  52)   -161.6905         0.010460   
    360. D(H  55,C   4,C   3,C   2)   -158.3790         0.010460   
    361. D(H  54,C   4,C   3,H  53)    -38.0577         0.010460   
    362. D(C   5,C   4,C   3,C   2)    -36.3238         0.010460   
    363. D(H  54,C   4,C   3,C   2)     81.3900         0.010460   
    364. D(C   5,C   4,C   3,H  53)   -155.7715         0.010460   
    365. D(C   5,C   4,C   3,H  52)     80.5957         0.010460   
    366. D(N   6,C   5,C   4,C   3)     20.8072         0.010006   
    367. D(H  57,C   5,C   4,C   3)    -97.7158         0.010006   
    368. D(H  56,C   5,C   4,H  55)    -95.3590         0.010006   
    369. D(H  56,C   5,C   4,C   3)    141.5286         0.010006   
    370. D(H  57,C   5,C   4,H  54)    144.7323         0.010006   
    371. D(H  56,C   5,C   4,H  54)     23.9768         0.010006   
    372. D(H  57,C   5,C   4,H  55)     25.3965         0.010006   
    373. D(N   6,C   5,C   4,H  54)    -96.7446         0.010006   
    374. D(N   6,C   5,C   4,H  55)    143.9196         0.010006   
    375. D(C   5,N   6,C   2,C   3)    -26.4083         0.015250   
    376. D(C   7,N   6,C   5,H  57)    -51.0476         0.014329   
    377. D(C   7,N   6,C   5,H  56)     68.5260         0.014329   
    378. D(C   7,N   6,C   5,C   4)   -170.5075         0.014329   
    379. D(C   2,N   6,C   5,H  57)    123.0087         0.014329   
    380. D(C   2,N   6,C   5,H  56)   -117.4177         0.014329   
    381. D(C   7,N   6,C   2,H  51)     26.2175         0.015250   
    382. D(C   2,N   6,C   5,C   4)      3.5487         0.014329   
    383. D(C   7,N   6,C   2,C   3)    148.0779         0.015250   
    384. D(C   5,N   6,C   2,C   1)     91.4061         0.015250   
    385. D(C   7,N   6,C   2,C   1)    -94.1077         0.015250   
    386. D(C   5,N   6,C   2,H  51)   -148.2687         0.015250   
    387. D(C  24,C   7,N   6,C   5)    -12.7875         0.030640   
    388. D(C  24,C   7,N   6,C   2)    173.6731         0.030640   
    389. D(O   8,C   7,N   6,C   5)    170.2054         0.030640   
    390. D(O   8,C   7,N   6,C   2)     -3.3340         0.030640   
    391. D(H  58,N   9,C   1,O   0)   -178.4880         0.029424   
    392. D(C  10,N   9,C   1,C   2)   -173.3152         0.029424   
    393. D(H  58,N   9,C   1,C   2)      3.8919         0.029424   
    394. D(C  10,N   9,C   1,O   0)      4.3050         0.029424   
    395. D(H  59,C  10,N   9,C   1)      2.7269         0.016642   
    396. D(C  48,C  10,N   9,H  58)    -57.2425         0.016642   
    397. D(C  48,C  10,N   9,C   1)    119.9640         0.016642   
    398. D(C  11,C  10,N   9,C   1)   -110.3155         0.016642   
    399. D(H  59,C  10,N   9,H  58)   -174.4795         0.016642   
    400. D(C  11,C  10,N   9,H  58)     72.4781         0.016642   
    401. D(O  47,C  11,C  10,N   9)    152.5847         0.009933   
    402. D(N  12,C  11,C  10,H  59)   -142.6127         0.009933   
    403. D(N  12,C  11,C  10,C  48)    101.8828         0.009933   
    404. D(N  12,C  11,C  10,N   9)    -28.7813         0.009933   
    405. D(O  47,C  11,C  10,H  59)     38.7532         0.009933   
    406. D(O  47,C  11,C  10,C  48)    -76.7513         0.009933   
    407. D(H  60,N  12,C  11,O  47)    175.6536         0.028901   
    408. D(H  60,N  12,C  11,C  10)     -2.9366         0.028901   
    409. D(C  13,N  12,C  11,O  47)     -9.8764         0.028901   
    410. D(C  13,N  12,C  11,C  10)    171.5335         0.028901   
    411. D(H  61,C  13,N  12,C  11)    -12.4332         0.016415   
    412. D(H  61,C  13,N  12,H  60)    162.0232         0.016415   
    413. D(C  45,C  13,N  12,H  60)    -80.7203         0.016415   
    414. D(C  45,C  13,N  12,C  11)    104.8232         0.016415   
    415. D(C  14,C  13,N  12,C  11)   -124.0216         0.016415   
    416. D(C  14,C  13,N  12,H  60)     50.4349         0.016415   
    417. D(O  44,C  14,C  13,C  45)   -169.9745         0.010272   
    418. D(O  44,C  14,C  13,N  12)     59.5401         0.010272   
    419. D(N  15,C  14,C  13,H  61)    129.5892         0.010272   
    420. D(N  15,C  14,C  13,C  45)     10.5933         0.010272   
    421. D(O  44,C  14,C  13,H  61)    -50.9786         0.010272   
    422. D(N  15,C  14,C  13,N  12)   -119.8920         0.010272   
    423. D(H  62,N  15,C  14,O  44)   -170.4569         0.030664   
    424. D(H  62,N  15,C  14,C  13)      8.9679         0.030664   
    425. D(C  16,N  15,C  14,O  44)      4.7283         0.030664   
    426. D(C  16,N  15,C  14,C  13)   -175.8469         0.030664   
    427. D(H  64,C  16,N  15,H  62)   -141.1378         0.016393   
    428. D(H  64,C  16,N  15,C  14)     43.7044         0.016393   
    429. D(H  63,C  16,N  15,H  62)    -25.0088         0.016393   
    430. D(H  63,C  16,N  15,C  14)    159.8334         0.016393   
    431. D(C  17,C  16,N  15,C  14)    -75.4997         0.016393   
    432. D(C  17,C  16,N  15,H  62)     99.6582         0.016393   
    433. D(H  65,C  17,C  16,H  64)     38.5536         0.009476   
    434. D(H  65,C  17,C  16,H  63)    -78.5296         0.009476   
    435. D(H  65,C  17,C  16,N  15)    157.3738         0.009476   
    436. D(O  43,C  17,C  16,H  64)    -81.7683         0.009476   
    437. D(O  43,C  17,C  16,H  63)    161.1485         0.009476   
    438. D(O  43,C  17,C  16,N  15)     37.0519         0.009476   
    439. D(C  18,C  17,C  16,H  64)    153.5047         0.009476   
    440. D(C  18,C  17,C  16,H  63)     36.4214         0.009476   
    441. D(C  18,C  17,C  16,N  15)    -87.6751         0.009476   
    442. D(H  66,C  18,C  17,H  65)     61.6400         0.009898   
    443. D(H  66,C  18,C  17,O  43)    179.7779         0.009898   
    444. D(H  66,C  18,C  17,C  16)    -53.7062         0.009898   
    445. D(C  32,C  18,C  17,O  43)     68.1103         0.009898   
    446. D(C  32,C  18,C  17,C  16)   -165.3738         0.009898   
    447. D(C  32,C  18,C  17,H  65)    -50.0276         0.009898   
    448. D(C  19,C  18,C  17,H  65)   -177.0262         0.009898   
    449. D(C  19,C  18,C  17,O  43)    -58.8882         0.009898   
    450. D(C  19,C  18,C  17,C  16)     67.6277         0.009898   
    451. D(O  31,C  19,C  18,H  66)    -41.0525         0.010542   
    452. D(O  31,C  19,C  18,C  32)     71.7379         0.010542   
    453. D(O  31,C  19,C  18,C  17)   -163.1653         0.010542   
    454. D(N  20,C  19,C  18,H  66)    141.5053         0.010542   
    455. D(N  20,C  19,C  18,C  17)     19.3925         0.010542   
    456. D(N  20,C  19,C  18,C  32)   -105.7042         0.010542   
    457. D(H  67,N  20,C  19,O  31)   -165.8622         0.028638   
    458. D(H  67,N  20,C  19,C  18)     11.4809         0.028638   
    459. D(C  21,N  20,C  19,O  31)     -8.4093         0.028638   
    460. D(C  21,N  20,C  19,C  18)    168.9338         0.028638   
    461. D(H  68,C  21,N  20,H  67)    140.5987         0.015528   
    462. D(H  68,C  21,N  20,C  19)    -15.5429         0.015528   
    463. D(C  27,C  21,N  20,H  67)    -98.5039         0.015528   
    464. D(C  27,C  21,N  20,C  19)    105.3545         0.015528   
    465. D(C  22,C  21,N  20,H  67)     23.1670         0.015528   
    466. D(C  22,C  21,N  20,C  19)   -132.9746         0.015528   
    467. D(N  23,C  22,C  21,C  27)   -136.5092         0.010494   
    468. D(N  23,C  22,C  21,N  20)     98.1873         0.010494   
    469. D(O  26,C  22,C  21,H  68)    165.1746         0.010494   
    470. D(O  26,C  22,C  21,C  27)     45.0024         0.010494   
    471. D(O  26,C  22,C  21,N  20)    -80.3012         0.010494   
    472. D(N  23,C  22,C  21,H  68)    -16.3370         0.010494   
    473. D(H  69,N  23,C  22,O  26)    170.9657         0.032700   
    474. D(H  69,N  23,C  22,C  21)     -7.5149         0.032700   
    475. D(C  24,N  23,C  22,O  26)     10.1425         0.032700   
    476. D(C  24,N  23,C  22,C  21)   -168.3381         0.032700   
    477. D(H  70,C  24,N  23,H  69)    131.4643         0.016364   
    478. D(H  70,C  24,N  23,C  22)    -67.8772         0.016364   
    479. D(C  25,C  24,N  23,H  69)     11.9852         0.016364   
    480. D(C  25,C  24,N  23,C  22)    172.6436         0.016364   
    481. D(C   7,C  24,N  23,H  69)   -112.0159         0.016364   
    482. D(C   7,C  24,N  23,C  22)     48.6425         0.016364   
    483. D(H  70,C  24,C   7,O   8)    147.7036         0.008816   
    484. D(H  70,C  24,C   7,N   6)    -29.3605         0.008816   
    485. D(C  25,C  24,C   7,O   8)    -90.7013         0.008816   
    486. D(C  25,C  24,C   7,N   6)     92.2347         0.008816   
    487. D(N  23,C  24,C   7,O   8)     31.3527         0.008816   
    488. D(N  23,C  24,C   7,N   6)   -145.7113         0.008816   
    489. D(H  73,C  25,C  24,H  70)    179.5723         0.011087   
    490. D(H  73,C  25,C  24,N  23)    -62.0046         0.011087   
    491. D(H  73,C  25,C  24,C   7)     58.8038         0.011087   
    492. D(H  72,C  25,C  24,H  70)     60.3510         0.011087   
    493. D(H  72,C  25,C  24,N  23)    178.7741         0.011087   
    494. D(H  72,C  25,C  24,C   7)    -60.4175         0.011087   
    495. D(H  71,C  25,C  24,H  70)    -59.4279         0.011087   
    496. D(H  71,C  25,C  24,N  23)     58.9952         0.011087   
    497. D(H  71,C  25,C  24,C   7)    179.8036         0.011087   
    498. D(H  75,C  27,C  21,H  68)   -176.4701         0.010555   
    499. D(H  75,C  27,C  21,C  22)    -55.6380         0.010555   
    500. D(H  75,C  27,C  21,N  20)     64.4128         0.010555   
    501. D(H  74,C  27,C  21,H  68)    -63.3570         0.010555   
    502. D(H  74,C  27,C  21,C  22)     57.4751         0.010555   
    503. D(H  74,C  27,C  21,N  20)    177.5259         0.010555   
    504. D(C  28,C  27,C  21,H  68)     58.6829         0.010555   
    505. D(C  28,C  27,C  21,C  22)    179.5149         0.010555   
    506. D(C  28,C  27,C  21,N  20)    -60.4342         0.010555   
    507. D(H  76,C  28,C  27,H  75)    -64.5789         0.010496   
    508. D(H  76,C  28,C  27,H  74)   -179.9099         0.010496   
    509. D(H  76,C  28,C  27,C  21)     58.8132         0.010496   
    510. D(C  30,C  28,C  27,H  75)    176.8932         0.010496   
    511. D(C  30,C  28,C  27,H  74)     61.5622         0.010496   
    512. D(C  30,C  28,C  27,C  21)    -59.7147         0.010496   
    513. D(C  29,C  28,C  27,H  75)     53.0314         0.010496   
    514. D(C  29,C  28,C  27,H  74)    -62.2997         0.010496   
    515. D(C  29,C  28,C  27,C  21)    176.4235         0.010496   
    516. D(H  79,C  29,C  28,C  30)     58.8564         0.010607   
    517. D(H  79,C  29,C  28,C  27)   -176.1988         0.010607   
    518. D(H  78,C  29,C  28,H  76)   -178.2690         0.010607   
    519. D(H  78,C  29,C  28,C  30)    -60.3660         0.010607   
    520. D(H  78,C  29,C  28,C  27)     64.5788         0.010607   
    521. D(H  77,C  29,C  28,H  76)     62.0244         0.010607   
    522. D(H  77,C  29,C  28,C  30)    179.9274         0.010607   
    523. D(H  79,C  29,C  28,H  76)    -59.0466         0.010607   
    524. D(H  77,C  29,C  28,C  27)    -55.1278         0.010607   
    525. D(H  82,C  30,C  28,H  76)   -176.0968         0.010678   
    526. D(H  82,C  30,C  28,C  29)     65.6474         0.010678   
    527. D(H  82,C  30,C  28,C  27)    -57.6593         0.010678   
    528. D(H  81,C  30,C  28,H  76)     65.1676         0.010678   
    529. D(H  81,C  30,C  28,C  29)    -53.0882         0.010678   
    530. D(H  81,C  30,C  28,C  27)   -176.3949         0.010678   
    531. D(H  80,C  30,C  28,H  76)    -54.4656         0.010678   
    532. D(H  80,C  30,C  28,C  29)   -172.7214         0.010678   
    533. D(H  80,C  30,C  28,C  27)     63.9719         0.010678   
    534. D(O  42,C  32,C  18,H  66)    -34.0665         0.008674   
    535. D(O  42,C  32,C  18,C  19)   -148.1672         0.008674   
    536. D(O  42,C  32,C  18,C  17)     80.0847         0.008674   
    537. D(C  33,C  32,C  18,H  66)    150.4697         0.008674   
    538. D(C  33,C  32,C  18,C  19)     36.3690         0.008674   
    539. D(C  33,C  32,C  18,C  17)    -95.3790         0.008674   
    540. D(H  84,C  33,C  32,O  42)     60.3618         0.011264   
    541. D(H  84,C  33,C  32,C  18)   -124.3244         0.011264   
    542. D(H  83,C  33,C  32,O  42)    178.6232         0.011264   
    543. D(H  83,C  33,C  32,C  18)     -6.0630         0.011264   
    544. D(C  34,C  33,C  32,O  42)    -60.1227         0.011264   
    545. D(C  34,C  33,C  32,C  18)    115.1911         0.011264   
    546. D(H  86,C  34,C  33,H  84)    178.3798         0.010334   
    547. D(H  86,C  34,C  33,H  83)     59.8935         0.010334   
    548. D(H  86,C  34,C  33,C  32)    -62.8662         0.010334   
    549. D(H  85,C  34,C  33,H  84)    -65.3302         0.010334   
    550. D(H  85,C  34,C  33,H  83)    176.1835         0.010334   
    551. D(H  85,C  34,C  33,C  32)     53.4238         0.010334   
    552. D(C  35,C  34,C  33,H  84)     58.6064         0.010334   
    553. D(C  35,C  34,C  33,H  83)    -59.8800         0.010334   
    554. D(C  35,C  34,C  33,C  32)    177.3603         0.010334   
    555. D(H  88,C  35,C  34,H  86)    168.4655         0.011053   
    556. D(H  88,C  35,C  34,H  85)     49.6916         0.011053   
    557. D(H  88,C  35,C  34,C  33)    -72.8909         0.011053   
    558. D(H  87,C  35,C  34,H  86)    -75.7317         0.011053   
    559. D(H  87,C  35,C  34,H  85)    165.4943         0.011053   
    560. D(H  87,C  35,C  34,C  33)     42.9118         0.011053   
    561. D(C  36,C  35,C  34,H  86)     43.0665         0.011053   
    562. D(C  36,C  35,C  34,H  85)    -75.7074         0.011053   
    563. D(C  36,C  35,C  34,C  33)    161.7101         0.011053   
    564. D(H  90,C  36,C  35,H  87)     73.8533         0.010929   
    565. D(H  90,C  36,C  35,C  34)    -44.8517         0.010929   
    566. D(H  89,C  36,C  35,H  88)    -54.4038         0.010929   
    567. D(H  89,C  36,C  35,H  87)   -170.2662         0.010929   
    568. D(H  89,C  36,C  35,C  34)     71.0288         0.010929   
    569. D(C  37,C  36,C  35,H  88)     69.5933         0.010929   
    570. D(C  37,C  36,C  35,H  87)    -46.2690         0.010929   
    571. D(H  90,C  36,C  35,H  88)   -170.2843         0.010929   
    572. D(C  37,C  36,C  35,C  34)   -164.9741         0.010929   
    573. D(H  92,C  37,C  36,H  90)   -178.6083         0.010967   
    574. D(H  92,C  37,C  36,H  89)     65.5487         0.010967   
    575. D(H  92,C  37,C  36,C  35)    -58.6630         0.010967   
    576. D(H  91,C  37,C  36,H  90)    -63.6716         0.010967   
    577. D(H  91,C  37,C  36,H  89)   -179.5145         0.010967   
    578. D(H  91,C  37,C  36,C  35)     56.2738         0.010967   
    579. D(C  38,C  37,C  36,H  90)     57.2391         0.010967   
    580. D(C  38,C  37,C  36,H  89)    -58.6038         0.010967   
    581. D(C  38,C  37,C  36,C  35)    177.1845         0.010967   
    582. D(H  94,C  38,C  37,H  92)   -175.0260         0.011042   
    583. D(H  94,C  38,C  37,H  91)     70.2337         0.011042   
    584. D(H  94,C  38,C  37,C  36)    -50.6325         0.011042   
    585. D(H  93,C  38,C  37,H  92)    -60.1032         0.011042   
    586. D(H  93,C  38,C  37,H  91)   -174.8435         0.011042   
    587. D(H  93,C  38,C  37,C  36)     64.2903         0.011042   
    588. D(C  39,C  38,C  37,H  92)     63.1593         0.011042   
    589. D(C  39,C  38,C  37,H  91)    -51.5810         0.011042   
    590. D(C  39,C  38,C  37,C  36)   -172.4471         0.011042   
    591. D(H  95,C  39,C  38,H  94)    -67.1870         0.010931   
    592. D(H  95,C  39,C  38,H  93)    177.8401         0.010931   
    593. D(H  95,C  39,C  38,C  37)     54.4224         0.010931   
    594. D(C  40,C  39,C  38,H  94)     54.9016         0.010931   
    595. D(C  40,C  39,C  38,H  93)    -60.0713         0.010931   
    596. D(C  40,C  39,C  38,C  37)    176.5111         0.010931   
    597. D(H  96,C  39,C  38,H  94)    178.2510         0.010931   
    598. D(H  96,C  39,C  38,H  93)     63.2781         0.010931   
    599. D(H  96,C  39,C  38,C  37)    -60.1396         0.010931   
    600. D(H  98,C  40,C  39,H  95)     66.7365         0.010886   
    601. D(H  98,C  40,C  39,C  38)    -55.2907         0.010886   
    602. D(H  97,C  40,C  39,H  96)    -63.9463         0.010886   
    603. D(H  97,C  40,C  39,H  95)   -178.5651         0.010886   
    604. D(H  97,C  40,C  39,C  38)     59.4077         0.010886   
    605. D(C  41,C  40,C  39,H  96)     58.9156         0.010886   
    606. D(C  41,C  40,C  39,H  95)    -55.7033         0.010886   
    607. D(H  98,C  40,C  39,H  96)   -178.6447         0.010886   
    608. D(C  41,C  40,C  39,C  38)   -177.7305         0.010886   
    609. D(H 101,C  41,C  40,H  98)    -62.2761         0.011046   
    610. D(H 101,C  41,C  40,H  97)   -177.6837         0.011046   
    611. D(H 101,C  41,C  40,C  39)     59.8523         0.011046   
    612. D(H 100,C  41,C  40,H  98)    178.2473         0.011046   
    613. D(H 100,C  41,C  40,H  97)     62.8397         0.011046   
    614. D(H 100,C  41,C  40,C  39)    -59.6242         0.011046   
    615. D(H  99,C  41,C  40,H  98)     57.8501         0.011046   
    616. D(H  99,C  41,C  40,H  97)    -57.5574         0.011046   
    617. D(H  99,C  41,C  40,C  39)    179.9786         0.011046   
    618. D(H 102,O  43,C  17,H  65)    -83.8189         0.019803   
    619. D(H 102,O  43,C  17,C  18)    162.1726         0.019803   
    620. D(H 102,O  43,C  17,C  16)     33.1423         0.019803   
    621. D(H 104,C  45,C  13,H  61)   -175.5838         0.010533   
    622. D(H 104,C  45,C  13,C  14)    -57.8822         0.010533   
    623. D(H 104,C  45,C  13,N  12)     69.4229         0.010533   
    624. D(H 103,C  45,C  13,H  61)    -59.7897         0.010533   
    625. D(H 103,C  45,C  13,C  14)     57.9118         0.010533   
    626. D(H 103,C  45,C  13,N  12)   -174.7830         0.010533   
    627. D(C  46,C  45,C  13,H  61)     62.1570         0.010533   
    628. D(C  46,C  45,C  13,C  14)    179.8586         0.010533   
    629. D(C  46,C  45,C  13,N  12)    -52.8363         0.010533   
    630. D(H 107,C  46,C  45,H 104)    -58.0380         0.011168   
    631. D(H 107,C  46,C  45,H 103)   -174.5580         0.011168   
    632. D(H 107,C  46,C  45,C  13)     64.7116         0.011168   
    633. D(H 106,C  46,C  45,H 104)   -176.8395         0.011168   
    634. D(H 106,C  46,C  45,H 103)     66.6406         0.011168   
    635. D(H 106,C  46,C  45,C  13)    -54.0899         0.011168   
    636. D(H 105,C  46,C  45,H 104)     61.9101         0.011168   
    637. D(H 105,C  46,C  45,H 103)    -54.6099         0.011168   
    638. D(H 105,C  46,C  45,C  13)   -175.3403         0.011168   
    639. D(H 108,C  48,C  10,H  59)    -60.2103         0.009465   
    640. D(H 108,C  48,C  10,C  11)     52.4027         0.009465   
    641. D(H 108,C  48,C  10,N   9)   -175.5249         0.009465   
    642. D(C  50,C  48,C  10,H  59)     56.3757         0.009465   
    643. D(C  50,C  48,C  10,C  11)    168.9886         0.009465   
    644. D(C  50,C  48,C  10,N   9)    -58.9390         0.009465   
    645. D(C  49,C  48,C  10,H  59)   -177.8062         0.009465   
    646. D(C  49,C  48,C  10,C  11)    -65.1933         0.009465   
    647. D(C  49,C  48,C  10,N   9)     66.8791         0.009465   
    648. D(H 111,C  49,C  48,C  50)     62.6711         0.010780   
    649. D(H 111,C  49,C  48,C  10)    -62.4939         0.010780   
    650. D(H 110,C  49,C  48,H 108)     62.0914         0.010780   
    651. D(H 110,C  49,C  48,C  50)    -57.4311         0.010780   
    652. D(H 110,C  49,C  48,C  10)    177.4040         0.010780   
    653. D(H 109,C  49,C  48,H 108)    -58.0477         0.010780   
    654. D(H 109,C  49,C  48,C  50)   -177.5701         0.010780   
    655. D(H 111,C  49,C  48,H 108)   -177.8065         0.010780   
    656. D(H 109,C  49,C  48,C  10)     57.2649         0.010780   
    657. D(H 114,C  50,C  48,H 108)    -60.8604         0.010856   
    658. D(H 114,C  50,C  48,C  49)     58.5035         0.010856   
    659. D(H 114,C  50,C  48,C  10)   -174.8523         0.010856   
    660. D(H 113,C  50,C  48,H 108)    179.7421         0.010856   
    661. D(H 113,C  50,C  48,C  49)    -60.8940         0.010856   
    662. D(H 113,C  50,C  48,C  10)     65.7502         0.010856   
    663. D(H 112,C  50,C  48,H 108)     60.0932         0.010856   
    664. D(H 112,C  50,C  48,C  49)    179.4570         0.010856   
    665. D(H 112,C  50,C  48,C  10)    -53.8987         0.010856   
    -----------------------------------------------------------------

Number of atoms                         .... 115
Number of degrees of freedom            .... 665

         *************************************************************
         *                GEOMETRY OPTIMIZATION CYCLE   1            *
         *************************************************************
---------------------------------
CARTESIAN COORDINATES (ANGSTROEM)
---------------------------------
  O      3.706796    1.995073   -2.401217
  C      2.880991    1.830865   -1.503134
  C      1.489707    2.508856   -1.617479
  C      1.669213    3.976026   -2.027984
  C      1.979548    4.650838   -0.679852
  C      1.098235    3.893766    0.339633
  N      0.797855    2.614053   -0.329027
  C     -0.091390    1.660301    0.071392
  O     -0.410030    0.700615   -0.634489
  N      3.125164    1.114286   -0.362234
  C      4.453930    0.574871   -0.120197
  C      4.580802   -0.954551   -0.209390
  N      3.473569   -1.703353    0.097740
  C      3.491681   -3.138064   -0.150933
  C      2.303491   -3.481867   -1.055381
  N      1.375182   -4.358069   -0.574772
  C      0.268019   -4.800842   -1.410975
  C     -0.872582   -3.765488   -1.614334
  C     -1.994491   -3.769988   -0.548728
  C     -1.673139   -3.325151    0.877907
  N     -0.539365   -2.569437    1.044142
  C     -0.269567   -1.894079    2.314463
  C      0.134843   -0.460783    1.967220
  N     -0.839928    0.476772    2.063326
  C     -0.637298    1.812812    1.519500
  C     -1.940178    2.612978    1.593045
  O      1.287749   -0.180655    1.589980
  C      0.823242   -2.539310    3.183090
  C      0.572045   -3.988128    3.636297
  C      1.791708   -4.507793    4.414255
  C     -0.708454   -4.131741    4.472715
  O     -2.443720   -3.608421    1.800047
  C     -3.182767   -2.951252   -1.134939
  C     -3.316800   -1.479977   -0.781956
  C     -3.145303   -0.589218   -2.027649
  C     -3.342344    0.893048   -1.698155
  C     -2.766970    1.851083   -2.747257
  C     -2.645171    3.290995   -2.237547
  C     -2.010904    4.265030   -3.234491
  C     -1.732537    5.649836   -2.639285
  C     -1.020589    6.614040   -3.595699
  C     -0.702283    7.972665   -2.965118
  O     -3.930718   -3.493259   -1.931895
  O     -0.368243   -2.441998   -1.721794
  O      2.195461   -2.965364   -2.180733
  C      3.652429   -4.007022    1.108061
  C      4.858799   -3.610833    1.961070
  O      5.659971   -1.460195   -0.523379
  C      5.100303    1.113789    1.186154
  C      4.376670    0.641476    2.454588
  C      5.211810    2.642687    1.135843
  H      0.873556    1.911080   -2.317671
  H      0.725613    4.361285   -2.460213
  H      2.478445    4.080654   -2.772987
  H      3.051065    4.511185   -0.430123
  H      1.775591    5.738991   -0.673636
  H      1.621681    3.737545    1.307664
  H      0.156528    4.444117    0.549342
  H      2.383812    0.994928    0.340460
  H      5.062646    0.932173   -0.975042
  H      2.611337   -1.242142    0.419480
  H      4.395964   -3.286392   -0.782687
  H      1.419957   -4.646150    0.403482
  H     -0.141533   -5.743904   -0.999303
  H      0.694073   -5.024714   -2.410744
  H     -1.383003   -4.074049   -2.558892
  H     -2.386724   -4.802927   -0.471931
  H     -0.117780   -2.220948    0.161960
  H     -1.229920   -1.898663    2.872616
  H     -1.794492    0.157853    2.242383
  H      0.142194    2.314406    2.130989
  H     -2.291282    2.691732    2.641675
  H     -1.796810    3.638362    1.203405
  H     -2.730216    2.132663    0.982348
  H      0.949633   -1.899232    4.085296
  H      1.782462   -2.464248    2.630670
  H      0.450035   -4.611884    2.718410
  H      2.731257   -4.417480    3.833260
  H      1.928380   -3.930575    5.353556
  H      1.664739   -5.573214    4.694266
  H     -1.609413   -3.883045    3.879302
  H     -0.823625   -5.173598    4.835645
  H     -0.665692   -3.472320    5.366961
  H     -2.565878   -1.178941   -0.025410
  H     -4.329760   -1.336832   -0.345265
  H     -3.847359   -0.928477   -2.818093
  H     -2.114579   -0.745611   -2.406270
  H     -2.812903    1.090297   -0.743693
  H     -4.418676    1.114140   -1.515862
  H     -3.376194    1.823365   -3.678499
  H     -1.753786    1.489520   -3.029258
  H     -2.024103    3.282291   -1.312958
  H     -3.643501    3.672561   -1.923096
  H     -2.659847    4.366188   -4.133063
  H     -1.056700    3.827578   -3.608275
  H     -1.114453    5.529483   -1.718014
  H     -2.687688    6.105852   -2.292478
  H     -1.647251    6.756204   -4.504124
  H     -0.079853    6.139802   -3.955997
  H     -0.188075    8.648302   -3.678325
  H     -1.625503    8.486375   -2.623149
  H     -0.042169    7.859070   -2.078750
  H      0.522817   -2.491283   -2.172439
  H      3.747455   -5.065550    0.782327
  H      2.732481   -3.949013    1.729727
  H      4.993522   -4.306914    2.812885
  H      5.788157   -3.602456    1.359003
  H      4.730818   -2.589952    2.373245
  H      6.125203    0.683256    1.187329
  H      4.333585   -0.464296    2.513386
  H      4.896428    1.009579    3.362464
  H      3.330276    1.008407    2.491859
  H      5.743091    2.982453    0.224174
  H      4.203363    3.107914    1.128673
  H      5.754295    3.032759    2.020760

----------------------------
CARTESIAN COORDINATES (A.U.)
----------------------------
  NO LB      ZA    FRAG     MASS         X           Y           Z
   0 O     8.0000    0    15.999    7.004828    3.770141   -4.537643
   1 C     6.0000    0    12.011    5.444283    3.459833   -2.840512
   2 C     6.0000    0    12.011    2.815138    4.741051   -3.056592
   3 C     6.0000    0    12.011    3.154355    7.513601   -3.832335
   4 C     6.0000    0    12.011    3.740804    8.788811   -1.284735
   5 C     6.0000    0    12.011    2.075364    7.358151    0.641812
   6 N     7.0000    0    14.007    1.507728    4.939844   -0.621771
   7 C     6.0000    0    12.011   -0.172703    3.137514    0.134912
   8 O     8.0000    0    15.999   -0.774845    1.323971   -1.199010
   9 N     7.0000    0    14.007    5.905703    2.105694   -0.684524
  10 C     6.0000    0    12.011    8.416708    1.086349   -0.227140
  11 C     6.0000    0    12.011    8.656461   -1.803840   -0.395689
  12 N     7.0000    0    14.007    6.564093   -3.218871    0.184701
  13 C     6.0000    0    12.011    6.598321   -5.930082   -0.285222
  14 C     6.0000    0    12.011    4.352967   -6.579776   -1.994382
  15 N     7.0000    0    14.007    2.598717   -8.235557   -1.086162
  16 C     6.0000    0    12.011    0.506482   -9.072276   -2.666356
  17 C     6.0000    0    12.011   -1.648940   -7.115742   -3.050649
  18 C     6.0000    0    12.011   -3.769042   -7.124244   -1.036945
  19 C     6.0000    0    12.011   -3.161775   -6.283626    1.659004
  20 N     7.0000    0    14.007   -1.019253   -4.855532    1.973142
  21 C     6.0000    0    12.011   -0.509408   -3.579291    4.373701
  22 C     6.0000    0    12.011    0.254816   -0.870755    3.717506
  23 N     7.0000    0    14.007   -1.587235    0.900968    3.899121
  24 C     6.0000    0    12.011   -1.204318    3.425719    2.871439
  25 C     6.0000    0    12.011   -3.666405    4.937812    3.010418
  26 O     8.0000    0    15.999    2.433494   -0.341388    3.004627
  27 C     6.0000    0    12.011    1.555702   -4.798600    6.015168
  28 C     6.0000    0    12.011    1.081008   -7.536470    6.871605
  29 C     6.0000    0    12.011    3.385837   -8.518494    8.341733
  30 C     6.0000    0    12.011   -1.338784   -7.807860    8.452207
  31 O     8.0000    0    15.999   -4.617962   -6.818927    3.401595
  32 C     6.0000    0    12.011   -6.014559   -5.577058   -2.144723
  33 C     6.0000    0    12.011   -6.267843   -2.796750   -1.477682
  34 C     6.0000    0    12.011   -5.943761   -1.113461   -3.831701
  35 C     6.0000    0    12.011   -6.316115    1.687617   -3.209049
  36 C     6.0000    0    12.011   -5.228816    3.498040   -5.191564
  37 C     6.0000    0    12.011   -4.998649    6.219079   -4.228350
  38 C     6.0000    0    12.011   -3.800057    8.059739   -6.112302
  39 C     6.0000    0    12.011   -3.274020   10.676643   -4.987526
  40 C     6.0000    0    12.011   -1.928634   12.498725   -6.794886
  41 C     6.0000    0    12.011   -1.327122   15.066153   -5.603261
  42 O     8.0000    0    15.999   -7.427980   -6.601303   -3.650752
  43 O     8.0000    0    15.999   -0.695878   -4.614708   -3.253720
  44 O     8.0000    0    15.999    4.148820   -5.603726   -4.120988
  45 C     6.0000    0    12.011    6.902091   -7.572174    2.093931
  46 C     6.0000    0    12.011    9.181799   -6.823485    3.705885
  47 O     8.0000    0    15.999   10.695795   -2.759369   -0.989043
  48 C     6.0000    0    12.011    9.638175    2.104757    2.241506
  49 C     6.0000    0    12.011    8.270707    1.212213    4.638500
  50 C     6.0000    0    12.011    9.848894    4.993955    2.146433
  51 H     1.0000    0     1.008    1.650781    3.611417   -4.379764
  52 H     1.0000    0     1.008    1.371209    8.241634   -4.649129
  53 H     1.0000    0     1.008    4.683583    7.711318   -5.240186
  54 H     1.0000    0     1.008    5.765678    8.524905   -0.812815
  55 H     1.0000    0     1.008    3.355380   10.845122   -1.272987
  56 H     1.0000    0     1.008    3.064533    7.062937    2.471127
  57 H     1.0000    0     1.008    0.295795    8.398164    1.038106
  58 H     1.0000    0     1.008    4.504751    1.880142    0.643376
  59 H     1.0000    0     1.008    9.567014    1.761552   -1.842562
  60 H     1.0000    0     1.008    4.934711   -2.347308    0.792701
  61 H     1.0000    0     1.008    8.307168   -6.210382   -1.479063
  62 H     1.0000    0     1.008    2.683329   -8.779950    0.762471
  63 H     1.0000    0     1.008   -0.267458  -10.854405   -1.888409
  64 H     1.0000    0     1.008    1.311609   -9.495333   -4.555645
  65 H     1.0000    0     1.008   -2.613496   -7.698836   -4.835605
  66 H     1.0000    0     1.008   -4.510254   -9.076216   -0.891820
  67 H     1.0000    0     1.008   -0.222572   -4.196983    0.306060
  68 H     1.0000    0     1.008   -2.324212   -3.587953    5.428457
  69 H     1.0000    0     1.008   -3.391099    0.298298    4.237491
  70 H     1.0000    0     1.008    0.268708    4.373594    4.026985
  71 H     1.0000    0     1.008   -4.329895    5.086637    4.992043
  72 H     1.0000    0     1.008   -3.395479    6.875509    2.274107
  73 H     1.0000    0     1.008   -5.159360    4.030150    1.856368
  74 H     1.0000    0     1.008    1.794547   -3.589028    7.720091
  75 H     1.0000    0     1.008    3.368364   -4.656754    4.971246
  76 H     1.0000    0     1.008    0.850444   -8.715198    5.137051
  77 H     1.0000    0     1.008    5.161327   -8.347828    7.243811
  78 H     1.0000    0     1.008    3.644110   -7.427710   10.116755
  79 H     1.0000    0     1.008    3.145900  -10.531849    8.870877
  80 H     1.0000    0     1.008   -3.041349   -7.337891    7.330818
  81 H     1.0000    0     1.008   -1.556425   -9.776684    9.138045
  82 H     1.0000    0     1.008   -1.257976   -6.561735   10.142087
  83 H     1.0000    0     1.008   -4.848806   -2.227875   -0.048018
  84 H     1.0000    0     1.008   -8.182060   -2.526247   -0.652455
  85 H     1.0000    0     1.008   -7.270455   -1.754568   -5.325424
  86 H     1.0000    0     1.008   -3.995975   -1.409000   -4.547191
  87 H     1.0000    0     1.008   -5.315616    2.060363   -1.405375
  88 H     1.0000    0     1.008   -8.350087    2.105419   -2.864565
  89 H     1.0000    0     1.008   -6.380082    3.445661   -6.951355
  90 H     1.0000    0     1.008   -3.314176    2.814785   -5.724469
  91 H     1.0000    0     1.008   -3.825001    6.202631   -2.481132
  92 H     1.0000    0     1.008   -6.885219    6.940135   -3.634124
  93 H     1.0000    0     1.008   -5.026383    8.250899   -7.810357
  94 H     1.0000    0     1.008   -1.996874    7.233074   -6.818652
  95 H     1.0000    0     1.008   -2.106011   10.449208   -3.246576
  96 H     1.0000    0     1.008   -5.078994   11.538388   -4.332155
  97 H     1.0000    0     1.008   -3.112852   12.767375   -8.511561
  98 H     1.0000    0     1.008   -0.150901   11.602544   -7.475751
  99 H     1.0000    0     1.008   -0.355411   16.342923   -6.951026
 100 H     1.0000    0     1.008   -3.071756   16.036925   -4.957032
 101 H     1.0000    0     1.008   -0.079688   14.851489   -3.928268
 102 H     1.0000    0     1.008    0.987981   -4.707843   -4.105315
 103 H     1.0000    0     1.008    7.081663   -9.572503    1.478383
 104 H     1.0000    0     1.008    5.163641   -7.462553    3.268710
 105 H     1.0000    0     1.008    9.436389   -8.138888    5.315581
 106 H     1.0000    0     1.008   10.938032   -6.807654    2.568144
 107 H     1.0000    0     1.008    8.939950   -4.894301    4.484784
 108 H     1.0000    0     1.008   11.574956    1.291167    2.243727
 109 H     1.0000    0     1.008    8.189288   -0.877393    4.749610
 110 H     1.0000    0     1.008    9.252909    1.907827    6.354137
 111 H     1.0000    0     1.008    6.293310    1.905614    4.708931
 112 H     1.0000    0     1.008   10.852870    5.636019    0.423628
 113 H     1.0000    0     1.008    7.943205    5.873106    2.132882
 114 H     1.0000    0     1.008   10.874042    5.731084    3.818683

--------------------------------
INTERNAL COORDINATES (ANGSTROEM)
--------------------------------
 O      0   0   0     0.000000000000     0.00000000     0.00000000
 C      1   0   0     1.231044877616     0.00000000     0.00000000
 C      2   1   0     1.551907502269   119.29851748     0.00000000
 C      3   2   1     1.534055385315   109.42919364   313.30360420
 C      4   3   2     1.539200933173   102.03548286   277.67090106
 C      5   4   3     1.545710369896   104.35880750   323.67619965
 N      3   2   1     1.466230788316   112.93070774   199.44182308
 C      7   3   2     1.364088442031   121.02351752   265.89229320
 O      8   7   3     1.233205181712   122.99231252   356.66600251
 N      2   1   3     1.369217984704   123.92186564   182.43715169
 C     10   2   1     1.454362586464   119.71641240     4.30498735
 C     11  10   2     1.537265264612   115.76934581   249.68453263
 N     12  11  10     1.371494775782   117.61760681   331.21874372
 C     13  12  11     1.456214947837   119.31627808   171.53346142
 C     14  13  12     1.532326213214   108.19203432   235.97842627
 N     15  14  13     1.363991353943   117.63827188   240.10798164
 C     16  15  14     1.456396878691   120.68861788   184.15307000
 C     17  16  15     1.553795545716   115.50651210   284.50032273
 C     18  17  16     1.547325934733   116.11532064   272.32485696
 C     19  18  17     1.528539545321   119.30663195    67.62770625
 N     20  19  18     1.372654856386   116.54495739    19.39254329
 C     21  20  19     1.463767502970   120.75415342   168.93380291
 C     22  21  20     1.529203224832   106.50656516   227.02544100
 N     23  22  21     1.355885323749   116.22421793    98.18728153
 C     24  23  22     1.456643089790   120.51411018   191.66189211
 C     25  24  23     1.530741762374   110.06665161   172.64358996
 O     23  22  21     1.244980256665   121.64131609   279.69884704
 C     22  21  20     1.537877116020   115.31376893   105.35451286
 C     28  22  21     1.538691337380   116.44949415   299.56579325
 C     29  28  22     1.537155936401   109.74629413   176.42345744
 C     29  28  22     1.536195800016   112.61119543   300.28531253
 O     20  19  18     1.234657122263   119.94074116   196.83470542
 C     19  18  17     1.557553139158   107.00389706   194.62624610
 C     33  19  18     1.518951343928   119.27575385   264.62095628
 C     34  33  19     1.540977723941   111.23708493   115.19105388
 C     35  34  33     1.531178025935   111.79620738   177.36031472
 C     36  35  34     1.532808028064   114.17132950   161.71009133
 C     37  36  35     1.532313853031   112.92316215   195.02594129
 C     38  37  36     1.531319027122   114.46144312   177.18446646
 C     39  38  37     1.532790250252   113.39573552   187.55285448
 C     40  39  38     1.533390689526   114.21833176   176.51108124
 C     41  40  39     1.531277793987   113.42634772   182.26950642
 O     33  19  18     1.219975590951   118.68919974    80.08472597
 O     18  17  16     1.420398421810   111.72374220    37.05194676
 O     15  14  13     1.242925221454   120.56867198    59.54014411
 C     14  13  12     1.538178579893   114.71546570   104.82324303
 C     46  14  13     1.529678894380   113.11179993   307.16372379
 O     12  11  10     1.232424864013   119.68558797   152.58465151
 C     11  10   2     1.553957398370   113.03592583   119.96398979
 C     49  11  10     1.534813208773   113.07411012    66.87911511
 C     49  11  10     1.533783787335   110.38729081   301.06102368
 H      3   2   1     1.107812610393   108.02622554    78.35013760
 H      4   3   2     1.107080494079   109.72845263   159.71144845
 H      4   3   2     1.104913151897   110.89732603    39.05037211
 H      5   4   3     1.109061031638   109.68265913    81.38997190
 H      5   4   3     1.107119672064   113.49574254   201.62103291
 H      6   5   4     1.111523825452   112.00845460   141.52862317
 H      6   5   4     1.110710291650   111.42310868   262.28415003
 H     10   2   1     1.028410549343   120.10132463   181.51204995
 H     11  10   2     1.108583999725   104.70269617     2.72689580
 H     13  12  11     1.029405666683   120.10498207   357.06341307
 H     14  13  12     1.113032089789   103.78792615   347.56677116
 H     16  15  14     1.020772517101   119.28255957     8.96785930
 H     17  16  15     1.107507170227   109.06122723   159.83335238
 H     17  16  15     1.109585234334   106.66477819    43.70437097
 H     18  17  16     1.117107573309   105.18992655   157.37382742
 H     19  18  17     1.107568024087   107.89276811   306.29384837
 H     21  20  19     1.037990051480   114.66961283    11.48087981
 H     22  21  20     1.110780588820   105.95126446   344.45710932
 H     24  23  22     1.022234412479   117.90557579   352.48510939
 H     25  24  23     1.110460453841   107.84018017   292.12276274
 H     26  25  24     1.108648686244   110.61764375    58.99518496
 H     26  25  24     1.106249138220   110.93395481   178.77408483
 H     26  25  24     1.108067267172   110.71909812   297.99536035
 H     28  22  21     1.113396279180   107.28665995   177.52592901
 H     28  22  21     1.109461149747   107.74299469    64.41282330
 H     29  28  22     1.116455294990   107.56256502    58.81323245
 H     30  29  28     1.108360949596   112.31898496   304.87221560
 H     30  29  28     1.110921732620   110.47980956    64.57882159
 H     30  29  28     1.108895903898   111.20841423   183.80124840
 H     31  29  28     1.107120893897   111.43809117    63.97187423
 H     31  29  28     1.109255715261   110.63992088   183.60509256
 H     31  29  28     1.111908262817   110.51124251   302.34074220
 H     34  33  19     1.107640587536   111.23252329   353.93695046
 H     34  33  19     1.112329666909   107.23188363   235.67556418
 H     35  34  33     1.110306857368   109.17787613    53.42377832
 H     35  34  33     1.109146048513   107.32948637   297.13375184
 H     36  35  34     1.109150327529   107.21199841    42.91182005
 H     36  35  34     1.113823494955   110.59315729   287.10911155
 H     37  36  35     1.113163025706   110.58370539    71.02878631
 H     37  36  35     1.112112384174   108.19977780   315.14828835
 H     38  37  36     1.113851013263   108.24601157    56.27375028
 H     38  37  36     1.114062518713   110.15169505   301.33699976
 H     39  38  37     1.113010571654   109.99367941    64.29033644
 H     39  38  37     1.114263634128   108.86700736   309.36753810
 H     40  39  38     1.115908669319   108.88895426    54.42240680
 H     40  39  38     1.113794781513   109.57667487   299.86041101
 H     41  40  39     1.112722415748   109.15128334    59.40768638
 H     41  40  39     1.113418822602   109.04407661   304.70925030
 H     42  41  40     1.108854923944   111.84757823   179.97857723
 H     42  41  40     1.110485392971   111.37297373   300.37576672
 H     42  41  40     1.110991879676   111.18203214    59.85234889
 H     44  18  17     0.999748657557   107.73619290    33.14227610
 H     46  14  13     1.111581944175   107.88141228   185.21695568
 H     46  14  13     1.111817681273   109.98118017    69.42288385
 H     47  46  14     1.108272455237   111.21048584   184.65965432
 H     47  46  14     1.107367079235   111.13973409   305.91012993
 H     47  46  14     1.108361302872   110.78544563    64.71156525
 H     49  11  10     1.111656763742   104.48140864   184.47507304
 H     50  49  11     1.108171771818   111.66920738    57.26490898
 H     50  49  11     1.109003018320   110.69830156   177.40398122
 H     50  49  11     1.109489828295   111.75601364   297.50608829
 H     51  49  11     1.108530707062   111.55190581   306.10129825
 H     51  49  11     1.110609656432   110.59482789    65.75022998
 H     51  49  11     1.108838885788   111.10352596   185.14772313

---------------------------
INTERNAL COORDINATES (A.U.)
---------------------------
 O      0   0   0     0.000000000000     0.00000000     0.00000000
 C      1   0   0     2.326337677262     0.00000000     0.00000000
 C      2   1   0     2.932680164467   119.29851748     0.00000000
 C      3   2   1     2.898944552513   109.42919364   313.30360420
 C      4   3   2     2.908668228773   102.03548286   277.67090106
 C      5   4   3     2.920969281465   104.35880750   323.67619965
 N      3   2   1     2.770774639041   112.93070774   199.44182308
 C      7   3   2     2.577753577886   121.02351752   265.89229320
 O      8   7   3     2.330420060368   122.99231252   356.66600251
 N      2   1   3     2.587447008730   123.92186564   182.43715169
 C     10   2   1     2.748346987839   119.71641240     4.30498735
 C     11  10   2     2.905010345307   115.76934581   249.68453263
 N     12  11  10     2.591749520331   117.61760681   331.21874372
 C     13  12  11     2.751847443535   119.31627808   171.53346142
 C     14  13  12     2.895676890803   108.19203432   235.97842627
 N     15  14  13     2.577570107989   117.63827188   240.10798164
 C     16  15  14     2.752191243024   120.68861788   184.15307000
 C     17  16  15     2.936248049509   115.50651210   284.50032273
 C     18  17  16     2.924022256558   116.11532064   272.32485696
 C     19  18  17     2.888521125525   119.30663195    67.62770625
 N     20  19  18     2.593941754967   116.54495739    19.39254329
 C     21  20  19     2.766119704347   120.75415342   168.93380291
 C     22  21  20     2.889775298042   106.50656516   227.02544100
 N     23  22  21     2.562251930890   116.22421793    98.18728153
 C     24  23  22     2.752656514572   120.51411018   191.66189211
 C     25  24  23     2.892682712642   110.06665161   172.64358996
 O     23  22  21     2.352671727235   121.64131609   279.69884704
 C     22  21  20     2.906166576903   115.31376893   105.35451286
 C     28  22  21     2.907705232285   116.44949415   299.56579325
 C     29  28  22     2.904803744930   109.74629413   176.42345744
 C     29  28  22     2.902989350110   112.61119543   300.28531253
 O     20  19  18     2.333163830373   119.94074116   196.83470542
 C     19  18  17     2.943348872038   107.00389706   194.62624610
 C     33  19  18     2.870402050775   119.27575385   264.62095628
 C     34  33  19     2.912025876722   111.23708493   115.19105388
 C     35  34  33     2.893507131296   111.79620738   177.36031472
 C     36  35  34     2.896587388917   114.17132950   161.71009133
 C     37  36  35     2.895653533443   112.92316215   195.02594129
 C     38  37  36     2.893773584923   114.46144312   177.18446646
 C     39  38  37     2.896553793722   113.39573552   187.55285448
 C     40  39  38     2.897688459509   114.21833176   176.51108124
 C     41  40  39     2.893695665591   113.42634772   182.26950642
 O     33  19  18     2.305419756965   118.68919974    80.08472597
 O     18  17  16     2.684164018275   111.72374220    37.05194676
 O     15  14  13     2.348788273492   120.56867198    59.54014411
 C     14  13  12     2.906736261062   114.71546570   104.82324303
 C     46  14  13     2.890674183218   113.11179993   307.16372379
 O     12  11  10     2.328945473620   119.68558797   152.58465151
 C     11  10   2     2.936553906701   113.03592583   119.96398979
 C     49  11  10     2.900376631305   113.07411012    66.87911511
 C     49  11  10     2.898431306712   110.38729081   301.06102368
 H      3   2   1     2.093462441347   108.02622554    78.35013760
 H      4   3   2     2.092078942015   109.72845263   159.71144845
 H      4   3   2     2.087983258854   110.89732603    39.05037211
 H      5   4   3     2.095821615599   109.68265913    81.38997190
 H      5   4   3     2.092152977677   113.49574254   201.62103291
 H      6   5   4     2.100475621432   112.00845460   141.52862317
 H      6   5   4     2.098938265347   111.42310868   262.28415003
[...]
freq.      84.95  E(vib)   ...       0.48 
freq.      95.88  E(vib)   ...       0.47 
freq.     101.93  E(vib)   ...       0.46 
freq.     104.83  E(vib)   ...       0.46 
freq.     111.01  E(vib)   ...       0.45 
freq.     114.74  E(vib)   ...       0.44 
freq.     118.23  E(vib)   ...       0.44 
freq.     120.61  E(vib)   ...       0.44 
freq.     125.69  E(vib)   ...       0.43 
freq.     132.59  E(vib)   ...       0.42 
freq.     137.65  E(vib)   ...       0.42 
freq.     141.03  E(vib)   ...       0.41 
freq.     146.10  E(vib)   ...       0.41 
freq.     150.60  E(vib)   ...       0.40 
freq.     156.42  E(vib)   ...       0.40 
freq.     160.32  E(vib)   ...       0.39 
freq.     162.81  E(vib)   ...       0.39 
freq.     168.82  E(vib)   ...       0.38 
freq.     174.50  E(vib)   ...       0.38 
freq.     179.96  E(vib)   ...       0.37 
freq.     192.32  E(vib)   ...       0.36 
freq.     195.53  E(vib)   ...       0.36 
freq.     205.77  E(vib)   ...       0.35 
freq.     209.99  E(vib)   ...       0.34 
freq.     212.41  E(vib)   ...       0.34 
freq.     214.54  E(vib)   ...       0.34 
freq.     220.74  E(vib)   ...       0.33 
freq.     223.43  E(vib)   ...       0.33 
freq.     230.60  E(vib)   ...       0.32 
freq.     232.43  E(vib)   ...       0.32 
freq.     235.42  E(vib)   ...       0.32 
freq.     237.82  E(vib)   ...       0.32 
freq.     239.99  E(vib)   ...       0.31 
freq.     242.56  E(vib)   ...       0.31 
freq.     251.34  E(vib)   ...       0.30 
freq.     257.65  E(vib)   ...       0.30 
freq.     265.88  E(vib)   ...       0.29 
freq.     279.52  E(vib)   ...       0.28 
freq.     286.06  E(vib)   ...       0.27 
freq.     292.77  E(vib)   ...       0.27 
freq.     303.54  E(vib)   ...       0.26 
freq.     309.55  E(vib)   ...       0.26 
freq.     313.16  E(vib)   ...       0.25 
freq.     317.89  E(vib)   ...       0.25 
freq.     334.13  E(vib)   ...       0.24 
freq.     334.89  E(vib)   ...       0.24 
freq.     342.73  E(vib)   ...       0.23 
freq.     349.26  E(vib)   ...       0.23 
freq.     351.19  E(vib)   ...       0.23 
freq.     359.87  E(vib)   ...       0.22 
freq.     371.24  E(vib)   ...       0.21 
freq.     388.79  E(vib)   ...       0.20 
freq.     390.15  E(vib)   ...       0.20 
freq.     400.30  E(vib)   ...       0.19 
freq.     404.54  E(vib)   ...       0.19 
freq.     424.63  E(vib)   ...       0.18 
freq.     436.23  E(vib)   ...       0.17 
freq.     448.44  E(vib)   ...       0.17 
freq.     455.65  E(vib)   ...       0.16 
freq.     465.62  E(vib)   ...       0.16 
freq.     473.80  E(vib)   ...       0.15 
freq.     477.10  E(vib)   ...       0.15 
freq.     480.64  E(vib)   ...       0.15 
freq.     497.56  E(vib)   ...       0.14 
freq.     504.26  E(vib)   ...       0.14 
freq.     505.73  E(vib)   ...       0.14 
freq.     527.45  E(vib)   ...       0.13 
freq.     541.55  E(vib)   ...       0.12 
freq.     556.88  E(vib)   ...       0.12 
freq.     578.49  E(vib)   ...       0.11 
freq.     580.14  E(vib)   ...       0.11 
freq.     590.30  E(vib)   ...       0.10 
freq.     603.76  E(vib)   ...       0.10 
freq.     622.60  E(vib)   ...       0.09 
freq.     640.83  E(vib)   ...       0.09 
freq.     659.25  E(vib)   ...       0.08 
freq.     666.19  E(vib)   ...       0.08 
freq.     680.38  E(vib)   ...       0.08 
freq.     695.61  E(vib)   ...       0.07 
freq.     700.06  E(vib)   ...       0.07 
freq.     703.18  E(vib)   ...       0.07 
freq.     709.31  E(vib)   ...       0.07 
freq.     711.33  E(vib)   ...       0.07 
freq.     723.25  E(vib)   ...       0.07 
freq.     725.70  E(vib)   ...       0.06 
freq.     732.81  E(vib)   ...       0.06 
freq.     736.96  E(vib)   ...       0.06 
freq.     748.36  E(vib)   ...       0.06 
freq.     752.56  E(vib)   ...       0.06 
freq.     758.15  E(vib)   ...       0.06 
freq.     773.10  E(vib)   ...       0.05 
freq.     782.80  E(vib)   ...       0.05 
freq.     788.60  E(vib)   ...       0.05 
freq.     805.22  E(vib)   ...       0.05 
freq.     809.37  E(vib)   ...       0.05 
freq.     816.81  E(vib)   ...       0.05 
freq.     820.54  E(vib)   ...       0.05 
freq.     830.85  E(vib)   ...       0.04 
freq.     842.25  E(vib)   ...       0.04 
freq.     848.21  E(vib)   ...       0.04 
freq.     849.86  E(vib)   ...       0.04 
freq.     861.73  E(vib)   ...       0.04 
freq.     870.87  E(vib)   ...       0.04 
freq.     871.99  E(vib)   ...       0.04 
freq.     877.98  E(vib)   ...       0.04 
freq.     898.61  E(vib)   ...       0.03 
freq.     901.55  E(vib)   ...       0.03 
freq.     902.56  E(vib)   ...       0.03 
freq.     904.83  E(vib)   ...       0.03 
freq.     905.17  E(vib)   ...       0.03 
freq.     912.70  E(vib)   ...       0.03 
freq.     927.97  E(vib)   ...       0.03 
freq.     935.03  E(vib)   ...       0.03 
freq.     937.65  E(vib)   ...       0.03 
freq.     940.70  E(vib)   ...       0.03 
freq.     944.30  E(vib)   ...       0.03 
freq.     947.88  E(vib)   ...       0.03 
freq.     950.60  E(vib)   ...       0.03 
freq.     956.55  E(vib)   ...       0.03 
freq.     966.59  E(vib)   ...       0.03 
freq.     969.48  E(vib)   ...       0.03 
freq.     974.29  E(vib)   ...       0.03 
freq.     979.05  E(vib)   ...       0.03 
freq.     981.46  E(vib)   ...       0.02 
freq.     986.74  E(vib)   ...       0.02 
freq.     998.54  E(vib)   ...       0.02 
freq.    1001.51  E(vib)   ...       0.02 
freq.    1011.32  E(vib)   ...       0.02 
freq.    1012.84  E(vib)   ...       0.02 
freq.    1014.25  E(vib)   ...       0.02 
freq.    1029.00  E(vib)   ...       0.02 
freq.    1034.15  E(vib)   ...       0.02 
freq.    1034.55  E(vib)   ...       0.02 
freq.    1042.06  E(vib)   ...       0.02 
freq.    1047.41  E(vib)   ...       0.02 
freq.    1052.04  E(vib)   ...       0.02 
freq.    1052.80  E(vib)   ...       0.02 
freq.    1060.01  E(vib)   ...       0.02 
freq.    1073.97  E(vib)   ...       0.02 
freq.    1077.75  E(vib)   ...       0.02 
freq.    1081.72  E(vib)   ...       0.02 
freq.    1088.67  E(vib)   ...       0.02 
freq.    1094.62  E(vib)   ...       0.02 
freq.    1098.28  E(vib)   ...       0.02 
freq.    1105.49  E(vib)   ...       0.02 
freq.    1110.81  E(vib)   ...       0.01 
freq.    1115.14  E(vib)   ...       0.01 
freq.    1129.63  E(vib)   ...       0.01 
freq.    1132.25  E(vib)   ...       0.01 
freq.    1134.07  E(vib)   ...       0.01 
freq.    1138.80  E(vib)   ...       0.01 
freq.    1141.06  E(vib)   ...       0.01 
freq.    1149.85  E(vib)   ...       0.01 
freq.    1157.76  E(vib)   ...       0.01 
freq.    1160.50  E(vib)   ...       0.01 
freq.    1163.87  E(vib)   ...       0.01 
freq.    1168.54  E(vib)   ...       0.01 
freq.    1171.52  E(vib)   ...       0.01 
freq.    1181.96  E(vib)   ...       0.01 
freq.    1196.56  E(vib)   ...       0.01 
freq.    1199.74  E(vib)   ...       0.01 
freq.    1201.71  E(vib)   ...       0.01 
freq.    1204.11  E(vib)   ...       0.01 
freq.    1208.31  E(vib)   ...       0.01 
freq.    1221.67  E(vib)   ...       0.01 
freq.    1224.11  E(vib)   ...       0.01 
freq.    1228.70  E(vib)   ...       0.01 
freq.    1229.86  E(vib)   ...       0.01 
freq.    1230.47  E(vib)   ...       0.01 
freq.    1240.87  E(vib)   ...       0.01 
freq.    1242.35  E(vib)   ...       0.01 
freq.    1248.01  E(vib)   ...       0.01 
freq.    1248.89  E(vib)   ...       0.01 
freq.    1257.44  E(vib)   ...       0.01 
freq.    1257.81  E(vib)   ...       0.01 
freq.    1260.65  E(vib)   ...       0.01 
freq.    1262.30  E(vib)   ...       0.01 
freq.    1265.79  E(vib)   ...       0.01 
freq.    1272.10  E(vib)   ...       0.01 
freq.    1273.71  E(vib)   ...       0.01 
freq.    1277.33  E(vib)   ...       0.01 
freq.    1281.79  E(vib)   ...       0.01 
freq.    1287.94  E(vib)   ...       0.01 
freq.    1289.12  E(vib)   ...       0.01 
freq.    1291.64  E(vib)   ...       0.01 
freq.    1292.73  E(vib)   ...       0.01 
freq.    1296.97  E(vib)   ...       0.01 
freq.    1299.80  E(vib)   ...       0.01 
freq.    1301.08  E(vib)   ...       0.01 
freq.    1305.63  E(vib)   ...       0.01 
freq.    1307.94  E(vib)   ...       0.01 
freq.    1311.82  E(vib)   ...       0.01 
freq.    1314.79  E(vib)   ...       0.01 
freq.    1319.86  E(vib)   ...       0.01 
freq.    1321.48  E(vib)   ...       0.01 
freq.    1323.17  E(vib)   ...       0.01 
freq.    1326.47  E(vib)   ...       0.01 
freq.    1327.28  E(vib)   ...       0.01 
freq.    1327.99  E(vib)   ...       0.01 
freq.    1331.74  E(vib)   ...       0.01 
freq.    1341.25  E(vib)   ...       0.01 
freq.    1342.29  E(vib)   ...       0.01 
freq.    1347.12  E(vib)   ...       0.01 
freq.    1349.57  E(vib)   ...       0.01 
freq.    1349.91  E(vib)   ...       0.01 
freq.    1349.93  E(vib)   ...       0.01 
freq.    1354.54  E(vib)   ...       0.01 
freq.    1356.92  E(vib)   ...       0.01 
freq.    1358.79  E(vib)   ...       0.01 
freq.    1363.31  E(vib)   ...       0.01 
freq.    1367.45  E(vib)   ...       0.01 
freq.    1373.04  E(vib)   ...       0.01 
freq.    1373.57  E(vib)   ...       0.01 
freq.    1396.12  E(vib)   ...       0.00 
freq.    1405.05  E(vib)   ...       0.00 
freq.    1419.09  E(vib)   ...       0.00 
freq.    1421.99  E(vib)   ...       0.00 
freq.    1422.35  E(vib)   ...       0.00 
freq.    1427.26  E(vib)   ...       0.00 
freq.    1429.41  E(vib)   ...       0.00 
freq.    1429.99  E(vib)   ...       0.00 
freq.    1433.21  E(vib)   ...       0.00 
freq.    1437.65  E(vib)   ...       0.00 
freq.    1437.87  E(vib)   ...       0.00 
freq.    1438.51  E(vib)   ...       0.00 
freq.    1440.19  E(vib)   ...       0.00 
freq.    1441.49  E(vib)   ...       0.00 
freq.    1442.69  E(vib)   ...       0.00 
freq.    1443.72  E(vib)   ...       0.00 
freq.    1445.67  E(vib)   ...       0.00 
freq.    1448.20  E(vib)   ...       0.00 
freq.    1448.61  E(vib)   ...       0.00 
freq.    1450.83  E(vib)   ...       0.00 
freq.    1451.35  E(vib)   ...       0.00 
freq.    1453.68  E(vib)   ...       0.00 
freq.    1454.08  E(vib)   ...       0.00 
freq.    1455.59  E(vib)   ...       0.00 
freq.    1456.67  E(vib)   ...       0.00 
freq.    1456.97  E(vib)   ...       0.00 
freq.    1458.49  E(vib)   ...       0.00 
freq.    1462.84  E(vib)   ...       0.00 
freq.    1468.19  E(vib)   ...       0.00 
freq.    1470.73  E(vib)   ...       0.00 
freq.    1479.46  E(vib)   ...       0.00 
freq.    1485.15  E(vib)   ...       0.00 
freq.    1490.20  E(vib)   ...       0.00 
freq.    1495.19  E(vib)   ...       0.00 
freq.    1512.75  E(vib)   ...       0.00 
freq.    1639.67  E(vib)   ...       0.00 
freq.    1642.49  E(vib)   ...       0.00 
freq.    1663.13  E(vib)   ...       0.00 
freq.    1671.16  E(vib)   ...       0.00 
freq.    1674.37  E(vib)   ...       0.00 
freq.    1681.95  E(vib)   ...       0.00 
freq.    1711.52  E(vib)   ...       0.00 
freq.    2913.73  E(vib)   ...       0.00 
freq.    2914.03  E(vib)   ...       0.00 
freq.    2917.25  E(vib)   ...       0.00 
freq.    2927.78  E(vib)   ...       0.00 
freq.    2935.16  E(vib)   ...       0.00 
freq.    2938.20  E(vib)   ...       0.00 
freq.    2941.24  E(vib)   ...       0.00 
freq.    2946.06  E(vib)   ...       0.00 
freq.    2946.67  E(vib)   ...       0.00 
freq.    2948.54  E(vib)   ...       0.00 
freq.    2950.94  E(vib)   ...       0.00 
freq.    2952.99  E(vib)   ...       0.00 
freq.    2954.49  E(vib)   ...       0.00 
freq.    2954.97  E(vib)   ...       0.00 
freq.    2956.26  E(vib)   ...       0.00 
freq.    2959.15  E(vib)   ...       0.00 
freq.    2959.25  E(vib)   ...       0.00 
freq.    2963.42  E(vib)   ...       0.00 
freq.    2966.89  E(vib)   ...       0.00 
freq.    2969.08  E(vib)   ...       0.00 
freq.    2969.99  E(vib)   ...       0.00 
freq.    2971.86  E(vib)   ...       0.00 
freq.    2973.51  E(vib)   ...       0.00 
freq.    2974.99  E(vib)   ...       0.00 
freq.    2977.22  E(vib)   ...       0.00 
freq.    2979.70  E(vib)   ...       0.00 
freq.    2980.23  E(vib)   ...       0.00 
freq.    2980.33  E(vib)   ...       0.00 
freq.    2985.52  E(vib)   ...       0.00 
freq.    2985.92  E(vib)   ...       0.00 
freq.    2986.97  E(vib)   ...       0.00 
freq.    2992.78  E(vib)   ...       0.00 
freq.    2997.37  E(vib)   ...       0.00 
freq.    2997.76  E(vib)   ...       0.00 
freq.    3006.47  E(vib)   ...       0.00 
freq.    3010.40  E(vib)   ...       0.00 
freq.    3011.74  E(vib)   ...       0.00 
freq.    3012.01  E(vib)   ...       0.00 
freq.    3016.16  E(vib)   ...       0.00 
freq.    3017.71  E(vib)   ...       0.00 
freq.    3018.23  E(vib)   ...       0.00 
freq.    3022.10  E(vib)   ...       0.00 
freq.    3023.16  E(vib)   ...       0.00 
freq.    3029.04  E(vib)   ...       0.00 
freq.    3029.97  E(vib)   ...       0.00 
freq.    3032.00  E(vib)   ...       0.00 
freq.    3035.03  E(vib)   ...       0.00 
freq.    3035.73  E(vib)   ...       0.00 
freq.    3038.40  E(vib)   ...       0.00 
freq.    3038.92  E(vib)   ...       0.00 
freq.    3039.59  E(vib)   ...       0.00 
freq.    3044.20  E(vib)   ...       0.00 
freq.    3045.30  E(vib)   ...       0.00 
freq.    3046.21  E(vib)   ...       0.00 
freq.    3053.86  E(vib)   ...       0.00 
freq.    3054.93  E(vib)   ...       0.00 
freq.    3060.18  E(vib)   ...       0.00 
freq.    3076.25  E(vib)   ...       0.00 
freq.    3294.82  E(vib)   ...       0.00 
freq.    3324.83  E(vib)   ...       0.00 
freq.    3418.87  E(vib)   ...       0.00 
freq.    3430.60  E(vib)   ...       0.00 
freq.    3509.06  E(vib)   ...       0.00 
freq.    3526.69  E(vib)   ...       0.00 

------------
INNER ENERGY
------------

The inner energy is: U= E(el) + E(ZPE) + E(vib) + E(rot) + E(trans)
    E(el)   - is the total energy from the electronic structure calculation
              = E(kin-el) + E(nuc-el) + E(el-el) + E(nuc-nuc)
    E(ZPE)  - the the zero temperature vibrational energy from the frequency calculation
    E(vib)  - the the finite temperature correction to E(ZPE) due to population
              of excited vibrational states
    E(rot)  - is the rotational thermal energy
    E(trans)- is the translational thermal energy

Summary of contributions to the inner energy U:
Electronic energy                ...  -2380.08115728 Eh
Zero point energy                ...      0.97790668 Eh     613.64 kcal/mol
Thermal vibrational correction   ...      0.05536358 Eh      34.74 kcal/mol
Thermal rotational correction    ...      0.00141627 Eh       0.89 kcal/mol
Thermal translational correction ...      0.00141627 Eh       0.89 kcal/mol
-----------------------------------------------------------------------
Total thermal energy                  -2379.04505447 Eh


Summary of corrections to the electronic energy:
(perhaps to be used in another calculation)
Total thermal correction                  0.05819612 Eh      36.52 kcal/mol
Non-thermal (ZPE) correction              0.97790668 Eh     613.64 kcal/mol
-----------------------------------------------------------------------
Total correction                          1.03610280 Eh     650.16 kcal/mol


--------
ENTHALPY
--------

The enthalpy is H = U + kB*T
                kB is Boltzmann's constant
Total free energy                 ...  -2379.04505447 Eh 
Thermal Enthalpy correction       ...      0.00094421 Eh       0.59 kcal/mol
-----------------------------------------------------------------------
Total Enthalpy                    ...  -2379.04411026 Eh


Note: Only C1 symmetry has been detected, increase convergence thresholds 
      if your molecule has a higher symmetry. Symmetry factor of 1.0 is   
      used for the rotational entropy correction. 
 

Note: Rotational entropy computed according to Herzberg 
Infrared and Raman Spectra, Chapter V,1, Van Nostrand Reinhold, 1945 
Point Group:  C1, Symmetry Number:   1  
Rotational constants in cm-1:     0.002346     0.001633     0.001244 

Vibrational entropy computed according to the QRRHO of S. Grimme
Chem.Eur.J. 2012 18 9955


-------
ENTROPY
-------

The entropy contributions are T*S = T*(S(el)+S(vib)+S(rot)+S(trans))
     S(el)   - electronic entropy
     S(vib)  - vibrational entropy
     S(rot)  - rotational entropy
     S(trans)- translational entropy
The entropies will be listed as mutliplied by the temperature to get
units of energy

Electronic entropy                ...      0.00000000 Eh      0.00 kcal/mol
Vibrational entropy               ...      0.10105651 Eh     63.41 kcal/mol
Rotational entropy                ...      0.01855693 Eh     11.64 kcal/mol
Translational entropy             ...      0.02166895 Eh     13.60 kcal/mol
-----------------------------------------------------------------------
Final entropy term                ...      0.14128239 Eh     88.66 kcal/mol

In case the symmetry of your molecule has not been determined correctly
or in case you have a reason to use a different symmetry number we print 
out the resulting rotational entropy values for sn=1,12 :
 --------------------------------------------------------
|  sn= 1 | S(rot)=       0.01855693 Eh     11.64 kcal/mol|
|  sn= 2 | S(rot)=       0.01790248 Eh     11.23 kcal/mol|
|  sn= 3 | S(rot)=       0.01751964 Eh     10.99 kcal/mol|
|  sn= 4 | S(rot)=       0.01724802 Eh     10.82 kcal/mol|
|  sn= 5 | S(rot)=       0.01703733 Eh     10.69 kcal/mol|
|  sn= 6 | S(rot)=       0.01686519 Eh     10.58 kcal/mol|
|  sn= 7 | S(rot)=       0.01671964 Eh     10.49 kcal/mol|
|  sn= 8 | S(rot)=       0.01659356 Eh     10.41 kcal/mol|
|  sn= 9 | S(rot)=       0.01648236 Eh     10.34 kcal/mol|
|  sn=10 | S(rot)=       0.01638288 Eh     10.28 kcal/mol|
|  sn=11 | S(rot)=       0.01629289 Eh     10.22 kcal/mol|
|  sn=12 | S(rot)=       0.01621073 Eh     10.17 kcal/mol|
 --------------------------------------------------------


-------------------
GIBBS FREE ENERGY
-------------------

The Gibbs free energy is G = H - T*S

Total enthalpy                    ...  -2379.04411026 Eh 
Total entropy correction          ...     -0.14128239 Eh    -88.66 kcal/mol
-----------------------------------------------------------------------
Final Gibbs free energy         ...  -2379.18539266 Eh

For completeness - the Gibbs free energy minus the electronic energy
G-E(el)                           ...      0.89576462 Eh    562.10 kcal/mol

--------------------------------------------------------------------------
WARNING: No preset parameters were found for the device that Open MPI
detected:

  Local host:            eu-g1-033-3
  Device name:           mlx5_0
  Device vendor ID:      0x02c9
  Device vendor part ID: 4123

Default device parameters will be used, which may result in lower
performance.  You can edit any of the files specified by the
btl_openib_device_param_files MCA parameter to set values for your
device.

NOTE: You can turn off this warning by setting the MCA parameter
      btl_openib_warn_no_device_params_found to 0.
--------------------------------------------------------------------------
--------------------------------------------------------------------------
WARNING: There was an error initializing an OpenFabrics device.

  Local host:   eu-g1-033-3
  Local device: mlx5_0
--------------------------------------------------------------------------

Timings for individual modules:

Sum of individual times         ...    55511.842 sec (= 925.197 min)
GTO integral calculation        ...      284.053 sec (=   4.734 min)   0.5 %
SCF iterations                  ...     6812.753 sec (= 113.546 min)  12.3 %
SCF Gradient evaluation         ...     1818.088 sec (=  30.301 min)   3.3 %
Geometry relaxation             ...       98.717 sec (=   1.645 min)   0.2 %
Analytical frequency calculation...    46498.231 sec (= 774.971 min)  83.8 %
                             ****ORCA TERMINATED NORMALLY****
TOTAL RUN TIME: 0 days 15 hours 27 minutes 56 seconds 31 msec
