
                                 *****************
                                 * O   R   C   A *
                                 *****************

           --- An Ab Initio, DFT and Semiempirical electronic structure package ---

                  #######################################################
                  #                        -***-                        #
                  #          Department of theory and spectroscopy      #
                  #               Directorship: Frank Neese             #
                  #        Max Planck Institute fuer Kohlenforschung    #
                  #                Kaiser Wilhelm Platz 1               #
                  #                 D-45470 Muelheim/Ruhr               #
                  #                      Germany                        #
                  #                                                     #
                  #                  All rights reserved                #
                  #                        -***-                        #
                  #######################################################


                         Program Version 4.2.0 -  RELEASE  -


 With contributions from (in alphabetic order):
   Daniel Aravena         : Magnetic Suceptibility
   Michael Atanasov       : Ab Initio Ligand Field Theory (pilot matlab implementation)
   Alexander A. Auer      : GIAO ZORA, VPT2
   Ute Becker             : Parallelization
   Giovanni Bistoni       : ED, misc. LED, open-shell LED, HFLED
   Martin Brehm           : Molecular dynamics
   Dmytro Bykov           : SCF Hessian
   Vijay G. Chilkuri      : MRCI spin determinant printing, contributions to CSF-ICE
   Dipayan Datta          : RHF DLPNO-CCSD density
   Achintya Kumar Dutta   : EOM-CC, STEOM-CC
   Dmitry Ganyushin       : Spin-Orbit,Spin-Spin,Magnetic field MRCI
   Miquel Garcia          : C-PCM Hessian, Gaussian charge scheme
   Yang Guo               : DLPNO-NEVPT2, CIM, IAO-localization
   Andreas Hansen         : Spin unrestricted coupled pair/coupled cluster methods
   Benjamin Helmich-Paris : CASSCF linear response (MC-RPA)
   Lee Huntington         : MR-EOM, pCC
   Robert Izsak           : Overlap fitted RIJCOSX, COSX-SCS-MP3, EOM
   Christian Kollmar      : KDIIS, OOCD, Brueckner-CCSD(T), CCSD density
   Simone Kossmann        : Meta GGA functionals, TD-DFT gradient, OOMP2, MP2 Hessian
   Martin Krupicka        : AUTO-CI
   Lucas Lang             : DCDCAS
   Dagmar Lenk            : GEPOL surface, SMD
   Dimitrios Liakos       : Extrapolation schemes; Compound Job, initial MDCI parallelization
   Dimitrios Manganas     : Further ROCIS development; embedding schemes
   Dimitrios Pantazis     : SARC Basis sets
   Taras Petrenko         : DFT Hessian,TD-DFT gradient, ASA, ECA, R-Raman, ABS, FL, XAS/XES, NRVS
   Peter Pinski           : DLPNO-MP2, DLPNO-MP2 Gradient
   Christoph Reimann      : Effective Core Potentials
   Marius Retegan         : Local ZFS, SOC
   Christoph Riplinger    : Optimizer, TS searches, QM/MM, DLPNO-CCSD(T), (RO)-DLPNO pert. Triples
   Tobias Risthaus        : Range-separated hybrids, TD-DFT gradient, RPA, STAB
   Michael Roemelt        : Original ROCIS implementation
   Masaaki Saitow         : Open-shell DLPNO-CCSD energy and density
   Barbara Sandhoefer     : DKH picture change effects
   Avijit Sen             : IP-ROCIS
   Kantharuban Sivalingam : CASSCF convergence, NEVPT2, FIC-MRCI
   Bernardo de Souza      : ESD, SOC TD-DFT
   Georgi Stoychev        : AutoAux, RI-MP2 NMR
   Willem Van den Heuvel  : Paramagnetic NMR
   Boris Wezisla          : Elementary symmetry handling
   Frank Wennmohs         : Technical directorship


 We gratefully acknowledge several colleagues who have allowed us to
 interface, adapt or use parts of their codes:
   Stefan Grimme, W. Hujo, H. Kruse,             : VdW corrections, initial TS optimization,
                  C. Bannwarth                     DFT functionals, gCP, sTDA/sTD-DF
   Ed Valeev, F. Pavosevic, A. Kumar             : LibInt (2-el integral package), F12 methods
   Garnet Chan, S. Sharma, J. Yang, R. Olivares  : DMRG
   Ulf Ekstrom                                   : XCFun DFT Library
   Mihaly Kallay                                 : mrcc  (arbitrary order and MRCC methods)
   Andreas Klamt, Michael Diedenhofen            : otool_cosmo (COSMO solvation model)
   Jiri Pittner, Ondrej Demel                    : Mk-CCSD
   Frank Weinhold                                : gennbo (NPA and NBO analysis)
   Christopher J. Cramer and Donald G. Truhlar   : smd solvation model
   Lars Goerigk                                  : TD-DFT with DH, B97 family of functionals
   V. Asgeirsson, H. Jonsson                     : NEB implementation
   FAccTs GmbH                                   : IRC, NEB, NEB-TS, Multilevel, MM, QM/MM, CI optimization
   S Lehtola, MJT Oliveira, MAL Marques          : LibXC Library


 Your calculation uses the libint2 library for the computation of 2-el integrals
 For citations please refer to: http://libint.valeyev.net

 Your ORCA version has been built with support for libXC version: 4.2.3
 For citations please refer to: https://tddft.org/programs/libxc/

 This ORCA versions uses:
   CBLAS   interface :  Fast vector & matrix operations
   LAPACKE interface :  Fast linear algebra routines
   SCALAPACK package :  Parallel linear algebra routines




***************************************
The coordinates will be read from file: 78.xyz
***************************************


Your calculation utilizes the atom-pairwise dispersion correction
with the Becke-Johnson damping scheme (D3BJ)
Cite in your paper:
S.Grimme, S.Ehrlich, L.Goerigk, J Comput Chem, (2011), 32, 1456–1465 
S.Grimme, J.Antony, S.Ehrlich and H.Krieg, J.Chem.Phys., 132, (2010), 154104 
   

----- Orbital basis set information -----
Your calculation utilizes the basis: def2-TZVP
   F. Weigend and R. Ahlrichs, Phys. Chem. Chem. Phys. 7, 3297 (2005).

----- AuxJ basis set information -----
Your calculation utilizes the auxiliary basis: def2/J
   F. Weigend, Phys. Chem. Chem. Phys. 8, 1057 (2006).

================================================================================
                                        WARNINGS
                       Please study these warnings very carefully!
================================================================================


WARNING: Geometry Optimization
  ===> : Switching off AutoStart
         For restart on a previous wavefunction, please use MOREAD

INFO   : the flag for use of LIBINT has been found!

================================================================================
                                       INPUT FILE
================================================================================
NAME = 78.inp
|  1> !RI BP86 def2-tzvp def2/J D3BJ VeryTightSCF VeryTightOpt Grid5 FinalGrid6 freq
|  2> %maxcore 4000
|  3> %pal nprocs 24
|  4> end
|  5> * xyzfile 0 1 78.xyz 
|  6> 
|  7>                          ****END OF INPUT****
================================================================================

                       *****************************
                       * Geometry Optimization Run *
                       *****************************

Geometry optimization settings:
Update method            Update   .... BFGS
Choice of coordinates    CoordSys .... Z-matrix Internals
Initial Hessian          InHess   .... Almoef's Model

Convergence Tolerances:
Energy Change            TolE     ....  2.0000e-07 Eh
Max. Gradient            TolMAXG  ....  3.0000e-05 Eh/bohr
RMS Gradient             TolRMSG  ....  8.0000e-06 Eh/bohr
Max. Displacement        TolMAXD  ....  2.0000e-04 bohr
RMS Displacement         TolRMSD  ....  1.0000e-04 bohr
Strict Convergence                ....  False
------------------------------------------------------------------------------
                        ORCA OPTIMIZATION COORDINATE SETUP
------------------------------------------------------------------------------

The optimization will be done in new redundant internal coordinates
Making redundant internal coordinates   ...  (new redundants) done
Evaluating the initial hessian          ...  (Almloef) done
Evaluating the coordinates              ...  done
Calculating the B-matrix                .... done
Calculating the G-matrix                .... done
Diagonalizing the G-matrix              .... done
Small eigenvalue found = 3.625e-04
Small eigenvalue found = 1.073e-03
Small eigenvalue found = 2.505e-03
Small eigenvalue found = 2.739e-03
Small eigenvalue found = 3.262e-03
Small eigenvalue found = 4.607e-03
Small eigenvalue found = 6.675e-03
Small eigenvalue found = 8.498e-03
Small eigenvalue found = 1.092e-02
Small eigenvalue found = 1.118e-02
Small eigenvalue found = 1.246e-02
Small eigenvalue found = 1.528e-02
Small eigenvalue found = 1.674e-02
Small eigenvalue found = 1.820e-02
Small eigenvalue found = 2.085e-02
Small eigenvalue found = 2.359e-02
Small eigenvalue found = 2.702e-02
Small eigenvalue found = 2.790e-02
Small eigenvalue found = 2.998e-02
The first mode is                       ....  326
The number of degrees of freedom        ....  339

    -----------------------------------------------------------------
                    Redundant Internal Coordinates


    -----------------------------------------------------------------
         Definition                    Initial Value    Approx d2E/dq
    -----------------------------------------------------------------
      1. B(C   1,O   0)                  1.2288         1.011610   
      2. B(C   2,C   1)                  1.5618         0.332435   
      3. B(C   3,C   2)                  1.5252         0.380219   
      4. B(C   4,C   3)                  1.5362         0.365224   
      5. B(C   5,C   4)                  1.5347         0.367227   
      6. B(N   6,C   2)                  1.4863         0.392817   
      7. B(N   6,C   5)                  1.4799         0.402227   
      8. B(C   7,N   6)                  1.3442         0.662051   
      9. B(O   8,C   7)                  1.2533         0.924716   
     10. B(N   9,C   1)                  1.3538         0.639088   
     11. B(C  10,N   9)                  1.4569         0.437701   
     12. B(C  11,C  10)                  1.5362         0.365195   
     13. B(N  12,C  11)                  1.3728         0.596201   
     14. B(C  13,N  12)                  1.4677         0.420581   
     15. B(C  14,C  13)                  1.5507         0.346260   
     16. B(N  15,C  14)                  1.3660         0.611118   
     17. B(C  16,N  15)                  1.4492         0.450211   
     18. B(C  17,C  16)                  1.5327         0.369927   
     19. B(C  18,C  17)                  1.5476         0.350249   
     20. B(C  19,C  18)                  1.5342         0.367838   
     21. B(N  20,C  19)                  1.3612         0.622000   
     22. B(C  21,N  20)                  1.4493         0.450117   
     23. B(C  22,C  21)                  1.5286         0.375505   
     24. B(N  23,C  22)                  1.3609         0.622716   
     25. B(C  24,N  23)                  1.4504         0.448221   
     26. B(C  24,C   7)                  1.5343         0.367702   
     27. B(C  25,C  24)                  1.5360         0.365461   
     28. B(O  26,C  22)                  1.2340         0.992718   
     29. B(C  27,C  21)                  1.5470         0.350977   
     30. B(C  28,C  27)                  1.5360         0.365452   
     31. B(C  29,C  28)                  1.5344         0.367604   
     32. B(C  30,C  28)                  1.5336         0.368608   
     33. B(O  31,C  19)                  1.2326         0.997789   
     34. B(C  32,C  18)                  1.5432         0.355957   
     35. B(C  33,C  32)                  1.5221         0.384517   
     36. B(C  34,C  33)                  1.5332         0.369263   
     37. B(C  35,C  34)                  1.5285         0.375586   
     38. B(C  36,C  35)                  1.5317         0.371226   
     39. B(C  37,C  36)                  1.5338         0.368419   
     40. B(C  38,C  37)                  1.5318         0.371065   
     41. B(C  39,C  38)                  1.5301         0.373417   
     42. B(C  40,C  39)                  1.5309         0.372277   
     43. B(C  41,C  40)                  1.5299         0.373716   
     44. B(O  42,C  32)                  1.2142         1.067421   
     45. B(O  43,C  17)                  1.4263         0.489682   
     46. B(O  44,C  14)                  1.2235         1.031747   
     47. B(C  45,C  13)                  1.5314         0.371593   
     48. B(C  46,C  45)                  1.5273         0.377320   
     49. B(O  47,C  11)                  1.2279         1.014973   
     50. B(C  48,C  10)                  1.5704         0.322103   
     51. B(C  49,C  48)                  1.5312         0.371977   
     52. B(C  50,C  48)                  1.5326         0.370078   
     53. B(H  51,C   2)                  1.0993         0.348021   
     54. B(H  52,C   3)                  1.0996         0.347606   
     55. B(H  53,C   3)                  1.0954         0.353023   
     56. B(H  54,C   4)                  1.0981         0.349498   
     57. B(H  55,C   4)                  1.0966         0.351435   
     58. B(H  56,C   5)                  1.0988         0.348683   
     59. B(H  57,C   5)                  1.1007         0.346185   
     60. B(H  58,N   9)                  1.0259         0.408138   
     61. B(H  59,C  10)                  1.0980         0.349701   
     62. B(H  60,N  12)                  1.0182         0.419905   
     63. B(H  61,C  13)                  1.1048         0.340990   
     64. B(H  62,N  15)                  1.0154         0.424171   
     65. B(H  63,C  16)                  1.1021         0.344381   
     66. B(H  64,C  16)                  1.0946         0.354067   
     67. B(H  65,C  17)                  1.1121         0.332014   
     68. B(H  66,C  18)                  1.1081         0.336996   
     69. B(H  67,N  20)                  1.0186         0.419294   
     70. B(H  68,C  21)                  1.1018         0.344865   
     71. B(H  69,H  60)                  2.9882         0.000065   
     72. B(H  69,N  23)                  1.0180         0.420189   
     73. B(H  70,C  24)                  1.0984         0.349127   
     74. B(H  71,C  25)                  1.0972         0.350661   
     75. B(H  72,C  25)                  1.0982         0.349422   
     76. B(H  73,C  25)                  1.0989         0.348502   
     77. B(H  74,C  27)                  1.1020         0.344610   
     78. B(H  75,C  27)                  1.1011         0.345697   
     79. B(H  76,C  28)                  1.1037         0.342449   
     80. B(H  77,H  61)                  2.9311         0.000080   
     81. B(H  77,C  29)                  1.1010         0.345867   
     82. B(H  78,C  29)                  1.1004         0.346633   
     83. B(H  79,C  29)                  1.0993         0.348034   
     84. B(H  80,C  30)                  1.0999         0.347300   
     85. B(H  81,C  30)                  1.0995         0.347734   
     86. B(H  82,C  30)                  1.1011         0.345771   
     87. B(H  83,C  33)                  1.1012         0.345531   
     88. B(H  84,C  33)                  1.1054         0.340327   
     89. B(H  85,C  34)                  1.1004         0.346638   
     90. B(H  86,H  78)                  4.7476         0.000000   
     91. B(H  86,C  34)                  1.1008         0.346093   
     92. B(H  87,C  35)                  1.1032         0.343027   
     93. B(H  88,C  35)                  1.1052         0.340562   
     94. B(H  89,C  36)                  1.1027         0.343641   
     95. B(H  90,C  36)                  1.1042         0.341845   
     96. B(H  91,C  37)                  1.1046         0.341278   
     97. B(H  92,C  37)                  1.1032         0.343030   
     98. B(H  93,H  82)                  4.6721         0.000000   
     99. B(H  93,C  38)                  1.1049         0.340938   
    100. B(H  94,C  38)                  1.1030         0.343336   
    101. B(H  95,C  39)                  1.1046         0.341302   
    102. B(H  96,C  39)                  1.1045         0.341370   
    103. B(H  97,C  40)                  1.1035         0.342647   
    104. B(H  98,C  40)                  1.1036         0.342581   
    105. B(H  99,C  41)                  1.0995         0.347687   
    106. B(H 100,C  41)                  1.1007         0.346206   
    107. B(H 101,C  41)                  1.1007         0.346158   
    108. B(H 102,O  43)                  0.9725         0.496598   
    109. B(H 103,C  45)                  1.0980         0.349611   
    110. B(H 104,C  45)                  1.0984         0.349133   
    111. B(H 105,C  46)                  1.0987         0.348829   
    112. B(H 106,C  46)                  1.1018         0.344767   
    113. B(H 107,C  46)                  1.1003         0.346786   
    114. B(H 108,C  48)                  1.1041         0.341976   
    115. B(H 109,C  49)                  1.0996         0.347628   
    116. B(H 110,H  65)                  3.1123         0.000041   
    117. B(H 110,C  49)                  1.0984         0.349202   
    118. B(H 111,C  49)                  1.0997         0.347473   
    119. B(H 112,C  50)                  1.0986         0.348939   
    120. B(H 113,C  50)                  1.0968         0.351253   
    121. B(H 114,C  50)                  1.1002         0.346875   
    122. A(O   0,C   1,N   9)          126.0521         0.470795   
    123. A(C   2,C   1,N   9)          111.7903         0.388246   
    124. A(O   0,C   1,C   2)          122.1422         0.421026   
    125. A(C   1,C   2,H  51)          109.1678         0.316423   
    126. A(N   6,C   2,H  51)          108.5028         0.323235   
    127. A(C   1,C   2,N   6)          110.4162         0.357032   
    128. A(C   1,C   2,C   3)          111.5163         0.357270   
    129. A(C   3,C   2,H  51)          114.1063         0.323442   
    130. A(C   3,C   2,N   6)          102.9359         0.365305   
    131. A(C   4,C   3,H  53)          112.4088         0.322068   
    132. A(C   4,C   3,H  52)          111.2101         0.321254   
    133. A(C   2,C   3,C   4)          102.8724         0.363042   
    134. A(C   2,C   3,H  53)          110.7985         0.324201   
    135. A(C   2,C   3,H  52)          110.0072         0.323379   
    136. A(H  52,C   3,H  53)          109.4024         0.288335   
    137. A(H  54,C   4,H  55)          108.2600         0.288377   
    138. A(C   3,C   4,H  55)          113.3575         0.321831   
    139. A(C   3,C   4,C   5)          103.9563         0.360894   
    140. A(C   3,C   4,H  54)          109.1811         0.321540   
    141. A(C   5,C   4,H  55)          111.7529         0.322119   
    142. A(C   5,C   4,H  54)          110.2739         0.321828   
    143. A(H  56,C   5,H  57)          108.2971         0.287594   
    144. A(C   4,C   5,N   6)          103.7838         0.364612   
    145. A(C   4,C   5,H  56)          112.7823         0.321705   
    146. A(N   6,C   5,H  57)          109.8442         0.324211   
    147. A(N   6,C   5,H  56)          110.6903         0.324595   
    148. A(C   4,C   5,H  57)          111.3964         0.321326   
    149. A(C   5,N   6,C   7)          125.9174         0.401351   
    150. A(C   2,N   6,C   7)          122.6423         0.399682   
    151. A(C   2,N   6,C   5)          111.4323         0.366544   
    152. A(O   8,C   7,C  24)          119.0377         0.421855   
    153. A(N   6,C   7,O   8)          122.6888         0.466113   
    154. A(N   6,C   7,C  24)          118.2694         0.397610   
    155. A(C   1,N   9,C  10)          126.4591         0.404850   
    156. A(C  10,N   9,H  58)          119.2856         0.334957   
    157. A(C   1,N   9,H  58)          114.0202         0.356957   
    158. A(C  48,C  10,H  59)          108.3515         0.315050   
    159. A(C  11,C  10,H  59)          105.9025         0.321566   
    160. A(N   9,C  10,C  11)          111.6779         0.369583   
    161. A(N   9,C  10,C  48)          114.2226         0.361721   
    162. A(N   9,C  10,H  59)          109.2477         0.329303   
    163. A(C  11,C  10,C  48)          107.0583         0.352940   
    164. A(N  12,C  11,O  47)          122.4335         0.465122   
    165. A(C  10,C  11,O  47)          120.0156         0.428420   
    166. A(C  10,C  11,N  12)          117.0749         0.389912   
    167. A(C  13,N  12,H  60)          116.9624         0.334319   
    168. A(C  11,N  12,C  13)          121.7836         0.397127   
    169. A(C  11,N  12,H  60)          120.4976         0.354479   
    170. A(C  14,C  13,C  45)          111.8342         0.358352   
    171. A(N  12,C  13,H  61)          105.3209         0.325787   
    172. A(C  14,C  13,H  61)          104.6591         0.317472   
    173. A(N  12,C  13,C  14)          112.5442         0.363730   
    174. A(C  45,C  13,H  61)          108.2416         0.321153   
    175. A(N  12,C  13,C  45)          113.5269         0.368155   
    176. A(C  13,C  14,N  15)          114.4066         0.387975   
    177. A(N  15,C  14,O  44)          124.1965         0.468637   
    178. A(C  13,C  14,O  44)          121.2003         0.425600   
    179. A(C  14,N  15,H  62)          116.8107         0.356580   
    180. A(C  16,N  15,H  62)          118.2269         0.338699   
    181. A(C  14,N  15,C  16)          123.1953         0.403667   
    182. A(H  63,C  16,H  64)          108.2635         0.288048   
    183. A(C  17,C  16,H  64)          111.4294         0.322901   
    184. A(N  15,C  16,H  63)          111.2039         0.330003   
    185. A(C  17,C  16,H  63)          107.5757         0.321437   
    186. A(N  15,C  16,C  17)          110.2243         0.372202   
    187. A(N  15,C  16,H  64)          108.1484         0.331521   
    188. A(O  43,C  17,H  65)          109.3592         0.332607   
    189. A(C  18,C  17,H  65)          106.5654         0.316686   
    190. A(C  16,C  17,H  65)          107.3199         0.319521   
    191. A(C  16,C  17,C  18)          114.6230         0.358777   
    192. A(C  18,C  17,O  43)          111.9407         0.374091   
    193. A(C  16,C  17,O  43)          106.8746         0.377641   
    194. A(C  19,C  18,H  66)          107.1671         0.320003   
    195. A(C  17,C  18,H  66)          107.1398         0.317455   
    196. A(C  17,C  18,C  32)          116.0338         0.356437   
    197. A(C  17,C  18,C  19)          112.3097         0.358432   
    198. A(C  19,C  18,C  32)          107.3551         0.359419   
    199. A(C  32,C  18,H  66)          106.3452         0.318292   
    200. A(C  18,C  19,N  20)          115.6737         0.393307   
    201. A(N  20,C  19,O  31)          122.1012         0.467280   
    202. A(C  18,C  19,O  31)          122.2237         0.427663   
    203. A(C  19,N  20,H  67)          123.3159         0.356949   
    204. A(C  19,N  20,C  21)          120.5217         0.404912   
    205. A(C  21,N  20,H  67)          115.9984         0.338034   
    206. A(C  27,C  21,H  68)          108.6316         0.318760   
    207. A(C  22,C  21,H  68)          110.3534         0.322300   
    208. A(N  20,C  21,H  68)          107.4228         0.330069   
    209. A(N  20,C  21,C  22)          107.2255         0.373150   
    210. A(C  22,C  21,C  27)          111.9726         0.359820   
    211. A(N  20,C  21,C  27)          111.1396         0.368838   
    212. A(C  21,C  22,N  23)          114.1858         0.394811   
    213. A(C  21,C  22,O  26)          122.0009         0.428855   
    214. A(N  23,C  22,O  26)          123.7714         0.466943   
    215. A(C  22,N  23,C  24)          123.0324         0.404692   
    216. A(C  24,N  23,H  69)          115.4230         0.337916   
    217. A(C  22,N  23,H  69)          118.2484         0.357148   
    218. A(C  25,C  24,H  70)          110.6688         0.321518   
    219. A(N  23,C  24,H  70)          106.1471         0.330509   
    220. A(C   7,C  24,H  70)          110.7076         0.321840   
    221. A(N  23,C  24,C  25)          111.0269         0.371142   
    222. A(C   7,C  24,N  23)          107.5626         0.371532   
    223. A(C   7,C  24,C  25)          110.5986         0.361014   
    224. A(H  71,C  25,H  73)          108.7422         0.288148   
    225. A(C  24,C  25,H  73)          110.2261         0.321424   
    226. A(H  71,C  25,H  72)          108.5007         0.288267   
    227. A(C  24,C  25,H  72)          111.4532         0.321562   
    228. A(C  24,C  25,H  71)          109.7374         0.321749   
    229. A(H  72,C  25,H  73)          108.1138         0.287989   
    230. A(C  28,C  27,H  75)          108.6084         0.320997   
    231. A(C  21,C  27,C  28)          116.4887         0.358161   
    232. A(H  74,C  27,H  75)          107.4041         0.287003   
    233. A(C  21,C  27,H  75)          105.7842         0.318885   
    234. A(C  28,C  27,H  74)          110.0898         0.320832   
    235. A(C  21,C  27,H  74)          108.0474         0.318721   
    236. A(C  29,C  28,C  30)          110.4349         0.361526   
    237. A(C  27,C  28,C  30)          109.2911         0.361164   
    238. A(C  27,C  28,C  29)          112.1167         0.360996   
    239. A(C  30,C  28,H  76)          107.6832         0.320953   
    240. A(C  29,C  28,H  76)          108.5481         0.320810   
    241. A(C  27,C  28,H  76)          108.6467         0.320502   
    242. A(C  28,C  29,H  79)          110.8238         0.321661   
    243. A(H  78,C  29,H  79)          108.1168         0.287568   
    244. A(H  77,C  29,H  79)          107.0366         0.287469   
    245. A(H  77,C  29,H  78)          106.8715         0.287287   
    246. A(C  28,C  29,H  78)          110.7308         0.321448   
    247. A(C  28,C  29,H  77)          113.0280         0.321332   
    248. A(H  81,C  30,H  82)          107.7483         0.287417   
    249. A(H  80,C  30,H  82)          107.7842         0.287361   
    250. A(C  28,C  30,H  82)          110.6953         0.321461   
    251. A(H  80,C  30,H  81)          108.0051         0.287616   
    252. A(C  28,C  30,H  81)          111.1339         0.321759   
    253. A(C  28,C  30,H  80)          111.3229         0.321693   
    254. A(C  33,C  32,O  42)          121.9079         0.436342   
    255. A(C  18,C  32,O  42)          122.9533         0.430327   
    256. A(C  18,C  32,C  33)          115.1327         0.362147   
    257. A(C  32,C  33,C  34)          112.1044         0.364425   
    258. A(C  34,C  33,H  84)          109.9255         0.320720   
    259. A(H  83,C  33,H  84)          106.9302         0.286422   
    260. A(C  32,C  33,H  84)          106.7515         0.322853   
    261. A(C  34,C  33,H  83)          110.4374         0.321518   
    262. A(C  32,C  33,H  83)          110.4952         0.323658   
    263. A(C  33,C  34,C  35)          112.6648         0.362964   
    264. A(H  85,C  34,H  86)          106.6318         0.287317   
    265. A(C  35,C  34,H  86)          109.9865         0.322499   
    266. A(C  33,C  34,H  86)          108.0970         0.321603   
    267. A(C  35,C  34,H  85)          110.5014         0.322582   
    268. A(C  33,C  34,H  85)          108.7478         0.321686   
    269. A(C  34,C  35,C  36)          112.6810         0.363293   
    270. A(H  87,C  35,H  88)          106.0798         0.286128   
    271. A(C  36,C  35,H  88)          109.2224         0.321035   
    272. A(C  34,C  35,H  88)          109.8266         0.321649   
    273. A(C  36,C  35,H  87)          109.8033         0.321414   
    274. A(C  34,C  35,H  87)          109.0140         0.322029   
    275. A(C  35,C  36,C  37)          114.3665         0.362100   
    276. A(H  89,C  36,H  90)          105.9417         0.286376   
    277. A(C  37,C  36,H  90)          109.2697         0.320834   
    278. A(C  35,C  36,H  90)          109.0588         0.321232   
    279. A(C  37,C  36,H  89)          109.1692         0.321109   
    280. A(C  35,C  36,H  89)          108.6967         0.321508   
    281. A(C  36,C  37,C  38)          114.3408         0.362073   
    282. A(H  91,C  37,H  92)          105.9604         0.286222   
    283. A(C  38,C  37,H  92)          108.6690         0.321392   
    284. A(C  36,C  37,H  92)          108.9633         0.321016   
    285. A(C  38,C  37,H  91)          109.2292         0.321122   
    286. A(C  36,C  37,H  91)          109.3420         0.320747   
    287. A(C  37,C  38,C  39)          113.3157         0.362907   
    288. A(H  93,C  38,H  94)          105.9907         0.286217   
    289. A(C  39,C  38,H  94)          108.9153         0.321771   
    290. A(C  37,C  38,H  94)          109.9733         0.321439   
    291. A(C  39,C  38,H  93)          109.3158         0.321402   
    292. A(C  37,C  38,H  93)          109.0682         0.321070   
    293. A(C  38,C  39,C  40)          113.5819         0.363109   
    294. A(H  95,C  39,H  96)          105.8486         0.286009   
    295. A(C  40,C  39,H  96)          109.2578         0.321308   
    296. A(C  38,C  39,H  96)          109.3299         0.321469   
    297. A(C  40,C  39,H  95)          109.2319         0.321298   
    298. A(C  38,C  39,H  95)          109.3013         0.321458   
    299. A(C  39,C  40,C  41)          113.1648         0.363159   
    300. A(H  97,C  40,H  98)          105.9439         0.286342   
    301. A(C  41,C  40,H  98)          109.6271         0.321697   
    302. A(C  39,C  40,H  98)          109.1158         0.321494   
    303. A(C  41,C  40,H  97)          109.6293         0.321708   
    304. A(C  39,C  40,H  97)          109.1033         0.321504   
    305. A(H 100,C  41,H 101)          107.4254         0.287270   
    306. A(H  99,C  41,H 101)          107.6940         0.287462   
    307. A(C  40,C  41,H 101)          111.0781         0.322245   
    308. A(H  99,C  41,H 100)          107.6872         0.287468   
    309. A(C  40,C  41,H 100)          111.0714         0.322252   
    310. A(C  40,C  41,H  99)          111.6916         0.322478   
    311. A(C  17,O  43,H 102)          108.4522         0.352738   
    312. A(C  13,C  45,C  46)          112.3665         0.363641   
    313. A(C  46,C  45,H 104)          110.9903         0.323205   
    314. A(C  13,C  45,H 104)          108.3715         0.322396   
    315. A(C  46,C  45,H 103)          111.2183         0.323278   
    316. A(C  13,C  45,H 103)          106.9011         0.322468   
    317. A(H 103,C  45,H 104)          106.7342         0.288095   
    318. A(H 106,C  46,H 107)          107.5875         0.287164   
    319. A(H 105,C  46,H 107)          107.4759         0.287690   
    320. A(C  45,C  46,H 107)          111.6794         0.322848   
    321. A(H 105,C  46,H 106)          107.6088         0.287428   
    322. A(C  45,C  46,H 106)          111.3852         0.322539   
    323. A(C  45,C  46,H 105)          110.9040         0.323159   
    324. A(C  50,C  48,H 108)          106.9756         0.321090   
    325. A(C  49,C  48,H 108)          108.6049         0.321359   
    326. A(C  10,C  48,H 108)          104.7022         0.313910   
    327. A(C  49,C  48,C  50)          111.1483         0.362503   
    328. A(C  10,C  48,C  50)          112.5193         0.353734   
    329. A(C  10,C  48,C  49)          112.4615         0.354041   
    330. A(H 110,C  49,H 111)          107.3666         0.287828   
    331. A(H 109,C  49,H 111)          107.3855         0.287624   
    332. A(C  48,C  49,H 111)          110.9803         0.322199   
    333. A(H 109,C  49,H 110)          107.4029         0.287848   
    334. A(C  48,C  49,H 110)          110.4862         0.322461   
    335. A(C  48,C  49,H 109)          112.9750         0.322222   
    336. A(H 113,C  50,H 114)          108.8121         0.288014   
    337. A(H 112,C  50,H 114)          107.9841         0.287716   
    338. A(C  48,C  50,H 114)          109.9753         0.321838   
    339. A(H 112,C  50,H 113)          107.5007         0.288281   
    340. A(C  48,C  50,H 113)          111.5330         0.322500   
    341. A(C  48,C  50,H 112)          110.9236         0.322151   
    342. D(H  51,C   2,C   1,N   9)    -60.4541         0.008438   
    343. D(C   3,C   2,C   1,N   9)    172.5447         0.008438   
    344. D(N   6,C   2,C   1,N   9)     58.7474         0.008438   
    345. D(N   6,C   2,C   1,O   0)   -119.9094         0.008438   
    346. D(C   3,C   2,C   1,O   0)     -6.1121         0.008438   
    347. D(H  51,C   2,C   1,O   0)    120.8892         0.008438   
    348. D(C   4,C   3,C   2,N   6)     34.9943         0.011521   
    349. D(H  53,C   3,C   2,H  51)    -87.3128         0.011521   
    350. D(H  53,C   3,C   2,C   1)     36.9545         0.011521   
    351. D(C   4,C   3,C   2,H  51)    152.3492         0.011521   
    352. D(H  53,C   3,C   2,N   6)    155.3323         0.011521   
    353. D(H  52,C   3,C   2,H  51)     33.7839         0.011521   
    354. D(C   4,C   3,C   2,C   1)    -83.3836         0.011521   
    355. D(H  52,C   3,C   2,C   1)    158.0512         0.011521   
    356. D(H  52,C   3,C   2,N   6)    -83.5709         0.011521   
    357. D(H  55,C   4,C   3,H  53)     80.7434         0.010681   
    358. D(H  55,C   4,C   3,H  52)    -42.3133         0.010681   
    359. D(H  54,C   4,C   3,H  52)   -163.0831         0.010681   
    360. D(H  55,C   4,C   3,C   2)   -160.0329         0.010681   
    361. D(H  54,C   4,C   3,H  53)    -40.0264         0.010681   
    362. D(C   5,C   4,C   3,C   2)    -38.4797         0.010681   
    363. D(H  54,C   4,C   3,C   2)     79.1973         0.010681   
    364. D(C   5,C   4,C   3,H  53)   -157.7033         0.010681   
    365. D(C   5,C   4,C   3,H  52)     79.2399         0.010681   
    366. D(N   6,C   5,C   4,C   3)     26.4942         0.010790   
    367. D(H  57,C   5,C   4,C   3)    -91.6392         0.010790   
    368. D(H  56,C   5,C   4,H  55)    -91.0473         0.010790   
    369. D(H  56,C   5,C   4,C   3)    146.3363         0.010790   
    370. D(H  57,C   5,C   4,H  54)    151.4431         0.010790   
    371. D(H  56,C   5,C   4,H  54)     29.4187         0.010790   
    372. D(H  57,C   5,C   4,H  55)     30.9772         0.010790   
    373. D(N   6,C   5,C   4,H  54)    -90.4234         0.010790   
    374. D(N   6,C   5,C   4,H  55)    149.1106         0.010790   
    375. D(C   5,N   6,C   2,C   3)    -19.3107         0.013185   
    376. D(C   7,N   6,C   5,H  57)    -64.3206         0.013810   
    377. D(C   7,N   6,C   5,H  56)     55.2223         0.013810   
    378. D(C   7,N   6,C   5,C   4)    176.4777         0.013810   
    379. D(C   2,N   6,C   5,H  57)    114.6673         0.013810   
    380. D(C   2,N   6,C   5,H  56)   -125.7897         0.013810   
    381. D(C   7,N   6,C   2,H  51)     38.4659         0.013185   
    382. D(C   2,N   6,C   5,C   4)     -4.5343         0.013810   
    383. D(C   7,N   6,C   2,C   3)    159.7160         0.013185   
    384. D(C   5,N   6,C   2,C   1)     99.8352         0.013185   
    385. D(C   7,N   6,C   2,C   1)    -81.1381         0.013185   
    386. D(C   5,N   6,C   2,H  51)   -140.5608         0.013185   
    387. D(C  24,C   7,N   6,C   5)      2.4496         0.035887   
    388. D(C  24,C   7,N   6,C   2)   -176.4316         0.035887   
    389. D(O   8,C   7,N   6,C   5)   -178.2952         0.035887   
    390. D(O   8,C   7,N   6,C   2)      2.8235         0.035887   
    391. D(H  58,N   9,C   1,O   0)   -176.1462         0.033236   
    392. D(C  10,N   9,C   1,C   2)   -169.0848         0.033236   
    393. D(H  58,N   9,C   1,C   2)      5.2606         0.033236   
    394. D(C  10,N   9,C   1,O   0)      9.5084         0.033236   
    395. D(H  59,C  10,N   9,C   1)    -49.9962         0.016335   
    396. D(C  48,C  10,N   9,H  58)   -102.5551         0.016335   
    397. D(C  48,C  10,N   9,C   1)     71.5222         0.016335   
    398. D(C  11,C  10,N   9,C   1)   -166.8110         0.016335   
    399. D(H  59,C  10,N   9,H  58)    135.9265         0.016335   
    400. D(C  11,C  10,N   9,H  58)     19.1117         0.016335   
    401. D(O  47,C  11,C  10,N   9)    147.8502         0.010006   
    402. D(N  12,C  11,C  10,H  59)   -158.6958         0.010006   
    403. D(N  12,C  11,C  10,C  48)     85.8455         0.010006   
    404. D(N  12,C  11,C  10,N   9)    -39.8726         0.010006   
    405. D(O  47,C  11,C  10,H  59)     29.0270         0.010006   
    406. D(O  47,C  11,C  10,C  48)    -86.4318         0.010006   
    407. D(H  60,N  12,C  11,O  47)   -172.0908         0.028616   
    408. D(H  60,N  12,C  11,C  10)     15.8334         0.028616   
    409. D(C  13,N  12,C  11,O  47)     -2.3571         0.028616   
    410. D(C  13,N  12,C  11,C  10)   -174.4330         0.028616   
    411. D(H  61,C  13,N  12,C  11)    174.0871         0.015083   
    412. D(H  61,C  13,N  12,H  60)    -15.8342         0.015083   
    413. D(C  45,C  13,N  12,H  60)    102.4119         0.015083   
    414. D(C  45,C  13,N  12,C  11)    -67.6668         0.015083   
    415. D(C  14,C  13,N  12,C  11)     60.6445         0.015083   
    416. D(C  14,C  13,N  12,H  60)   -129.2768         0.015083   
    417. D(O  44,C  14,C  13,C  45)    -27.5518         0.009078   
    418. D(O  44,C  14,C  13,N  12)   -156.7445         0.009078   
    419. D(N  15,C  14,C  13,H  61)    -85.7036         0.009078   
    420. D(N  15,C  14,C  13,C  45)    157.3364         0.009078   
    421. D(O  44,C  14,C  13,H  61)     89.4083         0.009078   
    422. D(N  15,C  14,C  13,N  12)     28.1437         0.009078   
    423. D(H  62,N  15,C  14,O  44)    171.2815         0.030174   
    424. D(H  62,N  15,C  14,C  13)    -13.7741         0.030174   
    425. D(C  16,N  15,C  14,O  44)      6.7186         0.030174   
    426. D(C  16,N  15,C  14,C  13)   -178.3369         0.030174   
    427. D(H  64,C  16,N  15,H  62)    178.5851         0.017291   
    428. D(H  64,C  16,N  15,C  14)    -17.0572         0.017291   
    429. D(H  63,C  16,N  15,H  62)    -62.6701         0.017291   
    430. D(H  63,C  16,N  15,C  14)    101.6875         0.017291   
    431. D(C  17,C  16,N  15,C  14)   -139.0966         0.017291   
    432. D(C  17,C  16,N  15,H  62)     56.5457         0.017291   
    433. D(H  65,C  17,C  16,H  64)   -162.8964         0.010940   
    434. D(H  65,C  17,C  16,H  63)     78.5834         0.010940   
    435. D(H  65,C  17,C  16,N  15)    -42.8174         0.010940   
    436. D(O  43,C  17,C  16,H  64)     79.8807         0.010940   
    437. D(O  43,C  17,C  16,H  63)    -38.6395         0.010940   
    438. D(O  43,C  17,C  16,N  15)   -160.0403         0.010940   
    439. D(C  18,C  17,C  16,H  64)    -44.7679         0.010940   
    440. D(C  18,C  17,C  16,H  63)   -163.2882         0.010940   
    441. D(C  18,C  17,C  16,N  15)     75.3110         0.010940   
    442. D(H  66,C  18,C  17,H  65)    -59.3493         0.009883   
    443. D(H  66,C  18,C  17,O  43)     60.1670         0.009883   
    444. D(H  66,C  18,C  17,C  16)   -177.9039         0.009883   
    445. D(C  32,C  18,C  17,O  43)    -58.4140         0.009883   
    446. D(C  32,C  18,C  17,C  16)     63.5151         0.009883   
    447. D(C  32,C  18,C  17,H  65)   -177.9303         0.009883   
    448. D(C  19,C  18,C  17,H  65)     58.0645         0.009883   
    449. D(C  19,C  18,C  17,O  43)    177.5808         0.009883   
    450. D(C  19,C  18,C  17,C  16)    -60.4901         0.009883   
    451. D(O  31,C  19,C  18,H  66)   -136.8100         0.010141   
    452. D(O  31,C  19,C  18,C  32)    -22.9101         0.010141   
    453. D(O  31,C  19,C  18,C  17)    105.7925         0.010141   
    454. D(N  20,C  19,C  18,H  66)     42.7662         0.010141   
    455. D(N  20,C  19,C  18,C  17)    -74.6313         0.010141   
    456. D(N  20,C  19,C  18,C  32)    156.6662         0.010141   
    457. D(H  67,N  20,C  19,O  31)   -179.2470         0.031344   
    458. D(H  67,N  20,C  19,C  18)      1.1762         0.031344   
    459. D(C  21,N  20,C  19,O  31)     -4.0907         0.031344   
    460. D(C  21,N  20,C  19,C  18)    176.3325         0.031344   
    461. D(H  68,C  21,N  20,H  67)    136.3570         0.017284   
    462. D(H  68,C  21,N  20,C  19)    -39.1404         0.017284   
    463. D(C  27,C  21,N  20,H  67)   -104.9351         0.017284   
    464. D(C  27,C  21,N  20,C  19)     79.5676         0.017284   
    465. D(C  22,C  21,N  20,H  67)     17.7402         0.017284   
    466. D(C  22,C  21,N  20,C  19)   -157.7571         0.017284   
    467. D(N  23,C  22,C  21,C  27)    -81.7097         0.010538   
    468. D(N  23,C  22,C  21,N  20)    156.1332         0.010538   
    469. D(O  26,C  22,C  21,H  68)   -142.8418         0.010538   
    470. D(O  26,C  22,C  21,C  27)     96.0188         0.010538   
    471. D(O  26,C  22,C  21,N  20)    -26.1383         0.010538   
    472. D(N  23,C  22,C  21,H  68)     39.4297         0.010538   
    473. D(H  69,N  23,C  22,O  26)    166.4541         0.031422   
    474. D(H  69,N  23,C  22,C  21)    -15.8632         0.031422   
    475. D(C  24,N  23,C  22,O  26)      7.9186         0.031422   
    476. D(C  24,N  23,C  22,C  21)   -174.3988         0.031422   
    477. D(H  70,C  24,N  23,H  69)   -165.9180         0.017137   
    478. D(H  70,C  24,N  23,C  22)     -6.8283         0.017137   
    479. D(C  25,C  24,N  23,H  69)     73.7526         0.017137   
    480. D(C  25,C  24,N  23,C  22)   -127.1577         0.017137   
    481. D(C   7,C  24,N  23,H  69)    -47.3792         0.017137   
    482. D(C   7,C  24,N  23,C  22)    111.7105         0.017137   
    483. D(H  70,C  24,C   7,O   8)    141.7386         0.010134   
    484. D(H  70,C  24,C   7,N   6)    -38.9784         0.010134   
    485. D(C  25,C  24,C   7,O   8)    -95.2236         0.010134   
    486. D(C  25,C  24,C   7,N   6)     84.0594         0.010134   
    487. D(N  23,C  24,C   7,O   8)     26.1764         0.010134   
    488. D(N  23,C  24,C   7,N   6)   -154.5406         0.010134   
    489. D(H  73,C  25,C  24,H  70)   -177.1428         0.010694   
    490. D(H  73,C  25,C  24,N  23)    -59.5325         0.010694   
    491. D(H  73,C  25,C  24,C   7)     59.7969         0.010694   
    492. D(H  72,C  25,C  24,H  70)     62.8050         0.010694   
    493. D(H  72,C  25,C  24,N  23)   -179.5847         0.010694   
    494. D(H  72,C  25,C  24,C   7)    -60.2554         0.010694   
    495. D(H  71,C  25,C  24,H  70)    -57.4076         0.010694   
    496. D(H  71,C  25,C  24,N  23)     60.2027         0.010694   
    497. D(H  71,C  25,C  24,C   7)    179.5321         0.010694   
    498. D(H  75,C  27,C  21,H  68)     69.9924         0.009920   
    499. D(H  75,C  27,C  21,C  22)   -167.8787         0.009920   
    500. D(H  75,C  27,C  21,N  20)    -47.9862         0.009920   
    501. D(H  74,C  27,C  21,H  68)   -175.2350         0.009920   
    502. D(H  74,C  27,C  21,C  22)    -53.1062         0.009920   
    503. D(H  74,C  27,C  21,N  20)     66.7863         0.009920   
    504. D(C  28,C  27,C  21,H  68)    -50.7621         0.009920   
    505. D(C  28,C  27,C  21,C  22)     71.3667         0.009920   
    506. D(C  28,C  27,C  21,N  20)   -168.7408         0.009920   
    507. D(H  76,C  28,C  27,H  75)    178.8327         0.010693   
    508. D(H  76,C  28,C  27,H  74)     61.4971         0.010693   
    509. D(H  76,C  28,C  27,C  21)    -61.9270         0.010693   
    510. D(C  30,C  28,C  27,H  75)     61.5898         0.010693   
    511. D(C  30,C  28,C  27,H  74)    -55.7458         0.010693   
    512. D(C  30,C  28,C  27,C  21)   -179.1699         0.010693   
    513. D(C  29,C  28,C  27,H  75)    -61.1987         0.010693   
    514. D(C  29,C  28,C  27,H  74)   -178.5343         0.010693   
    515. D(C  29,C  28,C  27,C  21)     58.0416         0.010693   
    516. D(H  79,C  29,C  28,C  30)     53.5179         0.010811   
    517. D(H  79,C  29,C  28,C  27)    175.6568         0.010811   
    518. D(H  78,C  29,C  28,H  76)    175.7046         0.010811   
    519. D(H  78,C  29,C  28,C  30)    -66.4604         0.010811   
    520. D(H  78,C  29,C  28,C  27)     55.6786         0.010811   
    521. D(H  77,C  29,C  28,H  76)     55.8327         0.010811   
    522. D(H  77,C  29,C  28,C  30)    173.6677         0.010811   
    523. D(H  79,C  29,C  28,H  76)    -64.3172         0.010811   
    524. D(H  77,C  29,C  28,C  27)    -64.1933         0.010811   
    525. D(H  82,C  30,C  28,H  76)    179.4784         0.010867   
    526. D(H  82,C  30,C  28,C  29)     61.1135         0.010867   
    527. D(H  82,C  30,C  28,C  27)    -62.6725         0.010867   
    528. D(H  81,C  30,C  28,H  76)     59.7830         0.010867   
    529. D(H  81,C  30,C  28,C  29)    -58.5820         0.010867   
    530. D(H  81,C  30,C  28,C  27)    177.6321         0.010867   
    531. D(H  80,C  30,C  28,H  76)    -60.6567         0.010867   
    532. D(H  80,C  30,C  28,C  29)   -179.0217         0.010867   
    533. D(H  80,C  30,C  28,C  27)     57.1924         0.010867   
    534. D(O  42,C  32,C  18,H  66)   -127.7869         0.009546   
    535. D(O  42,C  32,C  18,C  19)    117.7619         0.009546   
    536. D(O  42,C  32,C  18,C  17)     -8.7711         0.009546   
    537. D(C  33,C  32,C  18,H  66)     51.3356         0.009546   
    538. D(C  33,C  32,C  18,C  19)    -63.1156         0.009546   
    539. D(C  33,C  32,C  18,C  17)    170.3514         0.009546   
    540. D(H  84,C  33,C  32,O  42)     70.9326         0.011017   
    541. D(H  84,C  33,C  32,C  18)   -108.2000         0.011017   
    542. D(H  83,C  33,C  32,O  42)   -173.1439         0.011017   
    543. D(H  83,C  33,C  32,C  18)      7.7236         0.011017   
    544. D(C  34,C  33,C  32,O  42)    -49.4905         0.011017   
    545. D(C  34,C  33,C  32,C  18)    131.3769         0.011017   
    546. D(H  86,C  34,C  33,H  84)   -176.2828         0.010903   
    547. D(H  86,C  34,C  33,H  83)     65.9657         0.010903   
    548. D(H  86,C  34,C  33,C  32)    -57.7200         0.010903   
    549. D(H  85,C  34,C  33,H  84)    -60.8848         0.010903   
    550. D(H  85,C  34,C  33,H  83)   -178.6363         0.010903   
    551. D(H  85,C  34,C  33,C  32)     57.6780         0.010903   
    552. D(C  35,C  34,C  33,H  84)     61.9719         0.010903   
    553. D(C  35,C  34,C  33,H  83)    -55.7796         0.010903   
    554. D(C  35,C  34,C  33,C  32)   -179.4653         0.010903   
    555. D(H  88,C  35,C  34,H  86)   -179.8201         0.011257   
    556. D(H  88,C  35,C  34,H  85)     62.7186         0.011257   
    557. D(H  88,C  35,C  34,C  33)    -59.1514         0.011257   
    558. D(H  87,C  35,C  34,H  86)    -63.9925         0.011257   
    559. D(H  87,C  35,C  34,H  85)    178.5462         0.011257   
    560. D(H  87,C  35,C  34,C  33)     56.6762         0.011257   
    561. D(C  36,C  35,C  34,H  86)     58.1748         0.011257   
    562. D(C  36,C  35,C  34,H  85)    -59.2865         0.011257   
    563. D(C  36,C  35,C  34,C  33)    178.8435         0.011257   
    564. D(H  90,C  36,C  35,H  87)     63.7334         0.011012   
    565. D(H  90,C  36,C  35,C  34)    -57.9879         0.011012   
    566. D(H  89,C  36,C  35,H  88)    -65.2657         0.011012   
    567. D(H  89,C  36,C  35,H  87)    178.8013         0.011012   
    568. D(H  89,C  36,C  35,C  34)     57.0800         0.011012   
    569. D(C  37,C  36,C  35,H  88)     56.9985         0.011012   
    570. D(C  37,C  36,C  35,H  87)    -58.9345         0.011012   
    571. D(H  90,C  36,C  35,H  88)    179.6664         0.011012   
    572. D(C  37,C  36,C  35,C  34)    179.3442         0.011012   
    573. D(H  92,C  37,C  36,H  90)     65.0194         0.010856   
    574. D(H  92,C  37,C  36,H  89)    -50.4211         0.010856   
    575. D(H  92,C  37,C  36,C  35)   -172.4273         0.010856   
    576. D(H  91,C  37,C  36,H  90)   -179.5918         0.010856   
    577. D(H  91,C  37,C  36,H  89)     64.9677         0.010856   
    578. D(H  91,C  37,C  36,C  35)    -57.0385         0.010856   
    579. D(C  38,C  37,C  36,H  90)    -56.7791         0.010856   
    580. D(C  38,C  37,C  36,H  89)   -172.2196         0.010856   
    581. D(C  38,C  37,C  36,C  35)     65.7742         0.010856   
    582. D(H  94,C  38,C  37,H  92)    177.0058         0.011003   
    583. D(H  94,C  38,C  37,H  91)     61.8393         0.011003   
    584. D(H  94,C  38,C  37,C  36)    -61.0345         0.011003   
    585. D(H  93,C  38,C  37,H  92)    -67.1609         0.011003   
    586. D(H  93,C  38,C  37,H  91)    177.6727         0.011003   
    587. D(H  93,C  38,C  37,C  36)     54.7989         0.011003   
    588. D(C  39,C  38,C  37,H  92)     54.8497         0.011003   
    589. D(C  39,C  38,C  37,H  91)    -60.3168         0.011003   
    590. D(C  39,C  38,C  37,C  36)    176.8094         0.011003   
    591. D(H  95,C  39,C  38,H  94)    -65.0653         0.011135   
    592. D(H  95,C  39,C  38,H  93)    179.5505         0.011135   
    593. D(H  95,C  39,C  38,C  37)     57.6783         0.011135   
    594. D(C  40,C  39,C  38,H  94)     57.1896         0.011135   
    595. D(C  40,C  39,C  38,H  93)    -58.1945         0.011135   
    596. D(C  40,C  39,C  38,C  37)    179.9332         0.011135   
    597. D(H  96,C  39,C  38,H  94)    179.4991         0.011135   
    598. D(H  96,C  39,C  38,H  93)     64.1149         0.011135   
    599. D(H  96,C  39,C  38,C  37)    -57.7574         0.011135   
    600. D(H  98,C  40,C  39,H  95)     64.5449         0.011071   
    601. D(H  98,C  40,C  39,C  38)    -57.7484         0.011071   
    602. D(H  97,C  40,C  39,H  96)    -64.7755         0.011071   
    603. D(H  97,C  40,C  39,H  95)    179.8672         0.011071   
    604. D(H  97,C  40,C  39,C  38)     57.5739         0.011071   
    605. D(C  41,C  40,C  39,H  96)     57.5602         0.011071   
    606. D(C  41,C  40,C  39,H  95)    -57.7971         0.011071   
    607. D(H  98,C  40,C  39,H  96)    179.9022         0.011071   
    608. D(C  41,C  40,C  39,C  38)    179.9096         0.011071   
    609. D(H 101,C  41,C  40,H  98)    -62.2956         0.011152   
    610. D(H 101,C  41,C  40,H  97)   -178.1971         0.011152   
    611. D(H 101,C  41,C  40,C  39)     59.7609         0.011152   
    612. D(H 100,C  41,C  40,H  98)    178.2034         0.011152   
    613. D(H 100,C  41,C  40,H  97)     62.3019         0.011152   
    614. D(H 100,C  41,C  40,C  39)    -59.7401         0.011152   
    615. D(H  99,C  41,C  40,H  98)     57.9605         0.011152   
    616. D(H  99,C  41,C  40,H  97)    -57.9410         0.011152   
    617. D(H  99,C  41,C  40,C  39)   -179.9830         0.011152   
    618. D(H 102,O  43,C  17,H  65)     67.8809         0.018934   
    619. D(H 102,O  43,C  17,C  18)    -49.9800         0.018934   
    620. D(H 102,O  43,C  17,C  16)   -176.2494         0.018934   
    621. D(H 104,C  45,C  13,H  61)    178.5166         0.011033   
    622. D(H 104,C  45,C  13,C  14)    -66.7052         0.011033   
    623. D(H 104,C  45,C  13,N  12)     61.9702         0.011033   
    624. D(H 103,C  45,C  13,H  61)    -66.7751         0.011033   
    625. D(H 103,C  45,C  13,C  14)     48.0031         0.011033   
    626. D(H 103,C  45,C  13,N  12)    176.6785         0.011033   
    627. D(C  46,C  45,C  13,H  61)     55.5050         0.011033   
    628. D(C  46,C  45,C  13,C  14)    170.2832         0.011033   
    629. D(C  46,C  45,C  13,N  12)    -61.0414         0.011033   
    630. D(H 107,C  46,C  45,H 104)    -60.9282         0.011355   
    631. D(H 107,C  46,C  45,H 103)   -179.5993         0.011355   
    632. D(H 107,C  46,C  45,C  13)     60.5998         0.011355   
    633. D(H 106,C  46,C  45,H 104)    178.7485         0.011355   
    634. D(H 106,C  46,C  45,H 103)     60.0774         0.011355   
    635. D(H 106,C  46,C  45,C  13)    -59.7235         0.011355   
    636. D(H 105,C  46,C  45,H 104)     58.9241         0.011355   
    637. D(H 105,C  46,C  45,H 103)    -59.7470         0.011355   
    638. D(H 105,C  46,C  45,C  13)   -179.5479         0.011355   
    639. D(H 108,C  48,C  10,H  59)    -81.0084         0.008492   
    640. D(H 108,C  48,C  10,C  11)     32.8046         0.008492   
    641. D(H 108,C  48,C  10,N   9)    156.9805         0.008492   
    642. D(C  50,C  48,C  10,H  59)     34.8120         0.008492   
    643. D(C  50,C  48,C  10,C  11)    148.6249         0.008492   
    644. D(C  50,C  48,C  10,N   9)    -87.1991         0.008492   
    645. D(C  49,C  48,C  10,H  59)    161.2559         0.008492   
    646. D(C  49,C  48,C  10,C  11)    -84.9312         0.008492   
    647. D(C  49,C  48,C  10,N   9)     39.2448         0.008492   
    648. D(H 111,C  49,C  48,C  50)     59.8225         0.011054   
    649. D(H 111,C  49,C  48,C  10)    -67.3555         0.011054   
    650. D(H 110,C  49,C  48,H 108)     58.2623         0.011054   
    651. D(H 110,C  49,C  48,C  50)    -59.1591         0.011054   
    652. D(H 110,C  49,C  48,C  10)    173.6630         0.011054   
    653. D(H 109,C  49,C  48,H 108)    -62.0815         0.011054   
    654. D(H 109,C  49,C  48,C  50)   -179.5029         0.011054   
    655. D(H 111,C  49,C  48,H 108)    177.2439         0.011054   
    656. D(H 109,C  49,C  48,C  10)     53.3192         0.011054   
    657. D(H 114,C  50,C  48,H 108)    -59.1604         0.010948   
    658. D(H 114,C  50,C  48,C  49)     59.2478         0.010948   
    659. D(H 114,C  50,C  48,C  10)   -173.6058         0.010948   
    660. D(H 113,C  50,C  48,H 108)   -179.9757         0.010948   
    661. D(H 113,C  50,C  48,C  49)    -61.5675         0.010948   
    662. D(H 113,C  50,C  48,C  10)     65.5789         0.010948   
    663. D(H 112,C  50,C  48,H 108)     60.2250         0.010948   
    664. D(H 112,C  50,C  48,C  49)    178.6332         0.010948   
    665. D(H 112,C  50,C  48,C  10)    -54.2204         0.010948   
    -----------------------------------------------------------------

Number of atoms                         .... 115
Number of degrees of freedom            .... 665

         *************************************************************
         *                GEOMETRY OPTIMIZATION CYCLE   1            *
         *************************************************************
---------------------------------
CARTESIAN COORDINATES (ANGSTROEM)
---------------------------------
  O      7.316733   -0.822352    2.457469
  C      6.501241    0.021596    2.093128
  C      6.284354    1.357960    2.871707
  C      7.082972    1.384427    4.170840
  C      6.171946    0.626295    5.148100
  C      4.758079    1.088251    4.770243
  N      4.878556    1.461064    3.343164
  C      3.874587    1.866778    2.546666
  O      4.039917    2.138760    1.334480
  N      5.674948   -0.077702    1.025292
  C      5.446824   -1.266592    0.214741
  C      4.708197   -0.930887   -1.089699
  N      3.699696   -0.002515   -1.015538
  C      2.847862    0.307466   -2.169899
  C      2.059295   -0.928202   -2.675724
  N      1.788040   -1.857835   -1.712276
  C      1.093075   -3.100580   -1.982098
  C      0.098888   -3.406852   -0.856545
  C     -1.189560   -2.550060   -0.883475
  C     -0.894632   -1.050396   -0.749933
  N     -0.546375   -0.626489    0.495837
  C     -0.168692    0.753834    0.724803
  C      0.670662    0.787607    2.001891
  N      1.509927    1.855335    2.089420
  C      2.475870    2.016096    3.159376
  C      2.325815    3.386833    3.835977
  O      0.550974   -0.065057    2.885802
  C     -1.415561    1.663752    0.827417
  C     -1.162266    3.178488    0.801630
  C     -0.429060    3.619990   -0.471879
  C     -2.499313    3.918086    0.933397
  O     -0.975344   -0.276983   -1.706257
  C     -2.098496   -2.732368   -2.117132
  C     -3.461520   -2.061718   -2.020652
  C     -3.788693   -1.237342   -3.271229
  C     -5.149741   -0.547351   -3.182416
  C     -5.464676    0.299084   -4.419558
  C     -6.829864    0.996957   -4.378023
  C     -6.959051    2.067072   -3.289591
  C     -8.301073    2.801501   -3.318619
  C     -8.437352    3.871447   -2.232137
  C     -9.781470    4.601104   -2.271257
  O     -1.767327   -3.375633   -3.092245
  O     -0.187574   -4.802415   -0.925526
  O      1.646980   -0.989575   -3.825982
  C      3.592460    1.012652   -3.307273
  C      4.175938    2.356204   -2.874813
  O      4.929150   -1.583460   -2.106130
  C      4.619768   -2.389526    0.936551
  C      3.481445   -1.821512    1.788639
  C      5.504585   -3.335533    1.755643
  H      6.490248    2.204073    2.200786
  H      7.238052    2.423345    4.496029
  H      8.054294    0.895128    4.040349
  H      6.278066   -0.453183    4.976735
  H      6.398441    0.830898    6.201397
  H      4.003391    0.300844    4.903405
  H      4.450795    1.964852    5.360791
  H      5.111898    0.762489    0.853393
  H      6.413903   -1.689670   -0.087447
  H      3.616442    0.606256   -0.203659
  H      2.073402    0.995004   -1.784957
  H      2.295097   -1.771432   -0.836768
  H      1.797448   -3.946074   -2.043191
  H      0.586834   -3.005373   -2.947916
  H      0.608905   -3.182334    0.105874
  H     -1.795519   -2.843833   -0.003539
  H     -0.463277   -1.250801    1.296349
  H      0.433922    1.078523   -0.138519
  H      1.702490    2.387453    1.243208
  H      2.276804    1.206727    3.874798
  H      1.318944    3.481758    4.261554
  H      3.059038    3.518922    4.642801
  H      2.476373    4.191112    3.102441
  H     -1.965536    1.387452    1.741485
  H     -2.051035    1.399094   -0.031987
  H     -0.542836    3.447599    1.674554
  H      0.585054    3.199076   -0.552845
  H     -0.980039    3.300450   -1.369176
  H     -0.327251    4.714047   -0.504814
  H     -3.029677    3.625068    1.851291
  H     -2.349043    5.006941    0.960583
  H     -3.155443    3.691047    0.078841
  H     -3.518368   -1.431827   -1.119131
  H     -4.205909   -2.869380   -1.896484
  H     -3.747937   -1.897493   -4.150637
  H     -2.994314   -0.486865   -3.403543
  H     -5.173069    0.086707   -2.279906
  H     -5.944840   -1.302831   -3.046392
  H     -5.415288   -0.347003   -5.311835
  H     -4.671969    1.056660   -4.549434
  H     -7.623279    0.240771   -4.240741
  H     -7.023200    1.465008   -5.358147
  H     -6.139325    2.799019   -3.403922
  H     -6.822535    1.610925   -2.294678
  H     -9.120702    2.068658   -3.212427
  H     -8.440763    3.268792   -4.309647
  H     -7.616269    4.600990   -2.338691
  H     -8.299153    3.401818   -1.243082
  H     -9.853260    5.363295   -1.482005
  H     -9.929755    5.105870   -3.238101
  H    -10.617559    3.898289   -2.134674
  H     -0.863219   -5.011323   -0.257963
  H      2.875363    1.136970   -4.129479
  H      4.380603    0.341091   -3.673826
  H      4.697086    2.844262   -3.709827
  H      3.387888    3.043076   -2.526612
  H      4.901122    2.239621   -2.055620
  H      4.182377   -2.986070    0.116937
  H      2.821720   -1.144322    1.227135
  H      2.857320   -2.633005    2.186575
  H      3.875432   -1.259040    2.647577
  H      6.305482   -3.759644    1.134714
  H      5.979444   -2.815515    2.596474
  H      4.902020   -4.168167    2.148127

----------------------------
CARTESIAN COORDINATES (A.U.)
----------------------------
  NO LB      ZA    FRAG     MASS         X           Y           Z
   0 O     8.0000    0    15.999   13.826622   -1.554020    4.643943
   1 C     6.0000    0    12.011   12.285565    0.040811    3.955438
   2 C     6.0000    0    12.011   11.875707    2.566173    5.426739
   3 C     6.0000    0    12.011   13.384878    2.616188    7.881744
   4 C     6.0000    0    12.011   11.663288    1.183526    9.728498
   5 C     6.0000    0    12.011    8.991467    2.056496    9.014453
   6 N     7.0000    0    14.007    9.219134    2.761012    6.317665
   7 C     6.0000    0    12.011    7.321908    3.527699    4.812502
   8 O     8.0000    0    15.999    7.634336    4.041670    2.521802
   9 N     7.0000    0    14.007   10.724098   -0.146836    1.937522
  10 C     6.0000    0    12.011   10.293006   -2.393511    0.405802
  11 C     6.0000    0    12.011    8.897202   -1.759122   -2.059234
  12 N     7.0000    0    14.007    6.991411   -0.004752   -1.919089
  13 C     6.0000    0    12.011    5.381680    0.581026   -4.100514
  14 C     6.0000    0    12.011    3.891504   -1.754048   -5.056385
  15 N     7.0000    0    14.007    3.378907   -3.510798   -3.235733
  16 C     6.0000    0    12.011    2.065612   -5.859247   -3.745622
  17 C     6.0000    0    12.011    0.186870   -6.438016   -1.618635
  18 C     6.0000    0    12.011   -2.247942   -4.818916   -1.669526
  19 C     6.0000    0    12.011   -1.690609   -1.984962   -1.417168
  20 N     7.0000    0    14.007   -1.032499   -1.183893    0.936996
  21 C     6.0000    0    12.011   -0.318782    1.424540    1.369679
  22 C     6.0000    0    12.011    1.267367    1.488361    3.783025
  23 N     7.0000    0    14.007    2.853349    3.506074    3.948432
  24 C     6.0000    0    12.011    4.678717    3.809870    5.970355
  25 C     6.0000    0    12.011    4.395153    6.400188    7.248946
  26 O     8.0000    0    15.999    1.041189   -0.122940    5.453376
  27 C     6.0000    0    12.011   -2.675023    3.144036    1.563591
  28 C     6.0000    0    12.011   -2.196365    6.006471    1.514861
  29 C     6.0000    0    12.011   -0.810807    6.840790   -0.891722
  30 C     6.0000    0    12.011   -4.723017    7.404109    1.763865
  31 O     8.0000    0    15.999   -1.843133   -0.523422   -3.224359
  32 C     6.0000    0    12.011   -3.965583   -5.163427   -4.000800
  33 C     6.0000    0    12.011   -6.541325   -3.896083   -3.818479
  34 C     6.0000    0    12.011   -7.159591   -2.338238   -6.181727
  35 C     6.0000    0    12.011   -9.731601   -1.034343   -6.013894
  36 C     6.0000    0    12.011  -10.326742    0.565187   -8.351755
  37 C     6.0000    0    12.011  -12.906572    1.883976   -8.273264
  38 C     6.0000    0    12.011  -13.150701    3.906199   -6.216426
  39 C     6.0000    0    12.011  -15.686754    5.294070   -6.271281
  40 C     6.0000    0    12.011  -15.944284    7.315974   -4.218127
  41 C     6.0000    0    12.011  -18.484300    8.694826   -4.292053
  42 O     8.0000    0    15.999   -3.339764   -6.379022   -5.843497
  43 O     8.0000    0    15.999   -0.354463   -9.075248   -1.748990
  44 O     8.0000    0    15.999    3.112341   -1.870025   -7.230058
  45 C     6.0000    0    12.011    6.788766    1.913635   -6.249840
  46 C     6.0000    0    12.011    7.891379    4.452580   -5.432610
  47 O     8.0000    0    15.999    9.314743   -2.992306   -3.980008
  48 C     6.0000    0    12.011    8.730097   -4.515549    1.769826
  49 C     6.0000    0    12.011    6.578977   -3.442160    3.380037
  50 C     6.0000    0    12.011   10.402158   -6.303244    3.317684
  51 H     1.0000    0     1.008   12.264792    4.165094    4.158883
  52 H     1.0000    0     1.008   13.677936    4.579458    8.496263
  53 H     1.0000    0     1.008   15.220410    1.691548    7.635153
  54 H     1.0000    0     1.008   11.863825   -0.856391    9.404665
  55 H     1.0000    0     1.008   12.091301    1.570169   11.718942
  56 H     1.0000    0     1.008    7.565313    0.568513    9.266092
  57 H     1.0000    0     1.008    8.410784    3.713033   10.130426
  58 H     1.0000    0     1.008    9.660088    1.440896    1.612679
  59 H     1.0000    0     1.008   12.120519   -3.193014   -0.165251
  60 H     1.0000    0     1.008    6.834086    1.145659   -0.384860
  61 H     1.0000    0     1.008    3.918161    1.880285   -3.373079
  62 H     1.0000    0     1.008    4.337105   -3.347522   -1.581262
  63 H     1.0000    0     1.008    3.396684   -7.456999   -3.861071
  64 H     1.0000    0     1.008    1.108956   -5.679331   -5.570754
  65 H     1.0000    0     1.008    1.150664   -6.013740    0.200073
  66 H     1.0000    0     1.008   -3.393040   -5.374066   -0.006689
  67 H     1.0000    0     1.008   -0.875467   -2.363671    2.449744
  68 H     1.0000    0     1.008    0.819994    2.038112   -0.261763
  69 H     1.0000    0     1.008    3.217239    4.511633    2.349322
  70 H     1.0000    0     1.008    4.302536    2.280383    7.322307
  71 H     1.0000    0     1.008    2.492443    6.579569    8.053169
  72 H     1.0000    0     1.008    5.780744    6.649800    8.773623
  73 H     1.0000    0     1.008    4.679667    7.920054    5.862763
  74 H     1.0000    0     1.008   -3.714324    2.621904    3.290930
  75 H     1.0000    0     1.008   -3.875895    2.643905   -0.060447
  76 H     1.0000    0     1.008   -1.025812    6.515018    3.164449
  77 H     1.0000    0     1.008    1.105592    6.045377   -1.044725
  78 H     1.0000    0     1.008   -1.852006    6.236946   -2.587368
  79 H     1.0000    0     1.008   -0.618416    8.908258   -0.953960
  80 H     1.0000    0     1.008   -5.725259    6.850387    3.498433
  81 H     1.0000    0     1.008   -4.439047    9.461748    1.815239
  82 H     1.0000    0     1.008   -5.962923    6.975068    0.148988
  83 H     1.0000    0     1.008   -6.648752   -2.705761   -2.114851
  84 H     1.0000    0     1.008   -7.948016   -5.422342   -3.583836
  85 H     1.0000    0     1.008   -7.082574   -3.585741   -7.843567
  86 H     1.0000    0     1.008   -5.658434   -0.920041   -6.431764
  87 H     1.0000    0     1.008   -9.775684    0.163852   -4.308397
  88 H     1.0000    0     1.008  -11.234120   -2.461993   -5.756846
  89 H     1.0000    0     1.008  -10.233411   -0.655740  -10.037913
  90 H     1.0000    0     1.008   -8.828743    1.996798   -8.597184
  91 H     1.0000    0     1.008  -14.405910    0.454992   -8.013838
  92 H     1.0000    0     1.008  -13.271924    2.768464  -10.125430
  93 H     1.0000    0     1.008  -11.601643    5.289379   -6.432481
  94 H     1.0000    0     1.008  -12.892723    3.044208   -4.336313
  95 H     1.0000    0     1.008  -17.235629    3.909197   -6.070607
  96 H     1.0000    0     1.008  -15.950731    6.177122   -8.144052
  97 H     1.0000    0     1.008  -14.392663    8.694612   -4.419486
  98 H     1.0000    0     1.008  -15.683127    6.428504   -2.349084
  99 H     1.0000    0     1.008  -18.619963   10.135159   -2.800584
 100 H     1.0000    0     1.008  -18.764517    9.648695   -6.119124
 101 H     1.0000    0     1.008  -20.064278    7.366699   -4.033950
 102 H     1.0000    0     1.008   -1.631248   -9.470029   -0.487480
 103 H     1.0000    0     1.008    5.433648    2.148562   -7.803585
 104 H     1.0000    0     1.008    8.278141    0.644569   -6.942525
 105 H     1.0000    0     1.008    8.876207    5.374877   -7.010557
 106 H     1.0000    0     1.008    6.402180    5.750580   -4.774604
 107 H     1.0000    0     1.008    9.261779    4.232271   -3.884559
 108 H     1.0000    0     1.008    7.903548   -5.642854    0.220979
 109 H     1.0000    0     1.008    5.332277   -2.162456    2.318950
 110 H     1.0000    0     1.008    5.399553   -4.975659    4.132029
 111 H     1.0000    0     1.008    7.323506   -2.379241    5.003196
 112 H     1.0000    0     1.008   11.915633   -7.104697    2.144299
 113 H     1.0000    0     1.008   11.299511   -5.320553    4.906625
 114 H     1.0000    0     1.008    9.263475   -7.876694    4.059372

--------------------------------
INTERNAL COORDINATES (ANGSTROEM)
--------------------------------
 O      0   0   0     0.000000000000     0.00000000     0.00000000
 C      1   0   0     1.228829227143     0.00000000     0.00000000
 C      2   1   0     1.561759790539   122.14220543     0.00000000
 C      3   2   1     1.525201173743   111.51632987   353.88791591
 C      4   3   2     1.536154127604   102.87241883   276.61644125
 C      5   4   3     1.534665471659   103.95629692   321.52031508
 N      6   5   4     1.479884303436   103.78382391    26.49422551
 C      7   6   5     1.344234389892   125.91739830   176.47767250
 O      8   7   6     1.253276816674   122.68878454   181.70479411
 N      2   1   3     1.353843429972   126.05213644   181.54279616
 C     10   2   1     1.456877019757   126.45913024     9.50839910
 C     11  10   2     1.536175197580   111.67792959   193.18899451
 N     12  11  10     1.372752749338   117.07493633   320.12744651
 C     13  12  11     1.467738141034   121.78363048   185.56701124
 C     14  13  12     1.550668570074   112.54418936    60.64451621
 N     15  14  13     1.366025792245   114.40663720    28.14372758
 C     16  15  14     1.449205962614   123.19532068   181.66308352
 C     17  16  15     1.532670989453   110.22427877   220.90336270
 C     18  17  16     1.547550689737   114.62298697    75.31103381
 C     19  18  17     1.534212418593   112.30968827   299.50994913
 N     20  19  18     1.361221088138   115.67373825   285.36868463
 C     21  20  19     1.449262784805   120.52171421   176.33251338
 C     22  21  20     1.528596843567   107.22552311   202.24287742
 N     23  22  21     1.360907907682   114.18576917   156.13316512
 C     24  23  22     1.450412134912   123.03235084   185.60119914
 C     25  24  23     1.535977241689   111.02693839   232.84234089
 O     23  22  21     1.233961023493   122.00093681   333.86166835
 C     22  21  20     1.546985207550   111.13960933    79.56756667
 C     28  22  21     1.535984288785   116.48872735   191.25920518
 C     29  28  22     1.534385651840   112.11666182    58.04159457
 C     29  28  22     1.533643413888   109.29105635   180.83008691
 O     20  19  18     1.232574029139   122.22367432   105.79245757
 C     19  18  17     1.543150056345   116.03376378    63.51511240
 C     33  19  18     1.522140977119   115.13272896   170.35139198
 C     34  33  19     1.533160354139   112.10438586   131.37689412
 C     35  34  33     1.528538435166   112.66484453   180.53469995
 C     36  35  34     1.531717127716   112.68097260   178.84349292
 C     37  36  35     1.533782773355   114.36651355   179.34420520
 C     38  37  36     1.531834712014   114.34077425    65.77415602
 C     39  38  37     1.530114919935   113.31565907   176.80942551
 C     40  39  38     1.530947007415   113.58194066   179.93318176
 C     41  40  39     1.529896921383   113.16482215   179.90960167
 O     33  19  18     1.214210916667   122.95334144   351.22893187
 O     18  17  16     1.426329208259   106.87462280   199.95971444
 O     15  14  13     1.223463940312   121.20033503   203.25554534
 C     14  13  12     1.531448083295   113.52686292   292.33321193
 C     46  14  13     1.527284733586   112.36649301   298.95862389
 O     12  11  10     1.227925753654   120.01559770   147.85016727
 C     11  10   2     1.570354316807   114.22263428    71.52218644
 C     49  11  10     1.531166913549   112.46153673    39.24479763
 C     49  11  10     1.532560264440   112.51930073   272.80088112
 H      3   2   1     1.099287796049   109.16776263   120.88921366
 H      4   3   2     1.099612498129   110.00720699   158.05117828
 H      4   3   2     1.095403049611   110.79853787    36.95446231
 H      5   4   3     1.098134531278   109.18108841    79.19726108
 H      5   4   3     1.096630219666   113.35754822   199.96706333
 H      6   5   4     1.098769987119   112.78227043   146.33634807
 H      6   5   4     1.100727206972   111.39636525   268.36076984
 H     10   2   1     1.025912623917   114.02019708   183.85379586
 H     11  10   2     1.097976985412   109.24771126   310.00380935
 H     13  12  11     1.018175433752   120.49758534    15.83337856
 H     14  13  12     1.104843180941   105.32091591   174.08707816
 H     16  15  14     1.015424236027   116.81074597   346.22591510
 H     17  16  15     1.102149380559   111.20389421   101.68753798
 H     17  16  15     1.094599497827   108.14840657   342.94281041
 H     18  17  16     1.112104401579   107.31988757   317.18256253
 H     19  18  17     1.108050640992   107.13978552   182.09612367
 H     21  20  19     1.018572061723   123.31588606     1.17620230
 H     22  21  20     1.101767186253   107.42281697   320.85962438
 H     24  23  22     1.017991502049   118.24843969   344.13675185
 H     25  24  23     1.098424176274   106.14712229   353.17171652
 H     26  25  24     1.097230582612   109.73736838    60.20267942
 H     26  25  24     1.098193706148   111.45323429   180.41526179
 H     26  25  24     1.098911616224   110.22607705   300.46746434
 H     28  22  21     1.101968329822   108.04742044    66.78634527
 H     28  22  21     1.101111423489   105.78415407   312.01378532
 H     29  28  22     1.103680758638   108.64670889   298.07304039
 H     30  29  28     1.100977782323   113.02795432   295.80668568
 H     30  29  28     1.100375484884   110.73083587    55.67855830
 H     30  29  28     1.099277040180   110.82380522   175.65680220
 H     31  29  28     1.099851871392   111.32294604    57.19236472
 H     31  29  28     1.099512019050   111.13392194   177.63205015
 H     31  29  28     1.101053492090   110.69532168   297.32747088
 H     34  33  19     1.101242266085   110.49515621     7.72356473
 H     34  33  19     1.105373257884   106.75148238   251.80003324
 H     35  34  33     1.100371294471   108.74778341    57.67802735
 H     35  34  33     1.100800129610   108.09699324   302.28002661
 H     36  35  34     1.103221792950   109.01397362    56.67620953
 H     36  35  34     1.105185250342   109.82661983   300.84861578
 H     37  36  35     1.102734992766   108.69670158    57.07997569
 H     37  36  35     1.104161710556   109.05878432   302.01208581
 H     38  37  36     1.104613372781   109.34196198   302.96153087
 H     38  37  36     1.103219481921   108.96334954   187.57265602
 H     39  38  37     1.104884386407   109.06816776    54.79890940
 H     39  38  37     1.102976862115   109.97330928   298.96552047
 H     40  39  38     1.104594311423   109.30125868    57.67826601
 H     40  39  38     1.104540462750   109.32994337   302.24264541
 H     41  40  39     1.103523433340   109.10331474    57.57390731
 H     41  40  39     1.103576175608   109.11578908   302.25158950
 H     42  41  40     1.099548734583   111.69155814   180.01699517
 H     42  41  40     1.100711005999   111.07137762   300.25987990
 H     42  41  40     1.100748320890   111.07809650    59.76087544
 H     44  18  17     0.972511741803   108.45220605   183.75059488
 H     46  14  13     1.098046951124   106.90106003   176.67852326
 H     46  14  13     1.098419294802   108.37151375    61.97020188
 H     47  46  14     1.098655890999   110.90397892   180.45213852
 H     47  46  14     1.101844554935   111.38520366   300.27651241
 H     47  46  14     1.100255224677   111.67941987    60.59978042
 H     49  11  10     1.104057623104   104.70221512   156.98052635
 H     50  49  11     1.099594994810   112.97500895    53.31916958
 H     50  49  11     1.098365057668   110.48623341   173.66295052
 H     50  49  11     1.099716703605   110.98027989   292.64453730
 H     51  49  11     1.098570701690   110.92361891   305.77958090
 H     51  49  11     1.096771236955   111.53298027    65.57888716
 H     51  49  11     1.100185324276   109.97533518   186.39419902

---------------------------
INTERNAL COORDINATES (A.U.)
---------------------------
 O      0   0   0     0.000000000000     0.00000000     0.00000000
 C      1   0   0     2.322150704658     0.00000000     0.00000000
 C      2   1   0     2.951298291089   122.14220543     0.00000000
 C      3   2   1     2.882212517509   111.51632987   353.88791591
 C      4   3   2     2.902910600664   102.87241883   276.61644125
 C      5   4   3     2.900097448620   103.95629692   321.52031508
 N      6   5   4     2.796576043383   103.78382391    26.49422551
 C      7   6   5     2.540234856694   125.91739830   176.47767250
 O      8   7   6     2.368349953506   122.68878454   181.70479411
 N      2   1   3     2.558393310856   126.05213644   181.54279616
 C     10   2   1     2.753098578143   126.45913024     9.50839910
 C     11  10   2     2.902950417149   111.67792959   193.18899451
 N     12  11  10     2.594126745835   117.07493633   320.12744651
 C     13  12  11     2.773623122865   121.78363048   185.56701124
 C     14  13  12     2.930338921919   112.54418936    60.64451621
 N     15  14  13     2.581414639217   114.40663720    28.14372758
 C     16  15  14     2.738602380986   123.19532068   181.66308352
 C     17  16  15     2.896328423472   110.22427877   220.90336270
 C     18  17  16     2.924446981964   114.62298697    75.31103381
 C     19  18  17     2.899241302401   112.30968827   299.50994913
 N     20  19  18     2.572335064299   115.67373825   285.36868463
 C     21  20  19     2.738709759365   120.52171421   176.33251338
 C     22  21  20     2.888629403519   107.22552311   202.24287742
 N     23  22  21     2.571743239006   114.18576917   156.13316512
 C     24  23  22     2.740881716300   123.03235084   185.60119914
 C     25  24  23     2.902576334727   111.02693839   232.84234089
 O     23  22  21     2.331848394335   122.00093681   333.86166835
 C     22  21  20     2.923378375497   111.13960933    79.56756667
 C     28  22  21     2.902589651810   116.48872735   191.25920518
 C     29  28  22     2.899568665795   112.11666182    58.04159457
 C     29  28  22     2.898166039340   109.29105635   180.83008691
 O     20  19  18     2.329227354857   122.22367432   105.79245757
 C     19  18  17     2.916130990037   116.03376378    63.51511240
 C     33  19  18     2.876429583975   115.13272896   170.35139198
 C     34  33  19     2.897253188708   112.10438586   131.37689412
 C     35  34  33     2.888519027636   112.66484453   180.53469995
 C     36  35  34     2.894525886019   112.68097260   178.84349292
 C     37  36  35     2.898429390567   114.36651355   179.34420520
 C     38  37  36     2.894748088141   114.34077425    65.77415602
 C     39  38  37     2.891498152103   113.31565907   176.80942551
 C     40  39  38     2.893070569561   113.58194066   179.93318176
 C     41  40  39     2.891086194544   113.16482215   179.90960167
 O     33  19  18     2.294526101318   122.95334144   351.22893187
 O     18  17  16     2.695371580423   106.87462280   199.95971444
 O     15  14  13     2.312011781918   121.20033503   203.25554534
 C     14  13  12     2.894017465747   113.52686292   292.33321193
 C     46  14  13     2.886149874997   112.36649301   298.95862389
 O     12  11  10     2.320443387195   120.01559770   147.85016727
 C     11  10   2     2.967539591987   114.22263428    71.52218644
 C     49  11  10     2.893486131928   112.46153673    39.24479763
 C     49  11  10     2.896119183521   112.51930073   272.80088112
 H      3   2   1     2.077352876894   109.16776263   120.88921366
 H      4   3   2     2.077966474900   110.00720699   158.05117828
 H      4   3   2     2.070011770027   110.79853787    36.95446231
 H      5   4   3     2.075173522318   109.18108841    79.19726108
 H      5   4   3     2.072330785351   113.35754822   199.96706333
 H      6   5   4     2.076374359826   112.78227043   146.33634807
 H      6   5   4     2.080072969333   111.39636525   268.36076984
[...]
freq.      77.80  E(vib)   ...       0.49 
freq.      85.46  E(vib)   ...       0.48 
freq.      88.65  E(vib)   ...       0.47 
freq.      98.26  E(vib)   ...       0.46 
freq.     100.32  E(vib)   ...       0.46 
freq.     107.33  E(vib)   ...       0.45 
freq.     109.38  E(vib)   ...       0.45 
freq.     110.94  E(vib)   ...       0.45 
freq.     115.63  E(vib)   ...       0.44 
freq.     124.01  E(vib)   ...       0.43 
freq.     126.28  E(vib)   ...       0.43 
freq.     133.18  E(vib)   ...       0.42 
freq.     142.93  E(vib)   ...       0.41 
freq.     144.21  E(vib)   ...       0.41 
freq.     146.89  E(vib)   ...       0.41 
freq.     150.01  E(vib)   ...       0.40 
freq.     157.60  E(vib)   ...       0.40 
freq.     166.15  E(vib)   ...       0.39 
freq.     173.33  E(vib)   ...       0.38 
freq.     179.46  E(vib)   ...       0.37 
freq.     185.94  E(vib)   ...       0.37 
freq.     190.56  E(vib)   ...       0.36 
freq.     198.88  E(vib)   ...       0.35 
freq.     204.50  E(vib)   ...       0.35 
freq.     207.20  E(vib)   ...       0.34 
freq.     209.71  E(vib)   ...       0.34 
freq.     218.13  E(vib)   ...       0.33 
freq.     222.26  E(vib)   ...       0.33 
freq.     224.17  E(vib)   ...       0.33 
freq.     229.02  E(vib)   ...       0.32 
freq.     230.62  E(vib)   ...       0.32 
freq.     232.24  E(vib)   ...       0.32 
freq.     237.00  E(vib)   ...       0.32 
freq.     238.03  E(vib)   ...       0.32 
freq.     239.37  E(vib)   ...       0.31 
freq.     245.85  E(vib)   ...       0.31 
freq.     254.63  E(vib)   ...       0.30 
freq.     262.04  E(vib)   ...       0.29 
freq.     274.20  E(vib)   ...       0.28 
freq.     280.50  E(vib)   ...       0.28 
freq.     284.91  E(vib)   ...       0.28 
freq.     286.07  E(vib)   ...       0.27 
freq.     299.34  E(vib)   ...       0.26 
freq.     306.32  E(vib)   ...       0.26 
freq.     316.23  E(vib)   ...       0.25 
freq.     327.04  E(vib)   ...       0.24 
freq.     328.75  E(vib)   ...       0.24 
freq.     341.74  E(vib)   ...       0.23 
freq.     351.41  E(vib)   ...       0.23 
freq.     364.48  E(vib)   ...       0.22 
freq.     370.57  E(vib)   ...       0.21 
freq.     375.70  E(vib)   ...       0.21 
freq.     380.38  E(vib)   ...       0.21 
freq.     390.80  E(vib)   ...       0.20 
freq.     401.20  E(vib)   ...       0.19 
freq.     408.60  E(vib)   ...       0.19 
freq.     408.99  E(vib)   ...       0.19 
freq.     433.31  E(vib)   ...       0.17 
freq.     437.05  E(vib)   ...       0.17 
freq.     443.46  E(vib)   ...       0.17 
freq.     449.11  E(vib)   ...       0.17 
freq.     464.50  E(vib)   ...       0.16 
freq.     468.87  E(vib)   ...       0.16 
freq.     494.51  E(vib)   ...       0.14 
freq.     495.88  E(vib)   ...       0.14 
freq.     500.56  E(vib)   ...       0.14 
freq.     509.80  E(vib)   ...       0.14 
freq.     521.40  E(vib)   ...       0.13 
freq.     530.14  E(vib)   ...       0.13 
freq.     537.99  E(vib)   ...       0.12 
freq.     549.01  E(vib)   ...       0.12 
freq.     562.91  E(vib)   ...       0.11 
freq.     574.89  E(vib)   ...       0.11 
freq.     603.45  E(vib)   ...       0.10 
freq.     623.55  E(vib)   ...       0.09 
freq.     630.25  E(vib)   ...       0.09 
freq.     642.10  E(vib)   ...       0.09 
freq.     658.40  E(vib)   ...       0.08 
freq.     675.69  E(vib)   ...       0.08 
freq.     688.07  E(vib)   ...       0.07 
freq.     691.06  E(vib)   ...       0.07 
freq.     700.74  E(vib)   ...       0.07 
freq.     710.47  E(vib)   ...       0.07 
freq.     716.93  E(vib)   ...       0.07 
freq.     723.17  E(vib)   ...       0.07 
freq.     725.13  E(vib)   ...       0.06 
freq.     731.86  E(vib)   ...       0.06 
freq.     735.10  E(vib)   ...       0.06 
freq.     736.51  E(vib)   ...       0.06 
freq.     744.81  E(vib)   ...       0.06 
freq.     757.62  E(vib)   ...       0.06 
freq.     787.53  E(vib)   ...       0.05 
freq.     797.15  E(vib)   ...       0.05 
freq.     811.19  E(vib)   ...       0.05 
freq.     815.24  E(vib)   ...       0.05 
freq.     818.08  E(vib)   ...       0.05 
freq.     824.95  E(vib)   ...       0.04 
freq.     832.30  E(vib)   ...       0.04 
freq.     845.56  E(vib)   ...       0.04 
freq.     848.95  E(vib)   ...       0.04 
freq.     856.22  E(vib)   ...       0.04 
freq.     860.72  E(vib)   ...       0.04 
freq.     863.81  E(vib)   ...       0.04 
freq.     876.61  E(vib)   ...       0.04 
freq.     883.46  E(vib)   ...       0.04 
freq.     889.66  E(vib)   ...       0.04 
freq.     892.08  E(vib)   ...       0.03 
freq.     900.96  E(vib)   ...       0.03 
freq.     902.00  E(vib)   ...       0.03 
freq.     910.08  E(vib)   ...       0.03 
freq.     911.04  E(vib)   ...       0.03 
freq.     914.63  E(vib)   ...       0.03 
freq.     924.69  E(vib)   ...       0.03 
freq.     931.65  E(vib)   ...       0.03 
freq.     934.67  E(vib)   ...       0.03 
freq.     935.59  E(vib)   ...       0.03 
freq.     939.95  E(vib)   ...       0.03 
freq.     942.59  E(vib)   ...       0.03 
freq.     946.38  E(vib)   ...       0.03 
freq.     950.95  E(vib)   ...       0.03 
freq.     973.22  E(vib)   ...       0.03 
freq.     974.24  E(vib)   ...       0.03 
freq.     977.75  E(vib)   ...       0.03 
freq.     988.44  E(vib)   ...       0.02 
freq.     996.96  E(vib)   ...       0.02 
freq.    1006.96  E(vib)   ...       0.02 
freq.    1017.35  E(vib)   ...       0.02 
freq.    1022.73  E(vib)   ...       0.02 
freq.    1024.66  E(vib)   ...       0.02 
freq.    1034.79  E(vib)   ...       0.02 
freq.    1037.96  E(vib)   ...       0.02 
freq.    1041.49  E(vib)   ...       0.02 
freq.    1043.03  E(vib)   ...       0.02 
freq.    1045.20  E(vib)   ...       0.02 
freq.    1047.23  E(vib)   ...       0.02 
freq.    1051.90  E(vib)   ...       0.02 
freq.    1060.79  E(vib)   ...       0.02 
freq.    1065.29  E(vib)   ...       0.02 
freq.    1068.73  E(vib)   ...       0.02 
freq.    1070.91  E(vib)   ...       0.02 
freq.    1074.14  E(vib)   ...       0.02 
freq.    1076.24  E(vib)   ...       0.02 
freq.    1082.54  E(vib)   ...       0.02 
freq.    1085.92  E(vib)   ...       0.02 
freq.    1088.34  E(vib)   ...       0.02 
freq.    1098.60  E(vib)   ...       0.02 
freq.    1111.21  E(vib)   ...       0.01 
freq.    1113.11  E(vib)   ...       0.01 
freq.    1118.02  E(vib)   ...       0.01 
freq.    1122.09  E(vib)   ...       0.01 
freq.    1125.89  E(vib)   ...       0.01 
freq.    1126.26  E(vib)   ...       0.01 
freq.    1137.88  E(vib)   ...       0.01 
freq.    1155.15  E(vib)   ...       0.01 
freq.    1156.85  E(vib)   ...       0.01 
freq.    1160.58  E(vib)   ...       0.01 
freq.    1162.76  E(vib)   ...       0.01 
freq.    1163.73  E(vib)   ...       0.01 
freq.    1173.86  E(vib)   ...       0.01 
freq.    1173.99  E(vib)   ...       0.01 
freq.    1186.84  E(vib)   ...       0.01 
freq.    1191.18  E(vib)   ...       0.01 
freq.    1197.49  E(vib)   ...       0.01 
freq.    1204.89  E(vib)   ...       0.01 
freq.    1212.15  E(vib)   ...       0.01 
freq.    1217.66  E(vib)   ...       0.01 
freq.    1221.33  E(vib)   ...       0.01 
freq.    1226.73  E(vib)   ...       0.01 
freq.    1227.53  E(vib)   ...       0.01 
freq.    1229.95  E(vib)   ...       0.01 
freq.    1236.58  E(vib)   ...       0.01 
freq.    1237.69  E(vib)   ...       0.01 
freq.    1244.96  E(vib)   ...       0.01 
freq.    1246.44  E(vib)   ...       0.01 
freq.    1256.10  E(vib)   ...       0.01 
freq.    1262.22  E(vib)   ...       0.01 
freq.    1264.06  E(vib)   ...       0.01 
freq.    1266.91  E(vib)   ...       0.01 
freq.    1267.55  E(vib)   ...       0.01 
freq.    1270.56  E(vib)   ...       0.01 
freq.    1274.56  E(vib)   ...       0.01 
freq.    1280.05  E(vib)   ...       0.01 
freq.    1284.40  E(vib)   ...       0.01 
freq.    1284.64  E(vib)   ...       0.01 
freq.    1288.79  E(vib)   ...       0.01 
freq.    1289.68  E(vib)   ...       0.01 
freq.    1292.85  E(vib)   ...       0.01 
freq.    1299.87  E(vib)   ...       0.01 
freq.    1300.73  E(vib)   ...       0.01 
freq.    1305.06  E(vib)   ...       0.01 
freq.    1307.57  E(vib)   ...       0.01 
freq.    1307.68  E(vib)   ...       0.01 
freq.    1309.93  E(vib)   ...       0.01 
freq.    1311.29  E(vib)   ...       0.01 
freq.    1317.16  E(vib)   ...       0.01 
freq.    1320.35  E(vib)   ...       0.01 
freq.    1328.35  E(vib)   ...       0.01 
freq.    1328.76  E(vib)   ...       0.01 
freq.    1331.72  E(vib)   ...       0.01 
freq.    1331.80  E(vib)   ...       0.01 
freq.    1334.19  E(vib)   ...       0.01 
freq.    1336.55  E(vib)   ...       0.01 
freq.    1342.38  E(vib)   ...       0.01 
freq.    1347.52  E(vib)   ...       0.01 
freq.    1348.73  E(vib)   ...       0.01 
freq.    1349.25  E(vib)   ...       0.01 
freq.    1352.22  E(vib)   ...       0.01 
freq.    1355.34  E(vib)   ...       0.01 
freq.    1358.02  E(vib)   ...       0.01 
freq.    1362.96  E(vib)   ...       0.01 
freq.    1363.54  E(vib)   ...       0.01 
freq.    1373.12  E(vib)   ...       0.01 
freq.    1374.96  E(vib)   ...       0.01 
freq.    1397.01  E(vib)   ...       0.00 
freq.    1415.61  E(vib)   ...       0.00 
freq.    1418.03  E(vib)   ...       0.00 
freq.    1425.18  E(vib)   ...       0.00 
freq.    1425.60  E(vib)   ...       0.00 
freq.    1433.20  E(vib)   ...       0.00 
freq.    1434.28  E(vib)   ...       0.00 
freq.    1436.18  E(vib)   ...       0.00 
freq.    1436.35  E(vib)   ...       0.00 
freq.    1436.64  E(vib)   ...       0.00 
freq.    1438.59  E(vib)   ...       0.00 
freq.    1440.33  E(vib)   ...       0.00 
freq.    1441.44  E(vib)   ...       0.00 
freq.    1443.08  E(vib)   ...       0.00 
freq.    1443.64  E(vib)   ...       0.00 
freq.    1444.38  E(vib)   ...       0.00 
freq.    1448.53  E(vib)   ...       0.00 
freq.    1449.07  E(vib)   ...       0.00 
freq.    1450.82  E(vib)   ...       0.00 
freq.    1451.06  E(vib)   ...       0.00 
freq.    1451.29  E(vib)   ...       0.00 
freq.    1453.95  E(vib)   ...       0.00 
freq.    1454.82  E(vib)   ...       0.00 
freq.    1457.18  E(vib)   ...       0.00 
freq.    1457.78  E(vib)   ...       0.00 
freq.    1459.16  E(vib)   ...       0.00 
freq.    1460.18  E(vib)   ...       0.00 
freq.    1460.26  E(vib)   ...       0.00 
freq.    1460.76  E(vib)   ...       0.00 
freq.    1463.46  E(vib)   ...       0.00 
freq.    1468.00  E(vib)   ...       0.00 
freq.    1480.39  E(vib)   ...       0.00 
freq.    1489.76  E(vib)   ...       0.00 
freq.    1497.39  E(vib)   ...       0.00 
freq.    1575.50  E(vib)   ...       0.00 
freq.    1598.13  E(vib)   ...       0.00 
freq.    1655.00  E(vib)   ...       0.00 
freq.    1679.98  E(vib)   ...       0.00 
freq.    1684.57  E(vib)   ...       0.00 
freq.    1705.57  E(vib)   ...       0.00 
freq.    1712.32  E(vib)   ...       0.00 
freq.    1739.08  E(vib)   ...       0.00 
freq.    2836.23  E(vib)   ...       0.00 
freq.    2908.63  E(vib)   ...       0.00 
freq.    2924.63  E(vib)   ...       0.00 
freq.    2925.84  E(vib)   ...       0.00 
freq.    2927.43  E(vib)   ...       0.00 
freq.    2935.65  E(vib)   ...       0.00 
freq.    2936.59  E(vib)   ...       0.00 
freq.    2939.03  E(vib)   ...       0.00 
freq.    2939.54  E(vib)   ...       0.00 
freq.    2941.01  E(vib)   ...       0.00 
freq.    2942.14  E(vib)   ...       0.00 
freq.    2942.44  E(vib)   ...       0.00 
freq.    2946.89  E(vib)   ...       0.00 
freq.    2953.45  E(vib)   ...       0.00 
freq.    2954.81  E(vib)   ...       0.00 
freq.    2955.34  E(vib)   ...       0.00 
freq.    2955.71  E(vib)   ...       0.00 
freq.    2956.55  E(vib)   ...       0.00 
freq.    2960.06  E(vib)   ...       0.00 
freq.    2960.14  E(vib)   ...       0.00 
freq.    2962.30  E(vib)   ...       0.00 
freq.    2965.42  E(vib)   ...       0.00 
freq.    2966.26  E(vib)   ...       0.00 
freq.    2969.85  E(vib)   ...       0.00 
freq.    2972.96  E(vib)   ...       0.00 
freq.    2973.37  E(vib)   ...       0.00 
freq.    2975.59  E(vib)   ...       0.00 
freq.    2976.10  E(vib)   ...       0.00 
freq.    2982.50  E(vib)   ...       0.00 
freq.    2987.46  E(vib)   ...       0.00 
freq.    2988.76  E(vib)   ...       0.00 
freq.    2988.81  E(vib)   ...       0.00 
freq.    3001.90  E(vib)   ...       0.00 
freq.    3002.69  E(vib)   ...       0.00 
freq.    3007.67  E(vib)   ...       0.00 
freq.    3008.21  E(vib)   ...       0.00 
freq.    3008.61  E(vib)   ...       0.00 
freq.    3014.09  E(vib)   ...       0.00 
freq.    3014.54  E(vib)   ...       0.00 
freq.    3017.21  E(vib)   ...       0.00 
freq.    3018.82  E(vib)   ...       0.00 
freq.    3020.14  E(vib)   ...       0.00 
freq.    3021.17  E(vib)   ...       0.00 
freq.    3023.56  E(vib)   ...       0.00 
freq.    3026.50  E(vib)   ...       0.00 
freq.    3028.48  E(vib)   ...       0.00 
freq.    3030.13  E(vib)   ...       0.00 
freq.    3034.06  E(vib)   ...       0.00 
freq.    3034.31  E(vib)   ...       0.00 
freq.    3034.36  E(vib)   ...       0.00 
freq.    3038.48  E(vib)   ...       0.00 
freq.    3049.15  E(vib)   ...       0.00 
freq.    3049.68  E(vib)   ...       0.00 
freq.    3054.58  E(vib)   ...       0.00 
freq.    3059.87  E(vib)   ...       0.00 
freq.    3061.56  E(vib)   ...       0.00 
freq.    3068.61  E(vib)   ...       0.00 
freq.    3080.00  E(vib)   ...       0.00 
freq.    3290.33  E(vib)   ...       0.00 
freq.    3451.75  E(vib)   ...       0.00 
freq.    3473.40  E(vib)   ...       0.00 
freq.    3482.76  E(vib)   ...       0.00 
freq.    3504.50  E(vib)   ...       0.00 
freq.    3683.25  E(vib)   ...       0.00 

------------
INNER ENERGY
------------

The inner energy is: U= E(el) + E(ZPE) + E(vib) + E(rot) + E(trans)
    E(el)   - is the total energy from the electronic structure calculation
              = E(kin-el) + E(nuc-el) + E(el-el) + E(nuc-nuc)
    E(ZPE)  - the the zero temperature vibrational energy from the frequency calculation
    E(vib)  - the the finite temperature correction to E(ZPE) due to population
              of excited vibrational states
    E(rot)  - is the rotational thermal energy
    E(trans)- is the translational thermal energy

Summary of contributions to the inner energy U:
Electronic energy                ...  -2380.05479109 Eh
Zero point energy                ...      0.97498095 Eh     611.81 kcal/mol
Thermal vibrational correction   ...      0.05504927 Eh      34.54 kcal/mol
Thermal rotational correction    ...      0.00141627 Eh       0.89 kcal/mol
Thermal translational correction ...      0.00141627 Eh       0.89 kcal/mol
-----------------------------------------------------------------------
Total thermal energy                  -2379.02192833 Eh


Summary of corrections to the electronic energy:
(perhaps to be used in another calculation)
Total thermal correction                  0.05788181 Eh      36.32 kcal/mol
Non-thermal (ZPE) correction              0.97498095 Eh     611.81 kcal/mol
-----------------------------------------------------------------------
Total correction                          1.03286276 Eh     648.13 kcal/mol


--------
ENTHALPY
--------

The enthalpy is H = U + kB*T
                kB is Boltzmann's constant
Total free energy                 ...  -2379.02192833 Eh 
Thermal Enthalpy correction       ...      0.00094421 Eh       0.59 kcal/mol
-----------------------------------------------------------------------
Total Enthalpy                    ...  -2379.02098412 Eh


Note: Only C1 symmetry has been detected, increase convergence thresholds 
      if your molecule has a higher symmetry. Symmetry factor of 1.0 is   
      used for the rotational entropy correction. 
 

Note: Rotational entropy computed according to Herzberg 
Infrared and Raman Spectra, Chapter V,1, Van Nostrand Reinhold, 1945 
Point Group:  C1, Symmetry Number:   1  
Rotational constants in cm-1:     0.002791     0.000966     0.000833 

Vibrational entropy computed according to the QRRHO of S. Grimme
Chem.Eur.J. 2012 18 9955


-------
ENTROPY
-------

The entropy contributions are T*S = T*(S(el)+S(vib)+S(rot)+S(trans))
     S(el)   - electronic entropy
     S(vib)  - vibrational entropy
     S(rot)  - rotational entropy
     S(trans)- translational entropy
The entropies will be listed as mutliplied by the temperature to get
units of energy

Electronic entropy                ...      0.00000000 Eh      0.00 kcal/mol
Vibrational entropy               ...      0.10141477 Eh     63.64 kcal/mol
Rotational entropy                ...      0.01891190 Eh     11.87 kcal/mol
Translational entropy             ...      0.02166895 Eh     13.60 kcal/mol
-----------------------------------------------------------------------
Final entropy term                ...      0.14199562 Eh     89.10 kcal/mol

In case the symmetry of your molecule has not been determined correctly
or in case you have a reason to use a different symmetry number we print 
out the resulting rotational entropy values for sn=1,12 :
 --------------------------------------------------------
|  sn= 1 | S(rot)=       0.01891190 Eh     11.87 kcal/mol|
|  sn= 2 | S(rot)=       0.01825744 Eh     11.46 kcal/mol|
|  sn= 3 | S(rot)=       0.01787461 Eh     11.22 kcal/mol|
|  sn= 4 | S(rot)=       0.01760299 Eh     11.05 kcal/mol|
|  sn= 5 | S(rot)=       0.01739230 Eh     10.91 kcal/mol|
|  sn= 6 | S(rot)=       0.01722015 Eh     10.81 kcal/mol|
|  sn= 7 | S(rot)=       0.01707461 Eh     10.71 kcal/mol|
|  sn= 8 | S(rot)=       0.01694853 Eh     10.64 kcal/mol|
|  sn= 9 | S(rot)=       0.01683732 Eh     10.57 kcal/mol|
|  sn=10 | S(rot)=       0.01673784 Eh     10.50 kcal/mol|
|  sn=11 | S(rot)=       0.01664785 Eh     10.45 kcal/mol|
|  sn=12 | S(rot)=       0.01656570 Eh     10.40 kcal/mol|
 --------------------------------------------------------


-------------------
GIBBS FREE ENERGY
-------------------

The Gibbs free energy is G = H - T*S

Total enthalpy                    ...  -2379.02098412 Eh 
Total entropy correction          ...     -0.14199562 Eh    -89.10 kcal/mol
-----------------------------------------------------------------------
Final Gibbs free energy         ...  -2379.16297974 Eh

For completeness - the Gibbs free energy minus the electronic energy
G-E(el)                           ...      0.89181135 Eh    559.62 kcal/mol

--------------------------------------------------------------------------
WARNING: No preset parameters were found for the device that Open MPI
detected:

  Local host:            eu-g1-046-1
  Device name:           mlx5_0
  Device vendor ID:      0x02c9
  Device vendor part ID: 4123

Default device parameters will be used, which may result in lower
performance.  You can edit any of the files specified by the
btl_openib_device_param_files MCA parameter to set values for your
device.

NOTE: You can turn off this warning by setting the MCA parameter
      btl_openib_warn_no_device_params_found to 0.
--------------------------------------------------------------------------
--------------------------------------------------------------------------
WARNING: There was an error initializing an OpenFabrics device.

  Local host:   eu-g1-046-1
  Local device: mlx5_0
--------------------------------------------------------------------------

Timings for individual modules:

Sum of individual times         ...    37045.609 sec (= 617.427 min)
GTO integral calculation        ...       15.584 sec (=   0.260 min)   0.0 %
SCF iterations                  ...      659.632 sec (=  10.994 min)   1.8 %
SCF Gradient evaluation         ...      108.796 sec (=   1.813 min)   0.3 %
Geometry relaxation             ...        4.315 sec (=   0.072 min)   0.0 %
Analytical frequency calculation...    36257.281 sec (= 604.288 min)  97.9 %
                             ****ORCA TERMINATED NORMALLY****
TOTAL RUN TIME: 0 days 10 hours 17 minutes 43 seconds 737 msec
