
                                 *****************
                                 * O   R   C   A *
                                 *****************

           --- An Ab Initio, DFT and Semiempirical electronic structure package ---

                  #######################################################
                  #                        -***-                        #
                  #          Department of theory and spectroscopy      #
                  #               Directorship: Frank Neese             #
                  #        Max Planck Institute fuer Kohlenforschung    #
                  #                Kaiser Wilhelm Platz 1               #
                  #                 D-45470 Muelheim/Ruhr               #
                  #                      Germany                        #
                  #                                                     #
                  #                  All rights reserved                #
                  #                        -***-                        #
                  #######################################################


                         Program Version 4.2.0 -  RELEASE  -


 With contributions from (in alphabetic order):
   Daniel Aravena         : Magnetic Suceptibility
   Michael Atanasov       : Ab Initio Ligand Field Theory (pilot matlab implementation)
   Alexander A. Auer      : GIAO ZORA, VPT2
   Ute Becker             : Parallelization
   Giovanni Bistoni       : ED, misc. LED, open-shell LED, HFLED
   Martin Brehm           : Molecular dynamics
   Dmytro Bykov           : SCF Hessian
   Vijay G. Chilkuri      : MRCI spin determinant printing, contributions to CSF-ICE
   Dipayan Datta          : RHF DLPNO-CCSD density
   Achintya Kumar Dutta   : EOM-CC, STEOM-CC
   Dmitry Ganyushin       : Spin-Orbit,Spin-Spin,Magnetic field MRCI
   Miquel Garcia          : C-PCM Hessian, Gaussian charge scheme
   Yang Guo               : DLPNO-NEVPT2, CIM, IAO-localization
   Andreas Hansen         : Spin unrestricted coupled pair/coupled cluster methods
   Benjamin Helmich-Paris : CASSCF linear response (MC-RPA)
   Lee Huntington         : MR-EOM, pCC
   Robert Izsak           : Overlap fitted RIJCOSX, COSX-SCS-MP3, EOM
   Christian Kollmar      : KDIIS, OOCD, Brueckner-CCSD(T), CCSD density
   Simone Kossmann        : Meta GGA functionals, TD-DFT gradient, OOMP2, MP2 Hessian
   Martin Krupicka        : AUTO-CI
   Lucas Lang             : DCDCAS
   Dagmar Lenk            : GEPOL surface, SMD
   Dimitrios Liakos       : Extrapolation schemes; Compound Job, initial MDCI parallelization
   Dimitrios Manganas     : Further ROCIS development; embedding schemes
   Dimitrios Pantazis     : SARC Basis sets
   Taras Petrenko         : DFT Hessian,TD-DFT gradient, ASA, ECA, R-Raman, ABS, FL, XAS/XES, NRVS
   Peter Pinski           : DLPNO-MP2, DLPNO-MP2 Gradient
   Christoph Reimann      : Effective Core Potentials
   Marius Retegan         : Local ZFS, SOC
   Christoph Riplinger    : Optimizer, TS searches, QM/MM, DLPNO-CCSD(T), (RO)-DLPNO pert. Triples
   Tobias Risthaus        : Range-separated hybrids, TD-DFT gradient, RPA, STAB
   Michael Roemelt        : Original ROCIS implementation
   Masaaki Saitow         : Open-shell DLPNO-CCSD energy and density
   Barbara Sandhoefer     : DKH picture change effects
   Avijit Sen             : IP-ROCIS
   Kantharuban Sivalingam : CASSCF convergence, NEVPT2, FIC-MRCI
   Bernardo de Souza      : ESD, SOC TD-DFT
   Georgi Stoychev        : AutoAux, RI-MP2 NMR
   Willem Van den Heuvel  : Paramagnetic NMR
   Boris Wezisla          : Elementary symmetry handling
   Frank Wennmohs         : Technical directorship


 We gratefully acknowledge several colleagues who have allowed us to
 interface, adapt or use parts of their codes:
   Stefan Grimme, W. Hujo, H. Kruse,             : VdW corrections, initial TS optimization,
                  C. Bannwarth                     DFT functionals, gCP, sTDA/sTD-DF
   Ed Valeev, F. Pavosevic, A. Kumar             : LibInt (2-el integral package), F12 methods
   Garnet Chan, S. Sharma, J. Yang, R. Olivares  : DMRG
   Ulf Ekstrom                                   : XCFun DFT Library
   Mihaly Kallay                                 : mrcc  (arbitrary order and MRCC methods)
   Andreas Klamt, Michael Diedenhofen            : otool_cosmo (COSMO solvation model)
   Jiri Pittner, Ondrej Demel                    : Mk-CCSD
   Frank Weinhold                                : gennbo (NPA and NBO analysis)
   Christopher J. Cramer and Donald G. Truhlar   : smd solvation model
   Lars Goerigk                                  : TD-DFT with DH, B97 family of functionals
   V. Asgeirsson, H. Jonsson                     : NEB implementation
   FAccTs GmbH                                   : IRC, NEB, NEB-TS, Multilevel, MM, QM/MM, CI optimization
   S Lehtola, MJT Oliveira, MAL Marques          : LibXC Library


 Your calculation uses the libint2 library for the computation of 2-el integrals
 For citations please refer to: http://libint.valeyev.net

 Your ORCA version has been built with support for libXC version: 4.2.3
 For citations please refer to: https://tddft.org/programs/libxc/

 This ORCA versions uses:
   CBLAS   interface :  Fast vector & matrix operations
   LAPACKE interface :  Fast linear algebra routines
   SCALAPACK package :  Parallel linear algebra routines




***************************************
The coordinates will be read from file: 79.xyz
***************************************


Your calculation utilizes the atom-pairwise dispersion correction
with the Becke-Johnson damping scheme (D3BJ)
Cite in your paper:
S.Grimme, S.Ehrlich, L.Goerigk, J Comput Chem, (2011), 32, 1456–1465 
S.Grimme, J.Antony, S.Ehrlich and H.Krieg, J.Chem.Phys., 132, (2010), 154104 
   

----- Orbital basis set information -----
Your calculation utilizes the basis: def2-TZVP
   F. Weigend and R. Ahlrichs, Phys. Chem. Chem. Phys. 7, 3297 (2005).

----- AuxJ basis set information -----
Your calculation utilizes the auxiliary basis: def2/J
   F. Weigend, Phys. Chem. Chem. Phys. 8, 1057 (2006).

================================================================================
                                        WARNINGS
                       Please study these warnings very carefully!
================================================================================


WARNING: Geometry Optimization
  ===> : Switching off AutoStart
         For restart on a previous wavefunction, please use MOREAD

INFO   : the flag for use of LIBINT has been found!

================================================================================
                                       INPUT FILE
================================================================================
NAME = 79.inp
|  1> !RI BP86 def2-tzvp def2/J D3BJ TIGHTSCF TightOpt Grid5 FinalGrid6 freq
|  2> %maxcore 4000
|  3> %pal nprocs 24
|  4> end
|  5> * xyzfile 0 1 79.xyz 
|  6> 
|  7>                          ****END OF INPUT****
================================================================================

                       *****************************
                       * Geometry Optimization Run *
                       *****************************

Geometry optimization settings:
Update method            Update   .... BFGS
Choice of coordinates    CoordSys .... Z-matrix Internals
Initial Hessian          InHess   .... Almoef's Model

Convergence Tolerances:
Energy Change            TolE     ....  1.0000e-06 Eh
Max. Gradient            TolMAXG  ....  1.0000e-04 Eh/bohr
RMS Gradient             TolRMSG  ....  3.0000e-05 Eh/bohr
Max. Displacement        TolMAXD  ....  1.0000e-03 bohr
RMS Displacement         TolRMSD  ....  6.0000e-04 bohr
Strict Convergence                ....  False
------------------------------------------------------------------------------
                        ORCA OPTIMIZATION COORDINATE SETUP
------------------------------------------------------------------------------

The optimization will be done in new redundant internal coordinates
Making redundant internal coordinates   ...  (new redundants) done
Evaluating the initial hessian          ...  (Almloef) done
Evaluating the coordinates              ...  done
Calculating the B-matrix                .... done
Calculating the G-matrix                .... done
Diagonalizing the G-matrix              .... done
Small eigenvalue found = 2.543e-04
Small eigenvalue found = 7.427e-04
Small eigenvalue found = 2.686e-03
Small eigenvalue found = 2.832e-03
Small eigenvalue found = 3.485e-03
Small eigenvalue found = 4.152e-03
Small eigenvalue found = 5.000e-03
Small eigenvalue found = 5.908e-03
Small eigenvalue found = 7.660e-03
Small eigenvalue found = 8.253e-03
Small eigenvalue found = 1.123e-02
Small eigenvalue found = 1.273e-02
Small eigenvalue found = 1.426e-02
Small eigenvalue found = 1.591e-02
Small eigenvalue found = 1.824e-02
Small eigenvalue found = 2.192e-02
Small eigenvalue found = 2.497e-02
Small eigenvalue found = 2.864e-02
The first mode is                       ....  326
The number of degrees of freedom        ....  339

    -----------------------------------------------------------------
                    Redundant Internal Coordinates


    -----------------------------------------------------------------
         Definition                    Initial Value    Approx d2E/dq
    -----------------------------------------------------------------
      1. B(C   1,O   0)                  1.2310         1.003561   
      2. B(C   2,C   1)                  1.5332         0.369224   
      3. B(C   3,C   2)                  1.5446         0.354076   
      4. B(C   4,C   3)                  1.5346         0.367290   
      5. B(C   5,C   4)                  1.5277         0.376771   
      6. B(N   6,C   5)                  1.4765         0.407262   
      7. B(N   6,C   2)                  1.4748         0.409859   
      8. B(C   7,N   6)                  1.3613         0.621880   
      9. B(O   8,C   7)                  1.2412         0.966560   
     10. B(N   9,C   1)                  1.3614         0.621585   
     11. B(C  10,N   9)                  1.4562         0.438783   
     12. B(C  11,C  10)                  1.5488         0.348616   
     13. B(N  12,C  11)                  1.3529         0.641390   
     14. B(C  13,N  12)                  1.4700         0.417107   
     15. B(C  14,C  13)                  1.5562         0.339233   
     16. B(N  15,C  14)                  1.3775         0.585805   
     17. B(C  16,N  15)                  1.4570         0.437540   
     18. B(C  17,C  16)                  1.5474         0.350401   
     19. B(C  18,C  17)                  1.5680         0.324903   
     20. B(C  19,C  18)                  1.5308         0.372411   
     21. B(N  20,C  19)                  1.3414         0.668929   
     22. B(C  21,N  20)                  1.4681         0.420061   
     23. B(C  22,C  21)                  1.5465         0.351657   
     24. B(N  23,C  22)                  1.3605         0.623724   
     25. B(C  24,C   7)                  1.5375         0.363475   
     26. B(C  24,N  23)                  1.4623         0.429002   
     27. B(C  25,C  24)                  1.5250         0.380553   
     28. B(O  26,C  22)                  1.2296         1.008923   
     29. B(C  27,C  21)                  1.5443         0.354447   
     30. B(C  28,C  27)                  1.5359         0.365621   
     31. B(C  29,C  28)                  1.5329         0.369592   
     32. B(C  30,C  28)                  1.5323         0.370467   
     33. B(O  31,C  19)                  1.2555         0.917277   
     34. B(C  32,C  18)                  1.5246         0.381013   
     35. B(C  33,C  32)                  1.5038         0.411354   
     36. B(C  34,C  33)                  1.5242         0.381688   
     37. B(C  35,C  34)                  1.5302         0.373283   
     38. B(C  36,C  35)                  1.5300         0.373509   
     39. B(C  37,C  36)                  1.5302         0.373355   
     40. B(C  38,C  37)                  1.5303         0.373146   
     41. B(C  39,C  38)                  1.5302         0.373360   
     42. B(C  40,C  39)                  1.5310         0.372216   
     43. B(C  41,C  40)                  1.5298         0.373785   
     44. B(O  42,C  32)                  1.2327         0.997375   
     45. B(O  43,C  17)                  1.4092         0.521474   
     46. B(O  44,C  14)                  1.2222         1.036630   
     47. B(C  45,C  13)                  1.5315         0.371463   
     48. B(C  46,C  45)                  1.5295         0.374284   
     49. B(O  47,C  11)                  1.2427         0.961512   
     50. B(C  48,C  10)                  1.5482         0.349375   
     51. B(C  49,C  48)                  1.5337         0.368565   
     52. B(C  50,C  48)                  1.5320         0.370870   
     53. B(H  51,C   2)                  1.0993         0.348027   
     54. B(H  52,C   3)                  1.0993         0.347993   
     55. B(H  53,C   3)                  1.0958         0.352512   
     56. B(H  54,C   4)                  1.1004         0.346589   
     57. B(H  55,C   4)                  1.0969         0.351064   
     58. B(H  56,C   5)                  1.0941         0.354754   
     59. B(H  57,C   5)                  1.1035         0.342682   
     60. B(H  58,N   9)                  1.0197         0.417584   
     61. B(H  58,O  31)                  2.3130         0.003609   
     62. B(H  59,C  10)                  1.1045         0.341472   
     63. B(H  60,N  12)                  1.0213         0.415045   
     64. B(H  61,C  13)                  1.1023         0.344146   
     65. B(H  62,N  15)                  1.0197         0.417626   
     66. B(H  63,C  16)                  1.0971         0.350769   
     67. B(H  64,C  16)                  1.0995         0.347690   
     68. B(H  65,C  17)                  1.1023         0.344177   
     69. B(H  66,C  18)                  1.1008         0.346145   
     70. B(H  67,N  20)                  1.0348         0.395052   
     71. B(H  68,C  21)                  1.0969         0.351039   
     72. B(H  69,N  23)                  1.0299         0.402243   
     73. B(H  70,C  24)                  1.1051         0.340628   
     74. B(H  71,C  25)                  1.0967         0.351406   
     75. B(H  72,C  25)                  1.0976         0.350185   
     76. B(H  73,H  62)                  2.3585         0.000653   
     77. B(H  73,C  25)                  1.0970         0.350923   
     78. B(H  74,C  27)                  1.0992         0.348071   
     79. B(H  75,C  27)                  1.1033         0.342973   
     80. B(H  76,C  28)                  1.1037         0.342380   
     81. B(H  77,H  56)                  3.0232         0.000057   
     82. B(H  77,C  29)                  1.1006         0.346345   
     83. B(H  78,C  29)                  1.0993         0.347957   
     84. B(H  79,C  29)                  1.1015         0.345240   
     85. B(H  80,C  30)                  1.0979         0.349839   
     86. B(H  81,C  30)                  1.1021         0.344444   
     87. B(H  82,C  30)                  1.0994         0.347928   
     88. B(H  83,C  33)                  1.1073         0.337898   
     89. B(H  84,C  33)                  1.1050         0.340786   
     90. B(H  85,C  34)                  1.1017         0.344951   
     91. B(H  86,C  34)                  1.1014         0.345361   
     92. B(H  87,C  35)                  1.1047         0.341141   
     93. B(H  88,C  35)                  1.1039         0.342207   
     94. B(H  89,C  36)                  1.1040         0.342001   
     95. B(H  90,C  36)                  1.1043         0.341669   
     96. B(H  91,C  37)                  1.1045         0.341474   
     97. B(H  92,C  37)                  1.1042         0.341775   
     98. B(H  93,C  38)                  1.1043         0.341681   
     99. B(H  94,C  38)                  1.1044         0.341492   
    100. B(H  95,C  39)                  1.1046         0.341280   
    101. B(H  96,C  39)                  1.1045         0.341411   
    102. B(H  97,C  40)                  1.1034         0.342833   
    103. B(H  98,C  40)                  1.1035         0.342739   
    104. B(H  99,C  41)                  1.0994         0.347819   
    105. B(H 100,C  41)                  1.1007         0.346195   
    106. B(H 101,C  41)                  1.1008         0.346133   
    107. B(H 102,O  43)                  0.9912         0.463621   
    108. B(H 103,C  45)                  1.0980         0.349689   
    109. B(H 104,C  45)                  1.1006         0.346352   
    110. B(H 105,C  46)                  1.0989         0.348557   
    111. B(H 106,C  46)                  1.0971         0.350775   
    112. B(H 107,C  46)                  1.1015         0.345219   
    113. B(H 108,C  48)                  1.1020         0.344621   
    114. B(H 109,H 102)                  3.2835         0.000022   
    115. B(H 109,C  49)                  1.0960         0.352191   
    116. B(H 110,C  49)                  1.1016         0.345037   
    117. B(H 111,C  49)                  1.0994         0.347874   
    118. B(H 112,H  74)                  4.0091         0.000002   
    119. B(H 112,C  50)                  1.0977         0.350060   
    120. B(H 113,C  50)                  1.0994         0.347835   
    121. B(H 114,C  50)                  1.1008         0.346106   
    122. A(O   0,C   1,N   9)          123.6165         0.467717   
    123. A(C   2,C   1,N   9)          118.0049         0.393520   
    124. A(O   0,C   1,C   2)          118.3716         0.428394   
    125. A(C   1,C   2,H  51)          103.7598         0.321891   
    126. A(N   6,C   2,H  51)          109.3472         0.325498   
    127. A(C   1,C   2,N   6)          116.2216         0.366127   
    128. A(C   1,C   2,C   3)          112.1538         0.359325   
    129. A(C   3,C   2,H  51)          111.7653         0.319693   
    130. A(C   3,C   2,N   6)          103.7785         0.363512   
    131. A(C   4,C   3,H  53)          114.1137         0.322290   
    132. A(C   4,C   3,H  52)          110.2273         0.321609   
    133. A(C   2,C   3,C   4)          103.7776         0.359004   
    134. A(C   2,C   3,H  53)          111.2500         0.320363   
    135. A(C   2,C   3,H  52)          109.5893         0.319688   
    136. A(H  52,C   3,H  53)          107.8225         0.288320   
    137. A(H  54,C   4,H  55)          108.1779         0.287952   
    138. A(C   3,C   4,H  55)          113.2407         0.322073   
    139. A(C   3,C   4,C   5)          102.8361         0.362828   
    140. A(C   3,C   4,H  54)          110.5779         0.321397   
    141. A(C   5,C   4,H  55)          112.3368         0.323421   
    142. A(C   5,C   4,H  54)          109.5973         0.322741   
    143. A(H  56,C   5,H  57)          108.4308         0.287913   
    144. A(C   4,C   5,N   6)          102.5047         0.366999   
    145. A(C   4,C   5,H  56)          113.2676         0.323976   
    146. A(N   6,C   5,H  57)          110.2975         0.324332   
    147. A(N   6,C   5,H  56)          110.9952         0.326184   
    148. A(C   4,C   5,H  57)          111.2703         0.322142   
    149. A(C   5,N   6,C   7)          126.9713         0.397825   
    150. A(C   2,N   6,C   7)          120.1778         0.398270   
    151. A(C   2,N   6,C   5)          111.7702         0.370015   
    152. A(O   8,C   7,C  24)          121.6372         0.424327   
    153. A(N   6,C   7,O   8)          121.4961         0.464551   
    154. A(N   6,C   7,C  24)          116.8350         0.392473   
    155. A(C   1,N   9,C  10)          120.7070         0.403046   
    156. A(C  10,N   9,H  58)          118.9828         0.336372   
    157. A(C   1,N   9,H  58)          120.2648         0.356660   
    158. A(C  48,C  10,H  59)          108.4184         0.318009   
    159. A(C  11,C  10,H  59)          106.4895         0.317896   
    160. A(N   9,C  10,C  11)          110.3966         0.366803   
    161. A(N   9,C  10,C  48)          114.1350         0.366940   
    162. A(N   9,C  10,H  59)          104.1271         0.328145   
    163. A(C  11,C  10,C  48)          112.6142         0.355028   
    164. A(N  12,C  11,O  47)          122.1808         0.466738   
    165. A(C  10,C  11,O  47)          121.9985         0.420780   
    166. A(C  10,C  11,N  12)          115.8151         0.391728   
    167. A(C  13,N  12,H  60)          116.7624         0.333214   
    168. A(C  11,N  12,C  13)          122.4209         0.401678   
    169. A(C  11,N  12,H  60)          118.7952         0.358195   
    170. A(C  14,C  13,C  45)          112.2943         0.357084   
    171. A(N  12,C  13,H  61)          104.8566         0.325837   
    172. A(C  14,C  13,H  61)          107.2920         0.316889   
    173. A(N  12,C  13,C  14)          109.3480         0.361945   
    174. A(C  45,C  13,H  61)          109.2402         0.321619   
    175. A(N  12,C  13,C  45)          113.3748         0.367610   
    176. A(C  13,C  14,N  15)          112.4837         0.383755   
    177. A(N  15,C  14,O  44)          123.7025         0.465422   
    178. A(C  13,C  14,O  44)          123.8114         0.424400   
    179. A(C  14,N  15,H  62)          114.5111         0.353099   
    180. A(C  16,N  15,H  62)          115.0280         0.336219   
    181. A(C  14,N  15,C  16)          121.7262         0.398662   
    182. A(H  63,C  16,H  64)          108.7451         0.288057   
    183. A(C  17,C  16,H  64)          111.7229         0.319099   
    184. A(N  15,C  16,H  63)          108.6191         0.329449   
    185. A(C  17,C  16,H  63)          109.6908         0.319558   
    186. A(N  15,C  16,C  17)          109.4708         0.366946   
    187. A(N  15,C  16,H  64)          108.5307         0.328970   
    188. A(O  43,C  17,H  65)          109.5398         0.338120   
    189. A(C  18,C  17,H  65)          102.7523         0.314678   
    190. A(C  16,C  17,H  65)          106.8415         0.318571   
    191. A(C  16,C  17,C  18)          113.9137         0.350994   
    192. A(C  18,C  17,O  43)          110.2032         0.373304   
    193. A(C  16,C  17,O  43)          112.9673         0.378208   
    194. A(C  19,C  18,H  66)          106.8184         0.322058   
    195. A(C  17,C  18,H  66)          104.1278         0.314970   
    196. A(C  17,C  18,C  32)          111.7815         0.356008   
    197. A(C  17,C  18,C  19)          105.3043         0.354631   
    198. A(C  19,C  18,C  32)          119.0592         0.364384   
    199. A(C  32,C  18,H  66)          108.6522         0.323266   
    200. A(C  18,C  19,N  20)          117.1781         0.399224   
    201. A(N  20,C  19,O  31)          124.3567         0.466306   
    202. A(C  18,C  19,O  31)          118.3238         0.422205   
    203. A(C  19,N  20,H  67)          113.2956         0.357749   
    204. A(C  19,N  20,C  21)          127.1408         0.405172   
    205. A(C  21,N  20,H  67)          119.2807         0.330887   
    206. A(C  27,C  21,H  68)          109.2224         0.320199   
    207. A(C  22,C  21,H  68)          104.7473         0.319785   
    208. A(N  20,C  21,H  68)          105.7604         0.327282   
    209. A(N  20,C  21,C  22)          113.8999         0.364616   
    210. A(C  22,C  21,C  27)          111.2595         0.356422   
    211. A(N  20,C  21,C  27)          111.4867         0.365109   
    212. A(C  21,C  22,N  23)          114.5999         0.390413   
    213. A(C  21,C  22,O  26)          121.3065         0.425075   
    214. A(N  23,C  22,O  26)          124.0465         0.468469   
    215. A(C  22,N  23,C  24)          122.1383         0.401691   
    216. A(C  24,N  23,H  69)          119.1406         0.333037   
    217. A(C  22,N  23,H  69)          116.1047         0.354609   
    218. A(C  25,C  24,H  70)          108.8332         0.322352   
    219. A(N  23,C  24,H  70)          107.3710         0.326795   
    220. A(C   7,C  24,H  70)          108.9458         0.319939   
    221. A(N  23,C  24,C  25)          112.3933         0.370927   
    222. A(C   7,C  24,N  23)          107.1344         0.368012   
    223. A(C   7,C  24,C  25)          112.0100         0.362799   
    224. A(H  71,C  25,H  73)          109.2590         0.288557   
    225. A(C  24,C  25,H  73)          111.0447         0.323930   
    226. A(H  71,C  25,H  72)          109.0123         0.288461   
    227. A(C  24,C  25,H  72)          110.4329         0.323818   
    228. A(C  24,C  25,H  71)          108.8496         0.324003   
    229. A(H  72,C  25,H  73)          108.2100         0.288399   
    230. A(C  28,C  27,H  75)          109.2621         0.320607   
    231. A(C  21,C  27,C  28)          115.4771         0.358790   
    232. A(H  74,C  27,H  75)          106.4743         0.287096   
    233. A(C  21,C  27,H  75)          107.2026         0.318985   
    234. A(C  28,C  27,H  74)          109.7287         0.321382   
    235. A(C  21,C  27,H  74)          108.3015         0.319755   
    236. A(C  29,C  28,C  30)          111.2767         0.362170   
    237. A(C  27,C  28,C  30)          112.4071         0.361503   
    238. A(C  27,C  28,C  29)          109.2252         0.361357   
    239. A(C  30,C  28,H  76)          107.5180         0.321207   
    240. A(C  29,C  28,H  76)          108.0134         0.321083   
    241. A(C  27,C  28,H  76)          108.2473         0.320516   
    242. A(C  28,C  29,H  79)          110.9024         0.321520   
    243. A(H  78,C  29,H  79)          107.6585         0.287377   
    244. A(H  77,C  29,H  79)          107.5956         0.287169   
    245. A(H  77,C  29,H  78)          108.0291         0.287521   
    246. A(C  28,C  29,H  78)          111.0458         0.321933   
    247. A(C  28,C  29,H  77)          111.4445         0.321688   
    248. A(H  81,C  30,H  82)          107.6474         0.287270   
    249. A(H  80,C  30,H  82)          107.3728         0.287969   
    250. A(C  28,C  30,H  82)          110.7024         0.322053   
    251. A(H  80,C  30,H  81)          108.7380         0.287516   
    252. A(C  28,C  30,H  81)          110.7253         0.321523   
    253. A(C  28,C  30,H  80)          111.5097         0.322342   
    254. A(C  33,C  32,O  42)          121.9343         0.436310   
    255. A(C  18,C  32,O  42)          122.4847         0.430339   
    256. A(C  18,C  32,C  33)          115.5662         0.370653   
    257. A(C  32,C  33,C  34)          114.9431         0.370766   
    258. A(C  34,C  33,H  84)          112.4133         0.322534   
    259. A(H  83,C  33,H  84)          104.1255         0.285486   
    260. A(C  32,C  33,H  84)          106.8665         0.326524   
    261. A(C  34,C  33,H  83)          111.1503         0.322084   
    262. A(C  32,C  33,H  83)          106.6006         0.326067   
    263. A(C  33,C  34,C  35)          112.3172         0.364640   
    264. A(H  85,C  34,H  86)          105.7652         0.287004   
    265. A(C  35,C  34,H  86)          110.0385         0.322062   
    266. A(C  33,C  34,H  86)          109.6728         0.323240   
    267. A(C  35,C  34,H  85)          109.7947         0.321999   
    268. A(C  33,C  34,H  85)          109.0374         0.323177   
    269. A(C  34,C  35,C  36)          113.1766         0.363292   
    270. A(H  87,C  35,H  88)          105.9290         0.286097   
    271. A(C  36,C  35,H  88)          109.3462         0.321611   
    272. A(C  34,C  35,H  88)          109.4241         0.321579   
    273. A(C  36,C  35,H  87)          109.2516         0.321446   
    274. A(C  34,C  35,H  87)          109.4567         0.321415   
    275. A(C  35,C  36,C  37)          113.4191         0.363304   
    276. A(H  89,C  36,H  90)          105.9279         0.286139   
    277. A(C  37,C  36,H  90)          109.3499         0.321506   
    278. A(C  35,C  36,H  90)          109.3009         0.321528   
    279. A(C  37,C  36,H  89)          109.3367         0.321557   
    280. A(C  35,C  36,H  89)          109.2337         0.321579   
    281. A(C  36,C  37,C  38)          113.5082         0.363244   
    282. A(H  91,C  37,H  92)          105.9084         0.286084   
    283. A(C  38,C  37,H  92)          109.2956         0.321493   
    284. A(C  36,C  37,H  92)          109.2785         0.321522   
    285. A(C  38,C  37,H  91)          109.2745         0.321447   
    286. A(C  36,C  37,H  91)          109.2957         0.321476   
    287. A(C  37,C  38,C  39)          113.5174         0.363244   
    288. A(H  93,C  38,H  94)          105.9005         0.286074   
    289. A(C  39,C  38,H  94)          109.2940         0.321480   
    290. A(C  37,C  38,H  94)          109.2818         0.321449   
    291. A(C  39,C  38,H  93)          109.2943         0.321509   
    292. A(C  37,C  38,H  93)          109.2717         0.321478   
    293. A(C  38,C  39,C  40)          113.5917         0.363090   
    294. A(H  95,C  39,H  96)          105.8645         0.286011   
    295. A(C  40,C  39,H  96)          109.2383         0.321306   
    296. A(C  38,C  39,H  96)          109.3084         0.321467   
    297. A(C  40,C  39,H  95)          109.2350         0.321286   
    298. A(C  38,C  39,H  95)          109.3140         0.321447   
    299. A(C  39,C  40,C  41)          113.1264         0.363160   
    300. A(H  97,C  40,H  98)          105.9399         0.286387   
    301. A(C  41,C  40,H  98)          109.6394         0.321731   
    302. A(C  39,C  40,H  98)          109.1261         0.321510   
    303. A(C  41,C  40,H  97)          109.6328         0.321746   
    304. A(C  39,C  40,H  97)          109.1219         0.321524   
    305. A(H 100,C  41,H 101)          107.4413         0.287265   
    306. A(H  99,C  41,H 101)          107.6914         0.287475   
    307. A(C  40,C  41,H 101)          111.0897         0.322251   
    308. A(H  99,C  41,H 100)          107.6872         0.287483   
    309. A(C  40,C  41,H 100)          111.0827         0.322260   
    310. A(C  40,C  41,H  99)          111.6565         0.322508   
    311. A(C  17,O  43,H 102)          106.4631         0.352392   
    312. A(C  13,C  45,C  46)          112.4959         0.363117   
    313. A(C  46,C  45,H 104)          110.1332         0.322355   
    314. A(C  13,C  45,H 104)          107.3925         0.321956   
    315. A(C  46,C  45,H 103)          110.5538         0.322862   
    316. A(C  13,C  45,H 103)          108.5206         0.322462   
    317. A(H 103,C  45,H 104)          107.5696         0.287745   
    318. A(H 106,C  46,H 107)          108.4586         0.287737   
    319. A(H 105,C  46,H 107)          107.6044         0.287452   
    320. A(C  45,C  46,H 107)          111.2039         0.322182   
    321. A(H 105,C  46,H 106)          107.9945         0.288170   
    322. A(C  45,C  46,H 106)          110.8548         0.323026   
    323. A(C  45,C  46,H 105)          110.5986         0.322690   
    324. A(C  50,C  48,H 108)          108.4851         0.321607   
    325. A(C  49,C  48,H 108)          107.9636         0.321279   
    326. A(C  10,C  48,H 108)          108.2179         0.318485   
    327. A(C  49,C  48,C  50)          110.7221         0.362065   
    328. A(C  10,C  48,C  50)          111.4285         0.358780   
    329. A(C  10,C  48,C  49)          109.9138         0.358400   
    330. A(H 110,C  49,H 111)          107.7923         0.287340   
    331. A(H 109,C  49,H 111)          108.2760         0.288263   
    332. A(C  48,C  49,H 111)          110.3907         0.321774   
    333. A(H 109,C  49,H 110)          108.7107         0.287894   
    334. A(C  48,C  49,H 110)          110.2930         0.321343   
    335. A(C  48,C  49,H 109)          111.2793         0.322425   
    336. A(H 113,C  50,H 114)          107.7625         0.287474   
    337. A(H 112,C  50,H 114)          108.4485         0.287760   
    338. A(C  48,C  50,H 114)          111.0717         0.321834   
    339. A(H 112,C  50,H 113)          107.7642         0.287985   
    340. A(C  48,C  50,H 113)          109.7045         0.322097   
    341. A(C  48,C  50,H 112)          111.9427         0.322433   
    342. D(H  51,C   2,C   1,N   9)   -133.7393         0.010212   
    343. D(C   3,C   2,C   1,N   9)    105.4706         0.010212   
    344. D(N   6,C   2,C   1,N   9)    -13.6852         0.010212   
    345. D(N   6,C   2,C   1,O   0)    165.3929         0.010212   
    346. D(C   3,C   2,C   1,O   0)    -75.4513         0.010212   
    347. D(H  51,C   2,C   1,O   0)     45.3388         0.010212   
    348. D(C   4,C   3,C   2,N   6)     24.1512         0.010083   
    349. D(H  53,C   3,C   2,H  51)    -94.9849         0.010083   
    350. D(H  53,C   3,C   2,C   1)     21.0608         0.010083   
    351. D(C   4,C   3,C   2,H  51)    141.8745         0.010083   
    352. D(H  53,C   3,C   2,N   6)    147.2918         0.010083   
    353. D(H  52,C   3,C   2,H  51)     24.1564         0.010083   
    354. D(C   4,C   3,C   2,C   1)   -102.0799         0.010083   
    355. D(H  52,C   3,C   2,C   1)    140.2020         0.010083   
    356. D(H  52,C   3,C   2,N   6)    -93.5670         0.010083   
    357. D(H  55,C   4,C   3,H  53)     79.3577         0.010794   
    358. D(H  55,C   4,C   3,H  52)    -42.1290         0.010794   
    359. D(H  54,C   4,C   3,H  52)   -163.7222         0.010794   
    360. D(H  55,C   4,C   3,C   2)   -159.4032         0.010794   
    361. D(H  54,C   4,C   3,H  53)    -42.2355         0.010794   
    362. D(C   5,C   4,C   3,C   2)    -37.9324         0.010794   
    363. D(H  54,C   4,C   3,C   2)     79.0036         0.010794   
    364. D(C   5,C   4,C   3,H  53)   -159.1715         0.010794   
    365. D(C   5,C   4,C   3,H  52)     79.3418         0.010794   
    366. D(N   6,C   5,C   4,C   3)     36.6777         0.011324   
    367. D(H  57,C   5,C   4,C   3)    -81.2032         0.011324   
    368. D(H  56,C   5,C   4,H  55)    -81.5785         0.011324   
    369. D(H  56,C   5,C   4,C   3)    156.3376         0.011324   
    370. D(H  57,C   5,C   4,H  54)    161.1656         0.011324   
    371. D(H  56,C   5,C   4,H  54)     38.7064         0.011324   
    372. D(H  57,C   5,C   4,H  55)     40.8807         0.011324   
    373. D(N   6,C   5,C   4,H  54)    -80.9535         0.011324   
    374. D(N   6,C   5,C   4,H  55)    158.7616         0.011324   
    375. D(C   5,N   6,C   2,C   3)     -0.9887         0.014331   
    376. D(C   7,N   6,C   5,H  57)    -71.9879         0.014152   
    377. D(C   7,N   6,C   5,H  56)     48.2110         0.014152   
    378. D(C   7,N   6,C   5,C   4)    169.4433         0.014152   
    379. D(C   2,N   6,C   5,H  57)     96.0115         0.014152   
    380. D(C   2,N   6,C   5,H  56)   -143.7896         0.014152   
    381. D(C   7,N   6,C   2,H  51)     48.5428         0.014331   
    382. D(C   2,N   6,C   5,C   4)    -22.5573         0.014152   
    383. D(C   7,N   6,C   2,C   3)    167.9325         0.014331   
    384. D(C   5,N   6,C   2,C   1)    122.6248         0.014331   
    385. D(C   7,N   6,C   2,C   1)    -68.4541         0.014331   
    386. D(C   5,N   6,C   2,H  51)   -120.3783         0.014331   
    387. D(C  24,C   7,N   6,C   5)     -5.9878         0.031331   
    388. D(C  24,C   7,N   6,C   2)   -173.0810         0.031331   
    389. D(O   8,C   7,N   6,C   5)    176.0292         0.031331   
    390. D(O   8,C   7,N   6,C   2)      8.9360         0.031331   
    391. D(H  58,N   9,C   1,O   0)    175.9249         0.031299   
    392. D(C  10,N   9,C   1,C   2)    172.4778         0.031299   
    393. D(H  58,N   9,C   1,C   2)     -5.0492         0.031299   
    394. D(C  10,N   9,C   1,O   0)     -6.5481         0.031299   
    395. D(H  59,C  10,N   9,C   1)      9.0518         0.016417   
    396. D(C  48,C  10,N   9,H  58)    -55.3696         0.016417   
    397. D(C  48,C  10,N   9,C   1)    127.0721         0.016417   
    398. D(C  11,C  10,N   9,C   1)   -104.8929         0.016417   
    399. D(H  59,C  10,N   9,H  58)   -173.3899         0.016417   
    400. D(C  11,C  10,N   9,H  58)     72.6654         0.016417   
    401. D(O  47,C  11,C  10,N   9)   -147.3930         0.009190   
    402. D(N  12,C  11,C  10,H  59)    -78.9813         0.009190   
    403. D(N  12,C  11,C  10,C  48)    162.3166         0.009190   
    404. D(N  12,C  11,C  10,N   9)     33.4538         0.009190   
    405. D(O  47,C  11,C  10,H  59)    100.1719         0.009190   
    406. D(O  47,C  11,C  10,C  48)    -18.5301         0.009190   
    407. D(H  60,N  12,C  11,O  47)    170.3969         0.033496   
    408. D(H  60,N  12,C  11,C  10)    -10.4515         0.033496   
    409. D(C  13,N  12,C  11,O  47)      7.1007         0.033496   
    410. D(C  13,N  12,C  11,C  10)   -173.7477         0.033496   
    411. D(H  61,C  13,N  12,C  11)    166.6734         0.014836   
    412. D(H  61,C  13,N  12,H  60)      3.0590         0.014836   
    413. D(C  45,C  13,N  12,H  60)    122.1410         0.014836   
    414. D(C  45,C  13,N  12,C  11)    -74.2446         0.014836   
    415. D(C  14,C  13,N  12,C  11)     51.8973         0.014836   
    416. D(C  14,C  13,N  12,H  60)   -111.7171         0.014836   
    417. D(O  44,C  14,C  13,C  45)     -4.9443         0.008748   
    418. D(O  44,C  14,C  13,N  12)   -131.7021         0.008748   
    419. D(N  15,C  14,C  13,H  61)    -64.3609         0.008748   
    420. D(N  15,C  14,C  13,C  45)    175.5958         0.008748   
    421. D(O  44,C  14,C  13,H  61)    115.0990         0.008748   
    422. D(N  15,C  14,C  13,N  12)     48.8380         0.008748   
    423. D(H  62,N  15,C  14,O  44)    176.5654         0.027560   
    424. D(H  62,N  15,C  14,C  13)     -3.9740         0.027560   
    425. D(C  16,N  15,C  14,O  44)     30.6160         0.027560   
    426. D(C  16,N  15,C  14,C  13)   -149.9233         0.027560   
    427. D(H  64,C  16,N  15,H  62)     56.4994         0.016323   
    428. D(H  64,C  16,N  15,C  14)   -157.7129         0.016323   
    429. D(H  63,C  16,N  15,H  62)    174.5712         0.016323   
    430. D(H  63,C  16,N  15,C  14)    -39.6411         0.016323   
    431. D(C  17,C  16,N  15,C  14)     80.1099         0.016323   
    432. D(C  17,C  16,N  15,H  62)    -65.6778         0.016323   
    433. D(H  65,C  17,C  16,H  64)    -89.4406         0.009890   
    434. D(H  65,C  17,C  16,H  63)    149.8964         0.009890   
    435. D(H  65,C  17,C  16,N  15)     30.8055         0.009890   
    436. D(O  43,C  17,C  16,H  64)    150.0404         0.009890   
    437. D(O  43,C  17,C  16,H  63)     29.3774         0.009890   
    438. D(O  43,C  17,C  16,N  15)    -89.7135         0.009890   
    439. D(C  18,C  17,C  16,H  64)     23.2971         0.009890   
    440. D(C  18,C  17,C  16,H  63)    -97.3659         0.009890   
    441. D(C  18,C  17,C  16,N  15)    143.5432         0.009890   
    442. D(H  66,C  18,C  17,H  65)    -64.8464         0.008624   
    443. D(H  66,C  18,C  17,O  43)     51.8130         0.008624   
    444. D(H  66,C  18,C  17,C  16)    179.9839         0.008624   
    445. D(C  32,C  18,C  17,O  43)    -65.2990         0.008624   
    446. D(C  32,C  18,C  17,C  16)     62.8718         0.008624   
    447. D(C  32,C  18,C  17,H  65)    178.0416         0.008624   
    448. D(C  19,C  18,C  17,H  65)     47.3765         0.008624   
    449. D(C  19,C  18,C  17,O  43)    164.0359         0.008624   
    450. D(C  19,C  18,C  17,C  16)    -67.7932         0.008624   
    451. D(O  31,C  19,C  18,H  66)     52.0743         0.010376   
    452. D(O  31,C  19,C  18,C  32)    175.4542         0.010376   
    453. D(O  31,C  19,C  18,C  17)    -58.2347         0.010376   
    454. D(N  20,C  19,C  18,H  66)   -132.0567         0.010376   
    455. D(N  20,C  19,C  18,C  17)    117.6342         0.010376   
    456. D(N  20,C  19,C  18,C  32)     -8.6768         0.010376   
    457. D(H  67,N  20,C  19,O  31)    172.1738         0.036706   
    458. D(H  67,N  20,C  19,C  18)     -3.4207         0.036706   
    459. D(C  21,N  20,C  19,O  31)     -1.6135         0.036706   
    460. D(C  21,N  20,C  19,C  18)   -177.2080         0.036706   
    461. D(H  68,C  21,N  20,H  67)     11.7902         0.015046   
    462. D(H  68,C  21,N  20,C  19)   -174.7533         0.015046   
    463. D(C  27,C  21,N  20,H  67)    130.3936         0.015046   
    464. D(C  27,C  21,N  20,C  19)    -56.1499         0.015046   
    465. D(C  22,C  21,N  20,H  67)   -102.6895         0.015046   
    466. D(C  22,C  21,N  20,C  19)     70.7670         0.015046   
    467. D(N  23,C  22,C  21,C  27)     86.7682         0.009336   
    468. D(N  23,C  22,C  21,N  20)    -40.2669         0.009336   
    469. D(O  26,C  22,C  21,H  68)     27.0550         0.009336   
    470. D(O  26,C  22,C  21,C  27)    -90.8318         0.009336   
    471. D(O  26,C  22,C  21,N  20)    142.1332         0.009336   
    472. D(N  23,C  22,C  21,H  68)   -155.3451         0.009336   
    473. D(H  69,N  23,C  22,O  26)    167.8498         0.031532   
    474. D(H  69,N  23,C  22,C  21)     -9.6754         0.031532   
    475. D(C  24,N  23,C  22,O  26)      6.3660         0.031532   
    476. D(C  24,N  23,C  22,C  21)   -171.1591         0.031532   
    477. D(H  70,C  24,N  23,H  69)   -123.4851         0.015691   
    478. D(H  70,C  24,N  23,C  22)     37.4581         0.015691   
    479. D(C  25,C  24,N  23,H  69)    116.8634         0.015691   
    480. D(C  25,C  24,N  23,C  22)    -82.1933         0.015691   
    481. D(C   7,C  24,N  23,H  69)     -6.5852         0.015691   
    482. D(C   7,C  24,N  23,C  22)    154.3580         0.015691   
    483. D(H  70,C  24,C   7,O   8)   -131.1643         0.009919   
    484. D(H  70,C  24,C   7,N   6)     50.8558         0.009919   
    485. D(C  25,C  24,C   7,O   8)    -10.7071         0.009919   
    486. D(C  25,C  24,C   7,N   6)    171.3130         0.009919   
    487. D(N  23,C  24,C   7,O   8)    112.9773         0.009919   
    488. D(N  23,C  24,C   7,N   6)    -65.0026         0.009919   
    489. D(H  73,C  25,C  24,H  70)   -179.1519         0.011540   
    490. D(H  73,C  25,C  24,N  23)    -60.3549         0.011540   
    491. D(H  73,C  25,C  24,C   7)     60.3254         0.011540   
    492. D(H  72,C  25,C  24,H  70)     60.8046         0.011540   
    493. D(H  72,C  25,C  24,N  23)    179.6015         0.011540   
    494. D(H  72,C  25,C  24,C   7)    -59.7181         0.011540   
    495. D(H  71,C  25,C  24,H  70)    -58.8342         0.011540   
    496. D(H  71,C  25,C  24,N  23)     59.9627         0.011540   
    497. D(H  71,C  25,C  24,C   7)   -179.3569         0.011540   
    498. D(H  75,C  27,C  21,H  68)     58.8022         0.010102   
    499. D(H  75,C  27,C  21,C  22)    173.9486         0.010102   
    500. D(H  75,C  27,C  21,N  20)    -57.7100         0.010102   
    501. D(H  74,C  27,C  21,H  68)    173.3266         0.010102   
    502. D(H  74,C  27,C  21,C  22)    -71.5270         0.010102   
    503. D(H  74,C  27,C  21,N  20)     56.8144         0.010102   
    504. D(C  28,C  27,C  21,H  68)    -63.2071         0.010102   
    505. D(C  28,C  27,C  21,C  22)     51.9392         0.010102   
    506. D(C  28,C  27,C  21,N  20)   -179.7194         0.010102   
    507. D(H  76,C  28,C  27,H  75)   -178.3536         0.010702   
    508. D(H  76,C  28,C  27,H  74)     65.2580         0.010702   
    509. D(H  76,C  28,C  27,C  21)    -57.4534         0.010702   
    510. D(C  30,C  28,C  27,H  75)    -59.7488         0.010702   
    511. D(C  30,C  28,C  27,H  74)   -176.1372         0.010702   
    512. D(C  30,C  28,C  27,C  21)     61.1514         0.010702   
    513. D(C  29,C  28,C  27,H  75)     64.2708         0.010702   
    514. D(C  29,C  28,C  27,H  74)    -52.1175         0.010702   
    515. D(C  29,C  28,C  27,C  21)   -174.8290         0.010702   
    516. D(H  79,C  29,C  28,C  30)     61.5905         0.010921   
    517. D(H  79,C  29,C  28,C  27)    -63.0921         0.010921   
    518. D(H  78,C  29,C  28,H  76)     59.7236         0.010921   
    519. D(H  78,C  29,C  28,C  30)    -58.0709         0.010921   
    520. D(H  78,C  29,C  28,C  27)    177.2465         0.010921   
    521. D(H  77,C  29,C  28,H  76)    -60.7689         0.010921   
    522. D(H  77,C  29,C  28,C  30)   -178.5634         0.010921   
    523. D(H  79,C  29,C  28,H  76)    179.3850         0.010921   
    524. D(H  77,C  29,C  28,C  27)     56.7541         0.010921   
    525. D(H  82,C  30,C  28,H  76)    -64.7496         0.010970   
    526. D(H  82,C  30,C  28,C  29)     53.3441         0.010970   
    527. D(H  82,C  30,C  28,C  27)    176.2178         0.010970   
    528. D(H  81,C  30,C  28,H  76)    175.9426         0.010970   
    529. D(H  81,C  30,C  28,C  29)    -65.9636         0.010970   
    530. D(H  81,C  30,C  28,C  27)     56.9101         0.010970   
    531. D(H  80,C  30,C  28,H  76)     54.7246         0.010970   
    532. D(H  80,C  30,C  28,C  29)    172.8183         0.010970   
    533. D(H  80,C  30,C  28,C  27)    -64.3080         0.010970   
    534. D(O  42,C  32,C  18,H  66)    146.2495         0.010829   
    535. D(O  42,C  32,C  18,C  19)     23.7753         0.010829   
    536. D(O  42,C  32,C  18,C  17)    -99.4006         0.010829   
    537. D(C  33,C  32,C  18,H  66)    -35.1262         0.010829   
    538. D(C  33,C  32,C  18,C  19)   -157.6005         0.010829   
    539. D(C  33,C  32,C  18,C  17)     79.2237         0.010829   
    540. D(H  84,C  33,C  32,O  42)    131.9528         0.012529   
    541. D(H  84,C  33,C  32,C  18)    -46.6798         0.012529   
    542. D(H  83,C  33,C  32,O  42)   -117.1621         0.012529   
    543. D(H  83,C  33,C  32,C  18)     64.2054         0.012529   
    544. D(C  34,C  33,C  32,O  42)      6.4727         0.012529   
    545. D(C  34,C  33,C  32,C  18)   -172.1599         0.012529   
    546. D(H  86,C  34,C  33,H  84)   -179.1133         0.011606   
    547. D(H  86,C  34,C  33,H  83)     64.6155         0.011606   
    548. D(H  86,C  34,C  33,C  32)    -56.5681         0.011606   
    549. D(H  85,C  34,C  33,H  84)    -63.7348         0.011606   
    550. D(H  85,C  34,C  33,H  83)    179.9940         0.011606   
    551. D(H  85,C  34,C  33,C  32)     58.8104         0.011606   
    552. D(C  35,C  34,C  33,H  84)     58.1957         0.011606   
    553. D(C  35,C  34,C  33,H  83)    -58.0756         0.011606   
    554. D(C  35,C  34,C  33,C  32)   -179.2591         0.011606   
    555. D(H  88,C  35,C  34,H  86)   -179.8664         0.011127   
    556. D(H  88,C  35,C  34,H  85)     64.1166         0.011127   
    557. D(H  88,C  35,C  34,C  33)    -57.3819         0.011127   
    558. D(H  87,C  35,C  34,H  86)    -64.1951         0.011127   
    559. D(H  87,C  35,C  34,H  85)    179.7879         0.011127   
    560. D(H  87,C  35,C  34,C  33)     58.2894         0.011127   
    561. D(C  36,C  35,C  34,H  86)     57.9202         0.011127   
    562. D(C  36,C  35,C  34,H  85)    -58.0968         0.011127   
    563. D(C  36,C  35,C  34,C  33)   -179.5953         0.011127   
    564. D(H  90,C  36,C  35,H  87)     64.6562         0.011140   
    565. D(H  90,C  36,C  35,C  34)    -57.5737         0.011140   
    566. D(H  89,C  36,C  35,H  88)    -64.3536         0.011140   
    567. D(H  89,C  36,C  35,H  87)   -179.8669         0.011140   
    568. D(H  89,C  36,C  35,C  34)     57.9033         0.011140   
    569. D(C  37,C  36,C  35,H  88)     57.8748         0.011140   
    570. D(C  37,C  36,C  35,H  87)    -57.6385         0.011140   
    571. D(H  90,C  36,C  35,H  88)   -179.8305         0.011140   
    572. D(C  37,C  36,C  35,C  34)   -179.8683         0.011140   
    573. D(H  92,C  37,C  36,H  90)    179.9321         0.011131   
    574. D(H  92,C  37,C  36,H  89)     64.3708         0.011131   
    575. D(H  92,C  37,C  36,C  35)    -57.8004         0.011131   
    576. D(H  91,C  37,C  36,H  90)    -64.5923         0.011131   
    577. D(H  91,C  37,C  36,H  89)    179.8464         0.011131   
    578. D(H  91,C  37,C  36,C  35)     57.6752         0.011131   
    579. D(C  38,C  37,C  36,H  90)     57.6626         0.011131   
    580. D(C  38,C  37,C  36,H  89)    -57.8987         0.011131   
    581. D(C  38,C  37,C  36,C  35)    179.9301         0.011131   
    582. D(H  94,C  38,C  37,H  92)   -179.9387         0.011120   
    583. D(H  94,C  38,C  37,H  91)     64.5880         0.011120   
    584. D(H  94,C  38,C  37,C  36)    -57.6787         0.011120   
    585. D(H  93,C  38,C  37,H  92)    -64.4840         0.011120   
    586. D(H  93,C  38,C  37,H  91)   -179.9573         0.011120   
    587. D(H  93,C  38,C  37,C  36)     57.7760         0.011120   
    588. D(C  39,C  38,C  37,H  92)     57.7851         0.011120   
    589. D(C  39,C  38,C  37,H  91)    -57.6882         0.011120   
    590. D(C  39,C  38,C  37,C  36)   -179.9549         0.011120   
    591. D(H  95,C  39,C  38,H  94)    -64.5972         0.011132   
    592. D(H  95,C  39,C  38,H  93)    179.9289         0.011132   
    593. D(H  95,C  39,C  38,C  37)     57.6722         0.011132   
    594. D(C  40,C  39,C  38,H  94)     57.6779         0.011132   
    595. D(C  40,C  39,C  38,H  93)    -57.7961         0.011132   
    596. D(C  40,C  39,C  38,C  37)    179.9473         0.011132   
    597. D(H  96,C  39,C  38,H  94)    179.9530         0.011132   
    598. D(H  96,C  39,C  38,H  93)     64.4791         0.011132   
    599. D(H  96,C  39,C  38,C  37)    -57.7775         0.011132   
    600. D(H  98,C  40,C  39,H  95)     64.6730         0.011067   
    601. D(H  98,C  40,C  39,C  38)    -57.6458         0.011067   
    602. D(H  97,C  40,C  39,H  96)    -64.6263         0.011067   
    603. D(H  97,C  40,C  39,H  95)   -179.9936         0.011067   
    604. D(H  97,C  40,C  39,C  38)     57.6876         0.011067   
    605. D(C  41,C  40,C  39,H  96)     57.7013         0.011067   
    606. D(C  41,C  40,C  39,H  95)    -57.6661         0.011067   
    607. D(H  98,C  40,C  39,H  96)   -179.9597         0.011067   
    608. D(C  41,C  40,C  39,C  38)   -179.9849         0.011067   
    609. D(H 101,C  41,C  40,H  98)    -62.2898         0.011155   
    610. D(H 101,C  41,C  40,H  97)   -178.1955         0.011155   
    611. D(H 101,C  41,C  40,C  39)     59.7625         0.011155   
    612. D(H 100,C  41,C  40,H  98)    178.1740         0.011155   
    613. D(H 100,C  41,C  40,H  97)     62.2683         0.011155   
    614. D(H 100,C  41,C  40,C  39)    -59.7737         0.011155   
    615. D(H  99,C  41,C  40,H  98)     57.9471         0.011155   
    616. D(H  99,C  41,C  40,H  97)    -57.9586         0.011155   
    617. D(H  99,C  41,C  40,C  39)    179.9994         0.011155   
    618. D(H 102,O  43,C  17,H  65)    -30.3983         0.021565   
    619. D(H 102,O  43,C  17,C  18)   -142.7432         0.021565   
    620. D(H 102,O  43,C  17,C  16)     88.5688         0.021565   
    621. D(H 104,C  45,C  13,H  61)     76.5209         0.011025   
    622. D(H 104,C  45,C  13,C  14)   -164.5737         0.011025   
    623. D(H 104,C  45,C  13,N  12)    -40.0115         0.011025   
    624. D(H 103,C  45,C  13,H  61)   -167.4685         0.011025   
    625. D(H 103,C  45,C  13,C  14)    -48.5631         0.011025   
    626. D(H 103,C  45,C  13,N  12)     75.9991         0.011025   
    627. D(C  46,C  45,C  13,H  61)    -44.8197         0.011025   
    628. D(C  46,C  45,C  13,C  14)     74.0858         0.011025   
    629. D(C  46,C  45,C  13,N  12)   -161.3520         0.011025   
    630. D(H 107,C  46,C  45,H 104)    -60.8922         0.011184   
    631. D(H 107,C  46,C  45,H 103)   -179.6317         0.011184   
    632. D(H 107,C  46,C  45,C  13)     58.8708         0.011184   
    633. D(H 106,C  46,C  45,H 104)    178.3630         0.011184   
    634. D(H 106,C  46,C  45,H 103)     59.6235         0.011184   
    635. D(H 106,C  46,C  45,C  13)    -61.8740         0.011184   
    636. D(H 105,C  46,C  45,H 104)     58.6045         0.011184   
    637. D(H 105,C  46,C  45,H 103)    -60.1350         0.011184   
    638. D(H 105,C  46,C  45,C  13)    178.3675         0.011184   
    639. D(H 108,C  48,C  10,H  59)   -158.4537         0.009837   
    640. D(H 108,C  48,C  10,C  11)    -40.8858         0.009837   
    641. D(H 108,C  48,C  10,N   9)     86.0088         0.009837   
    642. D(C  50,C  48,C  10,H  59)     82.3535         0.009837   
    643. D(C  50,C  48,C  10,C  11)   -160.0786         0.009837   
    644. D(C  50,C  48,C  10,N   9)    -33.1840         0.009837   
    645. D(C  49,C  48,C  10,H  59)    -40.7712         0.009837   
    646. D(C  49,C  48,C  10,C  11)     76.7966         0.009837   
    647. D(C  49,C  48,C  10,N   9)   -156.3087         0.009837   
    648. D(H 111,C  49,C  48,C  50)     60.1059         0.010864   
    649. D(H 111,C  49,C  48,C  10)   -176.3554         0.010864   
    650. D(H 110,C  49,C  48,H 108)   -177.5287         0.010864   
    651. D(H 110,C  49,C  48,C  50)    -58.9076         0.010864   
    652. D(H 110,C  49,C  48,C  10)     64.6310         0.010864   
    653. D(H 109,C  49,C  48,H 108)     61.7370         0.010864   
    654. D(H 109,C  49,C  48,C  50)   -179.6419         0.010864   
    655. D(H 111,C  49,C  48,H 108)    -58.5152         0.010864   
    656. D(H 109,C  49,C  48,C  10)    -56.1033         0.010864   
    657. D(H 114,C  50,C  48,H 108)   -174.2367         0.010992   
    658. D(H 114,C  50,C  48,C  49)     67.4590         0.010992   
    659. D(H 114,C  50,C  48,C  10)    -55.2031         0.010992   
    660. D(H 113,C  50,C  48,H 108)     66.7338         0.010992   
    661. D(H 113,C  50,C  48,C  49)    -51.5705         0.010992   
    662. D(H 113,C  50,C  48,C  10)   -174.2325         0.010992   
    663. D(H 112,C  50,C  48,H 108)    -52.8481         0.010992   
    664. D(H 112,C  50,C  48,C  49)   -171.1525         0.010992   
    665. D(H 112,C  50,C  48,C  10)     66.1855         0.010992   
    -----------------------------------------------------------------

Number of atoms                         .... 115
Number of degrees of freedom            .... 665

         *************************************************************
         *                GEOMETRY OPTIMIZATION CYCLE   1            *
         *************************************************************
---------------------------------
CARTESIAN COORDINATES (ANGSTROEM)
---------------------------------
  O      5.241600   -3.067711    2.505032
  C      4.697645   -1.974004    2.352426
  C      5.454365   -0.715964    2.794444
  C      5.454921   -0.545850    4.329639
  C      4.387822    0.528548    4.578684
  C      4.590249    1.486244    3.405803
  N      4.927491    0.569224    2.298831
  C      5.012196    0.879049    0.975993
  O      5.375959    0.041049    0.135705
  N      3.466093   -1.816091    1.794072
  C      2.765371   -2.949143    1.206096
  C      2.816831   -2.872407   -0.339969
  N      3.941258   -2.334669   -0.866034
  C      4.089214   -2.068084   -2.304063
  C      2.871166   -1.237499   -2.802463
  N      2.610510   -0.150013   -1.998067
  C      1.261706    0.375944   -1.834117
  C      0.490440   -0.491978   -0.811177
  C     -0.482629    0.323765    0.108780
  C      0.423705    1.181296    0.995741
  N      0.310825    2.513029    0.881040
  C      1.104597    3.533105    1.577182
  C      2.571105    3.622922    1.094669
  N      3.160273    2.421982    0.846681
  C      4.590547    2.300038    0.567598
  C      4.925647    2.598980   -0.889746
  O      3.146590    4.705133    0.997531
  C      1.029014    3.360017    3.109896
  C      1.823622    4.386570    3.930656
  C      1.755769    4.007894    5.414514
  C      1.337270    5.821207    3.700128
  O      1.271485    0.601682    1.717915
  C     -1.586996    1.000716   -0.695346
  C     -2.728587    0.112174   -1.105965
  C     -3.728191    0.750900   -2.062970
  C     -4.872413   -0.197873   -2.426480
  C     -5.882879    0.420528   -3.394770
  C     -7.031342   -0.522524   -3.759565
  C     -8.044154    0.094560   -4.726661
  C     -9.193296   -0.847935   -5.090743
  C    -10.208294   -0.231815   -6.057237
  C    -11.352449   -1.182757   -6.413678
  O     -1.539985    2.190756   -1.013325
  O     -0.193666   -1.569171   -1.409104
  O      2.223727   -1.512430   -3.801940
  C      4.309138   -3.334180   -3.137285
  C      4.903526   -3.032843   -4.513954
  O      1.889279   -3.293929   -1.051417
  C      1.328217   -3.153361    1.744519
  C      0.901854   -4.614269    1.554467
  C      1.218605   -2.743817    3.216666
  H      6.469266   -0.869536    2.400978
  H      6.439987   -0.187024    4.660349
  H      5.257901   -1.498085    4.834817
  H      3.379365    0.091096    4.528176
  H      4.495580    1.028932    5.548854
  H      3.698708    2.074737    3.169533
  H      5.426466    2.180754    3.595806
  H      3.037070   -0.892170    1.748604
  H      3.374513   -3.823289    1.497032
  H      4.603470   -1.871010   -0.241821
  H      4.979613   -1.422874   -2.381764
  H      3.202695   -0.084281   -1.170604
  H      0.752403    0.342951   -2.805330
  H      1.332409    1.423512   -1.507614
  H      1.234296   -0.879189   -0.095750
  H     -0.937844   -0.437688    0.760423
  H     -0.356288    2.805385    0.146013
  H      0.659985    4.496890    1.300214
  H      2.635336    1.588831    1.148240
  H      5.115621    3.029027    1.211174
  H      4.614782    3.624785   -1.121556
  H      6.005640    2.505166   -1.061621
  H      4.409643    1.903575   -1.563258
  H      1.366393    2.344058    3.359595
  H     -0.036130    3.414219    3.392251
  H      2.879950    4.338984    3.614210
  H      2.128394    2.986692    5.586628
  H      2.356305    4.696715    6.025601
  H      0.719006    4.050727    5.784010
  H      1.501998    6.140279    2.662643
  H      0.263570    5.911024    3.931917
  H      1.878362    6.524086    4.349568
  H     -3.224148   -0.217979   -0.172379
  H     -2.283722   -0.812229   -1.516589
  H     -3.199865    1.065685   -2.977041
  H     -4.130629    1.674039   -1.617004
  H     -5.395737   -0.512902   -1.505991
  H     -4.457954   -1.119864   -2.869981
  H     -5.359985    0.733067   -4.315530
  H     -6.294743    1.344399   -2.951697
  H     -7.552215   -0.836933   -2.837793
  H     -6.618298   -1.445317   -4.203572
  H     -7.523442    0.408205   -5.648587
  H     -8.456315    1.018099   -4.282824
  H     -9.713601   -1.162895   -4.168653
  H     -8.781411   -1.771275   -5.535414
  H     -9.686703    0.081975   -6.977517
  H    -10.618013    0.690738   -5.611558
  H    -12.066161   -0.716536   -7.107965
  H    -10.971865   -2.098913   -6.890541
  H    -11.910099   -1.486094   -5.514398
  H      0.445084   -2.326607   -1.437413
  H      3.348669   -3.856597   -3.238047
  H      4.985596   -3.989440   -2.567767
  H      5.075096   -3.963170   -5.073031
  H      4.224874   -2.403575   -5.103168
  H      5.871214   -2.514205   -4.425242
  H      0.645986   -2.520660    1.154122
  H      0.982832   -4.918924    0.504732
  H      1.533298   -5.279093    2.165107
  H     -0.140638   -4.753790    1.874517
  H      1.367806   -1.665081    3.354534
  H      0.218633   -2.995581    3.598011
  H      1.957457   -3.279183    3.832473

----------------------------
CARTESIAN COORDINATES (A.U.)
----------------------------
  NO LB      ZA    FRAG     MASS         X           Y           Z
   0 O     8.0000    0    15.999    9.905189   -5.797134    4.733824
   1 C     6.0000    0    12.011    8.877263   -3.730327    4.445441
   2 C     6.0000    0    12.011   10.307256   -1.352977    5.280734
   3 C     6.0000    0    12.011   10.308306   -1.031507    8.181833
   4 C     6.0000    0    12.011    8.291782    0.998810    8.652458
   5 C     6.0000    0    12.011    8.674314    2.808595    6.436035
   6 N     7.0000    0    14.007    9.311609    1.075678    4.344161
   7 C     6.0000    0    12.011    9.471678    1.661162    1.844360
   8 O     8.0000    0    15.999   10.159090    0.077571    0.256446
   9 N     7.0000    0    14.007    6.549966   -3.431915    3.390305
  10 C     6.0000    0    12.011    5.225794   -5.573072    2.279191
  11 C     6.0000    0    12.011    5.323039   -5.428062   -0.642448
  12 N     7.0000    0    14.007    7.447899   -4.411884   -1.636567
  13 C     6.0000    0    12.011    7.727494   -3.908112   -4.354048
  14 C     6.0000    0    12.011    5.425718   -2.338533   -5.295887
  15 N     7.0000    0    14.007    4.933148   -0.283483   -3.775800
  16 C     6.0000    0    12.011    2.384279    0.710431   -3.465980
  17 C     6.0000    0    12.011    0.926798   -0.929703   -1.532902
  18 C     6.0000    0    12.011   -0.912036    0.611827    0.205564
  19 C     6.0000    0    12.011    0.800687    2.232326    1.881677
  20 N     7.0000    0    14.007    0.587373    4.748936    1.664925
  21 C     6.0000    0    12.011    2.087385    6.676602    2.980443
  22 C     6.0000    0    12.011    4.858684    6.846330    2.068624
  23 N     7.0000    0    14.007    5.972050    4.576883    1.599996
  24 C     6.0000    0    12.011    8.674876    4.346443    1.072604
  25 C     6.0000    0    12.011    9.308124    4.911361   -1.681377
  26 O     8.0000    0    15.999    5.946194    8.891413    1.885061
  27 C     6.0000    0    12.011    1.944554    6.349511    5.876853
  28 C     6.0000    0    12.011    3.446145    8.289416    7.427863
  29 C     6.0000    0    12.011    3.317923    7.573822   10.231949
  30 C     6.0000    0    12.011    2.527074   11.000487    6.992229
  31 O     8.0000    0    15.999    2.402758    1.137014    3.246389
  32 C     6.0000    0    12.011   -2.998987    1.891078   -1.314013
  33 C     6.0000    0    12.011   -5.156282    0.211979   -2.089970
  34 C     6.0000    0    12.011   -7.045260    1.418995   -3.898449
  35 C     6.0000    0    12.011   -9.207525   -0.373925   -4.585382
  36 C     6.0000    0    12.011  -11.117030    0.794683   -6.415185
  37 C     6.0000    0    12.011  -13.287311   -0.987427   -7.104548
  38 C     6.0000    0    12.011  -15.201249    0.178692   -8.932095
  39 C     6.0000    0    12.011  -17.372812   -1.602366   -9.620110
  40 C     6.0000    0    12.011  -19.290880   -0.438067  -11.446519
  41 C     6.0000    0    12.011  -21.453020   -2.235087  -12.120094
  42 O     8.0000    0    15.999   -2.910149    4.139929   -1.914906
  43 O     8.0000    0    15.999   -0.365975   -2.965304   -2.662821
  44 O     8.0000    0    15.999    4.202234   -2.858078   -7.184626
  45 C     6.0000    0    12.011    8.143091   -6.300687   -5.928609
  46 C     6.0000    0    12.011    9.266321   -5.731243   -8.530137
  47 O     8.0000    0    15.999    3.570219   -6.224623   -1.986890
  48 C     6.0000    0    12.011    2.509966   -5.958988    3.296664
  49 C     6.0000    0    12.011    1.704256   -8.719705    2.937518
  50 C     6.0000    0    12.011    2.302829   -5.185063    6.078617
  51 H     1.0000    0     1.008   12.225140   -1.643185    4.537192
  52 H     1.0000    0     1.008   12.169812   -0.353424    8.806783
  53 H     1.0000    0     1.008    9.935994   -2.830970    9.136480
  54 H     1.0000    0     1.008    6.386074    0.172146    8.557013
  55 H     1.0000    0     1.008    8.495414    1.944400   10.485815
  56 H     1.0000    0     1.008    6.989545    3.920684    5.989549
  57 H     1.0000    0     1.008   10.254534    4.121028    6.795089
  58 H     1.0000    0     1.008    5.739231   -1.685958    3.304382
  59 H     1.0000    0     1.008    6.376905   -7.224969    2.828981
  60 H     1.0000    0     1.008    8.699297   -3.535697   -0.456975
  61 H     1.0000    0     1.008    9.410104   -2.688842   -4.500883
  62 H     1.0000    0     1.008    6.052216   -0.159267   -2.212120
  63 H     1.0000    0     1.008    1.421836    0.648084   -5.301305
  64 H     1.0000    0     1.008    2.517889    2.690048   -2.848978
  65 H     1.0000    0     1.008    2.332481   -1.661426   -0.180941
  66 H     1.0000    0     1.008   -1.772269   -0.827111    1.436991
  67 H     1.0000    0     1.008   -0.673287    5.301409    0.275924
  68 H     1.0000    0     1.008    1.247191    8.497890    2.457048
  69 H     1.0000    0     1.008    4.980062    3.002455    2.169860
  70 H     1.0000    0     1.008    9.667122    5.724031    2.288788
  71 H     1.0000    0     1.008    8.720674    6.849850   -2.119434
  72 H     1.0000    0     1.008   11.349014    4.734077   -2.006173
  73 H     1.0000    0     1.008    8.333018    3.597235   -2.954130
  74 H     1.0000    0     1.008    2.582108    4.429627    6.348715
  75 H     1.0000    0     1.008   -0.068276    6.451939    6.410426
  76 H     1.0000    0     1.008    5.442318    8.199491    6.829868
  77 H     1.0000    0     1.008    4.022081    5.644031   10.557196
  78 H     1.0000    0     1.008    4.452770    8.875505   11.386735
  79 H     1.0000    0     1.008    1.358725    7.654765   10.930196
  80 H     1.0000    0     1.008    2.838365   11.603446    5.031667
  81 H     1.0000    0     1.008    0.498075   11.170216    7.430247
  82 H     1.0000    0     1.008    3.549590   12.328736    8.219492
  83 H     1.0000    0     1.008   -6.092758   -0.411921   -0.325750
  84 H     1.0000    0     1.008   -4.315608   -1.534890   -2.865937
  85 H     1.0000    0     1.008   -6.046869    2.013853   -5.625791
  86 H     1.0000    0     1.008   -7.805758    3.163476   -3.055695
  87 H     1.0000    0     1.008  -10.196465   -0.969243   -2.845910
  88 H     1.0000    0     1.008   -8.424313   -2.116236   -5.423478
  89 H     1.0000    0     1.008  -10.128903    1.385296   -8.155169
  90 H     1.0000    0     1.008  -11.895340    2.540546   -5.577899
  91 H     1.0000    0     1.008  -14.271618   -1.581573   -5.362651
  92 H     1.0000    0     1.008  -12.506770   -2.731254   -7.943599
  93 H     1.0000    0     1.008  -14.217245    0.771395  -10.674282
  94 H     1.0000    0     1.008  -15.980120    1.923928   -8.093364
  95 H     1.0000    0     1.008  -18.356046   -2.197554   -7.877613
  96 H     1.0000    0     1.008  -16.594463   -3.347224  -10.460416
  97 H     1.0000    0     1.008  -18.305216    0.154911  -13.185597
  98 H     1.0000    0     1.008  -20.065136    1.305306  -10.604308
  99 H     1.0000    0     1.008  -22.801740   -1.354058  -13.432107
 100 H     1.0000    0     1.008  -20.733820   -3.966370  -13.021234
 101 H     1.0000    0     1.008  -22.506826   -2.808311  -10.420702
 102 H     1.0000    0     1.008    0.841086   -4.396649   -2.716318
 103 H     1.0000    0     1.008    6.328067   -7.287912   -6.119022
 104 H     1.0000    0     1.008    9.421411   -7.538949   -4.852376
 105 H     1.0000    0     1.008    9.590541   -7.489307   -9.586640
 106 H     1.0000    0     1.008    7.983854   -4.542098   -9.643590
 107 H     1.0000    0     1.008   11.094987   -4.751159   -8.362495
 108 H     1.0000    0     1.008    1.220737   -4.763358    2.180975
 109 H     1.0000    0     1.008    1.857283   -9.295419    0.953806
 110 H     1.0000    0     1.008    2.897513   -9.976040    4.091459
 111 H     1.0000    0     1.008   -0.265767   -8.983360    3.542323
 112 H     1.0000    0     1.008    2.584779   -3.146547    6.339151
 113 H     1.0000    0     1.008    0.413156   -5.660827    6.799255
 114 H     1.0000    0     1.008    3.699058   -6.196758    7.242324

--------------------------------
INTERNAL COORDINATES (ANGSTROEM)
--------------------------------
 O      0   0   0     0.000000000000     0.00000000     0.00000000
 C      1   0   0     1.231003801035     0.00000000     0.00000000
 C      2   1   0     1.533188788025   118.37159581     0.00000000
 C      3   2   1     1.544591956291   112.15378017   284.54870628
 C      4   3   2     1.534618082487   103.77757563   257.92014122
 C      5   4   3     1.527680683351   102.83606220   322.06762421
 N      3   2   1     1.474767105122   116.22163551   165.39291651
 C      7   3   2     1.361273398557   120.17778276   291.54588197
 O      8   7   3     1.241229899801   121.49610050     8.93599236
 N      2   1   3     1.361402954529   123.61653920   179.02260375
 C     10   2   1     1.456205130402   120.70701946   353.45187434
 C     11  10   2     1.548822921724   110.39657201   255.10709834
 N     12  11  10     1.352865054968   115.81507522    33.45378348
 C     13  12  11     1.469995500376   122.42091824   186.25226814
 C     14  13  12     1.556249849092   109.34795278    51.89726722
 N     15  14  13     1.377541093591   112.48367515    48.83795337
 C     16  15  14     1.456976806083   121.72618673   210.07665099
 C     17  16  15     1.547432274860   109.47078537    80.10987587
 C     18  17  16     1.567998406589   113.91371568   143.54321840
 C     19  18  17     1.530849477109   105.30425570   292.20677493
 N     20  19  18     1.341421147290   117.17814609   117.63423630
 C     21  20  19     1.468074823821   127.14082937   182.79200346
 C     22  21  20     1.546458067580   113.89985995    70.76702286
 N     23  22  21     1.360467471531   114.59991555   319.73310886
 C     24  23  22     1.462341559584   122.13834554   188.84087961
 C     25  24  23     1.524962155671   112.39329757   277.80665287
 O     23  22  21     1.229553273793   121.30647764   142.13316655
 C     22  21  20     1.544307323991   111.48671035   303.85007075
 C     28  22  21     1.535858004706   115.47707618   180.28063738
 C     29  28  22     1.532917307386   109.22519985   185.17104145
 C     29  28  22     1.532273866025   112.40713737    61.15141698
 O     20  19  18     1.255475572816   118.32382874   301.76525796
 C     19  18  17     1.524633289519   111.78146496    62.87183739
 C     33  19  18     1.503776563632   115.56618728    79.22367183
 C     34  33  19     1.524151745232   114.94308253   187.84012041
 C     35  34  33     1.530212707412   112.31719661   180.74085267
 C     36  35  34     1.530048034187   113.17663581   180.40468498
 C     37  36  35     1.530160098320   113.41912074   180.13165434
 C     38  37  36     1.530312322993   113.50822273   179.93010794
 C     39  38  37     1.530156776864   113.51738392   180.04510008
 C     40  39  38     1.530991525079   113.59169977   179.94732265
 C     41  40  39     1.529846745030   113.12640345   180.01514120
 O     33  19  18     1.232686825112   122.48474337   260.59940413
 O     18  17  16     1.409206787824   112.96730616   270.28647445
 O     15  14  13     1.222178670460   123.81142755   228.29788509
 C     14  13  12     1.531543109093   113.37478371   285.75538948
 C     46  14  13     1.529483422623   112.49590919   198.64796289
 O     12  11  10     1.242655312351   121.99846836   212.60702664
 C     11  10   2     1.548230454160   114.13499137   127.07214523
 C     49  11  10     1.533675002367   109.91384532   203.69128668
 C     49  11  10     1.531977871076   111.42845022   326.81601123
 H      3   2   1     1.099282899446   103.75978908    45.33882871
 H      4   3   2     1.099309476249   109.58930794   140.20202549
 H      4   3   2     1.095797266761   111.25001448    21.06078176
 H      5   4   3     1.100409599159   110.57787819    79.00361916
 H      5   4   3     1.096917490990   113.24065789   200.59679641
 H      6   5   4     1.094071656883   113.26755122   156.33764931
 H      6   5   4     1.103495900210   111.27032107   278.79681442
 H     10   2   1     1.019684847764   120.26483856   175.92486638
 H     11  10   2     1.104458916546   104.12714513     9.05177013
 H     13  12  11     1.021344645895   118.79524830   349.54847510
 H     14  13  12     1.102335414659   104.85661188   166.67336548
 H     16  15  14     1.019657007453   114.51109827   356.02600971
 H     17  16  15     1.097146783130   108.61908891   320.35890054
 H     17  16  15     1.099546407752   108.53071370   202.28706225
 H     18  17  16     1.102310726408   106.84146379    30.80552343
 H     19  18  17     1.100759093250   104.12783372   179.98386367
 H     21  20  19     1.034783764536   113.29564070   356.57927358
 H     22  21  20     1.096937138476   105.76035337   185.24673110
 H     24  23  22     1.029873062257   116.10470721   350.32463276
 H     25  24  23     1.105132392082   107.37095312    37.45811004
 H     26  25  24     1.096652794314   108.84958274    59.96272927
 H     26  25  24     1.097600464021   110.43291054   179.60154150
 H     26  25  24     1.097026711904   111.04466960   299.64507152
 H     28  22  21     1.099248133969   108.30147315    56.81437422
 H     28  22  21     1.103264691364   107.20256198   302.28997555
 H     29  28  22     1.103735779642   108.24725114   302.54658097
 H     30  29  28     1.100601857675   111.44445695    56.75406509
 H     30  29  28     1.099337958135   111.04584683   177.24654004
 H     30  29  28     1.101471802327   110.90244829   296.90794215
 H     31  29  28     1.097869497289   111.50965988   295.69203430
 H     31  29  28     1.102099874380   110.72527701    56.91009581
 H     31  29  28     1.099359924300   110.70239890   176.21784284
 H     34  33  19     1.107323020428   106.60062318    64.20537597
 H     34  33  19     1.105005909604   106.86653825   313.32022094
 H     35  34  33     1.101699693384   109.03735182    58.81037545
 H     35  34  33     1.101376135509   109.67278675   303.43189482
 H     36  35  34     1.104722558778   109.45672012    58.28937404
 H     36  35  34     1.103873384694   109.42412417   302.61805054
 H     37  36  35     1.104037214676   109.23371191    57.90326945
 H     37  36  35     1.104302086711   109.30094208   302.42634336
 H     38  37  36     1.104457100097   109.29572015    57.67519779
 H     38  37  36     1.104217112678   109.27846174   302.19961736
 H     39  38  37     1.104292546560   109.27169851    57.77596527
 H     39  38  37     1.104442451643   109.28178995   302.32131245
 H     40  39  38     1.104611524586   109.31404321    57.67224352
 H     40  39  38     1.104507391287   109.30835640   302.22246105
 H     41  40  39     1.103375583659   109.12185081    57.68756225
 H     41  40  39     1.103450857151   109.12612851   302.35419164
 H     42  41  40     1.099445931332   111.65645698   179.99940758
 H     42  41  40     1.100719418848   111.08273901   300.22629258
 H     42  41  40     1.100768372140   111.08968476    59.76249147
 H     44  18  17     0.991216578210   106.46313724    88.56877539
 H     46  14  13     1.097985966963   108.52061299    75.99908832
 H     46  14  13     1.100596333474   107.39254539   319.98849323
 H     47  46  14     1.098868362557   110.59858565   178.36748787
 H     47  46  14     1.097142012159   110.85482955   298.12599097
 H     47  46  14     1.101488341766   111.20391741    58.87082690
 H     49  11  10     1.101960199236   108.21791418    86.00881852
 H     50  49  11     1.096045523649   111.27926203   303.89674071
 H     50  49  11     1.101631790939   110.29296711    64.63099791
 H     50  49  11     1.099402354698   110.39070245   183.64455140
 H     51  49  11     1.097697625109   111.94272532    66.18550408
 H     51  49  11     1.099433057040   109.70447669   185.76747895
 H     51  49  11     1.100789745898   111.07165810   304.79693864

---------------------------
INTERNAL COORDINATES (A.U.)
---------------------------
 O      0   0   0     0.000000000000     0.00000000     0.00000000
 C      1   0   0     2.326260053771     0.00000000     0.00000000
 C      2   1   0     2.897306920966   118.37159581     0.00000000
 C      3   2   1     2.918855786048   112.15378017   284.54870628
 C      4   3   2     2.900007896065   103.77757563   257.92014122
 C      5   4   3     2.886898111615   102.83606220   322.06762421
 N      3   2   1     2.786905939997   116.22163551   165.39291651
 C      7   3   2     2.572433916664   120.17778276   291.54588197
 O      8   7   3     2.345584579858   121.49610050     8.93599236
 N      2   1   3     2.572678741972   123.61653920   179.02260375
 C     10   2   1     2.751828891271   120.70701946   353.45187434
 C     11  10   2     2.926851151998   110.39657201   255.10709834
 N     12  11  10     2.556544450042   115.81507522    33.45378348
 C     13  12  11     2.777888913806   122.42091824   186.25226814
 C     14  13  12     2.940886010741   109.34795278    51.89726722
 N     15  14  13     2.603175405108   112.48367515    48.83795337
 C     16  15  14     2.753287146972   121.72618673   210.07665099
 C     17  16  15     2.924223210276   109.47078537    80.10987587
 C     18  17  16     2.963087566879   113.91371568   143.54321840
 C     19  18  17     2.892886263993   105.30425570   292.20677493
 N     20  19  18     2.534918598629   117.17814609   117.63423630
 C     21  20  19     2.774259361125   127.14082937   182.79200346
 C     22  21  20     2.922382225319   113.89985995    70.76702286
 N     23  22  21     2.570910935302   114.59991555   319.73310886
 C     24  23  22     2.763425061866   122.13834554   188.84087961
 C     25  24  23     2.881760838813   112.39329757   277.80665287
 O     23  22  21     2.323518954534   121.30647764   142.13316655
 C     22  21  20     2.918317908953   111.48671035   303.85007075
 C     28  22  21     2.902351009485   115.47707618   180.28063738
 C     29  28  22     2.896793896907   109.22519985   185.17104145
 C     29  28  22     2.895577968952   112.40713737    61.15141698
 O     20  19  18     2.372505000450   118.32382874   301.76525796
 C     19  18  17     2.881139371850   111.78146496    62.87183739
 C     33  19  18     2.841725871874   115.56618728    79.22367183
 C     34  33  19     2.880229385026   114.94308253   187.84012041
 C     35  34  33     2.891682943655   112.31719661   180.74085267
 C     36  35  34     2.891371756358   113.17663581   180.40468498
 C     37  36  35     2.891583526879   113.41912074   180.13165434
 C     38  37  36     2.891871189822   113.50822273   179.93010794
 C     39  38  37     2.891577250237   113.51738392   180.04510008
 C     40  39  38     2.893154695753   113.59169977   179.94732265
 C     41  40  39     2.890991374978   113.12640345   180.01514120
 O     33  19  18     2.329440508355   122.48474337   260.59940413
 O     18  17  16     2.663014895051   112.96730616   270.28647445
 O     15  14  13     2.309582973889   123.81142755   228.29788509
 C     14  13  12     2.894197038480   113.37478371   285.75538948
 C     46  14  13     2.890304795130   112.49590919   198.64796289
 O     12  11  10     2.348278219205   121.99846836   212.60702664
 C     11  10   2     2.925731550559   114.13499137   127.07214523
 C     49  11  10     2.898225732915   109.91384532   203.69128668
 C     49  11  10     2.895018619562   111.42845022   326.81601123
 H      3   2   1     2.077343623655   103.75978908    45.33882871
 H      4   3   2     2.077393846535   109.58930794   140.20202549
 H      4   3   2     2.070756732477   111.25001448    21.06078176
 H      5   4   3     2.079472777548   110.57787819    79.00361916
 H      5   4   3     2.072873649479   113.24065789   200.59679641
 H      6   5   4     2.067495802394   113.26755122   156.33764931
 H      6   5   4     2.085305041301   111.27032107   278.79681442
 H     10   2   1     1.926925105183   120.26483856   175.92486638
[...]
      equations for an ideal gas
  (5) All vibrations are strictly harmonic

freq.       5.79  E(vib)   ...       0.58 
freq.      10.96  E(vib)   ...       0.58 
freq.      19.09  E(vib)   ...       0.57 
freq.      21.78  E(vib)   ...       0.56 
freq.      26.82  E(vib)   ...       0.55 
freq.      29.14  E(vib)   ...       0.55 
freq.      32.17  E(vib)   ...       0.55 
freq.      36.46  E(vib)   ...       0.54 
freq.      38.83  E(vib)   ...       0.54 
freq.      43.66  E(vib)   ...       0.53 
freq.      47.61  E(vib)   ...       0.53 
freq.      53.74  E(vib)   ...       0.52 
freq.      56.29  E(vib)   ...       0.52 
freq.      59.65  E(vib)   ...       0.51 
freq.      65.37  E(vib)   ...       0.50 
freq.      66.55  E(vib)   ...       0.50 
freq.      70.44  E(vib)   ...       0.50 
freq.      73.23  E(vib)   ...       0.49 
freq.      73.81  E(vib)   ...       0.49 
freq.      77.15  E(vib)   ...       0.49 
freq.      84.22  E(vib)   ...       0.48 
freq.      86.03  E(vib)   ...       0.48 
freq.      89.13  E(vib)   ...       0.47 
freq.      95.60  E(vib)   ...       0.47 
freq.     101.67  E(vib)   ...       0.46 
freq.     111.28  E(vib)   ...       0.45 
freq.     116.20  E(vib)   ...       0.44 
freq.     118.12  E(vib)   ...       0.44 
freq.     123.53  E(vib)   ...       0.43 
freq.     124.61  E(vib)   ...       0.43 
freq.     131.27  E(vib)   ...       0.42 
freq.     137.29  E(vib)   ...       0.42 
freq.     144.06  E(vib)   ...       0.41 
freq.     149.70  E(vib)   ...       0.40 
freq.     154.47  E(vib)   ...       0.40 
freq.     155.65  E(vib)   ...       0.40 
freq.     163.05  E(vib)   ...       0.39 
freq.     167.56  E(vib)   ...       0.38 
freq.     176.78  E(vib)   ...       0.38 
freq.     184.52  E(vib)   ...       0.37 
freq.     192.70  E(vib)   ...       0.36 
freq.     207.18  E(vib)   ...       0.34 
freq.     207.96  E(vib)   ...       0.34 
freq.     216.00  E(vib)   ...       0.34 
freq.     222.93  E(vib)   ...       0.33 
freq.     223.93  E(vib)   ...       0.33 
freq.     227.63  E(vib)   ...       0.33 
freq.     231.71  E(vib)   ...       0.32 
freq.     235.79  E(vib)   ...       0.32 
freq.     237.13  E(vib)   ...       0.32 
freq.     243.68  E(vib)   ...       0.31 
freq.     247.65  E(vib)   ...       0.31 
freq.     250.00  E(vib)   ...       0.31 
freq.     258.59  E(vib)   ...       0.30 
freq.     262.23  E(vib)   ...       0.29 
freq.     271.25  E(vib)   ...       0.29 
freq.     276.98  E(vib)   ...       0.28 
freq.     280.35  E(vib)   ...       0.28 
freq.     286.29  E(vib)   ...       0.27 
freq.     298.87  E(vib)   ...       0.26 
freq.     310.90  E(vib)   ...       0.26 
freq.     316.56  E(vib)   ...       0.25 
freq.     317.66  E(vib)   ...       0.25 
freq.     320.80  E(vib)   ...       0.25 
freq.     329.45  E(vib)   ...       0.24 
freq.     337.18  E(vib)   ...       0.24 
freq.     350.02  E(vib)   ...       0.23 
freq.     358.24  E(vib)   ...       0.22 
freq.     369.12  E(vib)   ...       0.21 
freq.     371.68  E(vib)   ...       0.21 
freq.     384.53  E(vib)   ...       0.20 
freq.     391.60  E(vib)   ...       0.20 
freq.     398.02  E(vib)   ...       0.20 
freq.     411.20  E(vib)   ...       0.19 
freq.     416.31  E(vib)   ...       0.18 
freq.     428.59  E(vib)   ...       0.18 
freq.     438.10  E(vib)   ...       0.17 
freq.     444.34  E(vib)   ...       0.17 
freq.     459.02  E(vib)   ...       0.16 
freq.     463.36  E(vib)   ...       0.16 
freq.     471.80  E(vib)   ...       0.15 
freq.     479.06  E(vib)   ...       0.15 
freq.     481.46  E(vib)   ...       0.15 
freq.     484.24  E(vib)   ...       0.15 
freq.     509.57  E(vib)   ...       0.14 
freq.     534.96  E(vib)   ...       0.13 
freq.     537.02  E(vib)   ...       0.12 
freq.     554.35  E(vib)   ...       0.12 
freq.     561.84  E(vib)   ...       0.11 
freq.     564.85  E(vib)   ...       0.11 
freq.     567.94  E(vib)   ...       0.11 
freq.     595.28  E(vib)   ...       0.10 
freq.     611.70  E(vib)   ...       0.10 
freq.     616.19  E(vib)   ...       0.09 
freq.     625.63  E(vib)   ...       0.09 
freq.     644.03  E(vib)   ...       0.09 
freq.     665.08  E(vib)   ...       0.08 
freq.     681.70  E(vib)   ...       0.08 
freq.     684.37  E(vib)   ...       0.07 
freq.     697.34  E(vib)   ...       0.07 
freq.     703.07  E(vib)   ...       0.07 
freq.     711.71  E(vib)   ...       0.07 
freq.     713.61  E(vib)   ...       0.07 
freq.     716.72  E(vib)   ...       0.07 
freq.     726.16  E(vib)   ...       0.06 
freq.     730.23  E(vib)   ...       0.06 
freq.     745.17  E(vib)   ...       0.06 
freq.     752.01  E(vib)   ...       0.06 
freq.     756.05  E(vib)   ...       0.06 
freq.     768.71  E(vib)   ...       0.06 
freq.     785.57  E(vib)   ...       0.05 
freq.     791.95  E(vib)   ...       0.05 
freq.     804.10  E(vib)   ...       0.05 
freq.     805.48  E(vib)   ...       0.05 
freq.     817.43  E(vib)   ...       0.05 
freq.     824.41  E(vib)   ...       0.04 
freq.     829.69  E(vib)   ...       0.04 
freq.     836.66  E(vib)   ...       0.04 
freq.     836.88  E(vib)   ...       0.04 
freq.     860.51  E(vib)   ...       0.04 
freq.     860.79  E(vib)   ...       0.04 
freq.     864.61  E(vib)   ...       0.04 
freq.     875.31  E(vib)   ...       0.04 
freq.     877.32  E(vib)   ...       0.04 
freq.     879.12  E(vib)   ...       0.04 
freq.     888.81  E(vib)   ...       0.04 
freq.     895.15  E(vib)   ...       0.03 
freq.     903.40  E(vib)   ...       0.03 
freq.     904.20  E(vib)   ...       0.03 
freq.     909.26  E(vib)   ...       0.03 
freq.     916.37  E(vib)   ...       0.03 
freq.     920.88  E(vib)   ...       0.03 
freq.     922.06  E(vib)   ...       0.03 
freq.     939.75  E(vib)   ...       0.03 
freq.     941.26  E(vib)   ...       0.03 
freq.     943.17  E(vib)   ...       0.03 
freq.     945.30  E(vib)   ...       0.03 
freq.     947.50  E(vib)   ...       0.03 
freq.     958.43  E(vib)   ...       0.03 
freq.     964.02  E(vib)   ...       0.03 
freq.     970.45  E(vib)   ...       0.03 
freq.     979.42  E(vib)   ...       0.03 
freq.     982.63  E(vib)   ...       0.02 
freq.     986.26  E(vib)   ...       0.02 
freq.    1002.53  E(vib)   ...       0.02 
freq.    1013.55  E(vib)   ...       0.02 
freq.    1015.30  E(vib)   ...       0.02 
freq.    1022.60  E(vib)   ...       0.02 
freq.    1024.15  E(vib)   ...       0.02 
freq.    1029.11  E(vib)   ...       0.02 
freq.    1034.10  E(vib)   ...       0.02 
freq.    1037.16  E(vib)   ...       0.02 
freq.    1039.82  E(vib)   ...       0.02 
freq.    1044.45  E(vib)   ...       0.02 
freq.    1046.91  E(vib)   ...       0.02 
freq.    1050.58  E(vib)   ...       0.02 
freq.    1051.61  E(vib)   ...       0.02 
freq.    1067.08  E(vib)   ...       0.02 
freq.    1068.24  E(vib)   ...       0.02 
freq.    1072.64  E(vib)   ...       0.02 
freq.    1081.19  E(vib)   ...       0.02 
freq.    1090.68  E(vib)   ...       0.02 
freq.    1092.77  E(vib)   ...       0.02 
freq.    1095.69  E(vib)   ...       0.02 
freq.    1107.84  E(vib)   ...       0.02 
freq.    1111.05  E(vib)   ...       0.01 
freq.    1116.03  E(vib)   ...       0.01 
freq.    1120.15  E(vib)   ...       0.01 
freq.    1125.62  E(vib)   ...       0.01 
freq.    1127.13  E(vib)   ...       0.01 
freq.    1130.51  E(vib)   ...       0.01 
freq.    1135.30  E(vib)   ...       0.01 
freq.    1141.23  E(vib)   ...       0.01 
freq.    1151.08  E(vib)   ...       0.01 
freq.    1158.22  E(vib)   ...       0.01 
freq.    1160.23  E(vib)   ...       0.01 
freq.    1161.11  E(vib)   ...       0.01 
freq.    1166.34  E(vib)   ...       0.01 
freq.    1175.08  E(vib)   ...       0.01 
freq.    1191.76  E(vib)   ...       0.01 
freq.    1194.07  E(vib)   ...       0.01 
freq.    1197.82  E(vib)   ...       0.01 
freq.    1204.06  E(vib)   ...       0.01 
freq.    1205.43  E(vib)   ...       0.01 
freq.    1225.98  E(vib)   ...       0.01 
freq.    1231.48  E(vib)   ...       0.01 
freq.    1232.07  E(vib)   ...       0.01 
freq.    1234.98  E(vib)   ...       0.01 
freq.    1236.78  E(vib)   ...       0.01 
freq.    1238.80  E(vib)   ...       0.01 
freq.    1244.92  E(vib)   ...       0.01 
freq.    1246.38  E(vib)   ...       0.01 
freq.    1253.14  E(vib)   ...       0.01 
freq.    1255.24  E(vib)   ...       0.01 
freq.    1259.60  E(vib)   ...       0.01 
freq.    1267.76  E(vib)   ...       0.01 
freq.    1268.63  E(vib)   ...       0.01 
freq.    1275.13  E(vib)   ...       0.01 
freq.    1278.47  E(vib)   ...       0.01 
freq.    1282.75  E(vib)   ...       0.01 
freq.    1283.42  E(vib)   ...       0.01 
freq.    1284.72  E(vib)   ...       0.01 
freq.    1286.93  E(vib)   ...       0.01 
freq.    1288.52  E(vib)   ...       0.01 
freq.    1291.54  E(vib)   ...       0.01 
freq.    1294.87  E(vib)   ...       0.01 
freq.    1296.41  E(vib)   ...       0.01 
freq.    1298.95  E(vib)   ...       0.01 
freq.    1303.22  E(vib)   ...       0.01 
freq.    1303.86  E(vib)   ...       0.01 
freq.    1306.03  E(vib)   ...       0.01 
freq.    1308.79  E(vib)   ...       0.01 
freq.    1310.95  E(vib)   ...       0.01 
freq.    1313.33  E(vib)   ...       0.01 
freq.    1321.21  E(vib)   ...       0.01 
freq.    1322.71  E(vib)   ...       0.01 
freq.    1325.51  E(vib)   ...       0.01 
freq.    1329.14  E(vib)   ...       0.01 
freq.    1332.54  E(vib)   ...       0.01 
freq.    1333.25  E(vib)   ...       0.01 
freq.    1343.26  E(vib)   ...       0.01 
freq.    1344.44  E(vib)   ...       0.01 
freq.    1346.76  E(vib)   ...       0.01 
freq.    1348.66  E(vib)   ...       0.01 
freq.    1350.80  E(vib)   ...       0.01 
freq.    1351.77  E(vib)   ...       0.01 
freq.    1353.27  E(vib)   ...       0.01 
freq.    1358.38  E(vib)   ...       0.01 
freq.    1362.05  E(vib)   ...       0.01 
freq.    1362.56  E(vib)   ...       0.01 
freq.    1363.84  E(vib)   ...       0.01 
freq.    1369.08  E(vib)   ...       0.01 
freq.    1371.27  E(vib)   ...       0.01 
freq.    1388.69  E(vib)   ...       0.00 
freq.    1393.99  E(vib)   ...       0.00 
freq.    1403.20  E(vib)   ...       0.00 
freq.    1413.31  E(vib)   ...       0.00 
freq.    1433.32  E(vib)   ...       0.00 
freq.    1433.55  E(vib)   ...       0.00 
freq.    1433.80  E(vib)   ...       0.00 
freq.    1436.68  E(vib)   ...       0.00 
freq.    1437.01  E(vib)   ...       0.00 
freq.    1437.42  E(vib)   ...       0.00 
freq.    1439.27  E(vib)   ...       0.00 
freq.    1439.43  E(vib)   ...       0.00 
freq.    1443.14  E(vib)   ...       0.00 
freq.    1445.37  E(vib)   ...       0.00 
freq.    1445.75  E(vib)   ...       0.00 
freq.    1447.56  E(vib)   ...       0.00 
freq.    1447.95  E(vib)   ...       0.00 
freq.    1448.49  E(vib)   ...       0.00 
freq.    1449.08  E(vib)   ...       0.00 
freq.    1451.00  E(vib)   ...       0.00 
freq.    1452.84  E(vib)   ...       0.00 
freq.    1453.27  E(vib)   ...       0.00 
freq.    1454.23  E(vib)   ...       0.00 
freq.    1456.04  E(vib)   ...       0.00 
freq.    1460.32  E(vib)   ...       0.00 
freq.    1464.90  E(vib)   ...       0.00 
freq.    1464.98  E(vib)   ...       0.00 
freq.    1466.45  E(vib)   ...       0.00 
freq.    1469.29  E(vib)   ...       0.00 
freq.    1470.18  E(vib)   ...       0.00 
freq.    1475.42  E(vib)   ...       0.00 
freq.    1491.60  E(vib)   ...       0.00 
freq.    1502.09  E(vib)   ...       0.00 
freq.    1537.33  E(vib)   ...       0.00 
freq.    1556.27  E(vib)   ...       0.00 
freq.    1599.89  E(vib)   ...       0.00 
freq.    1628.31  E(vib)   ...       0.00 
freq.    1635.21  E(vib)   ...       0.00 
freq.    1671.44  E(vib)   ...       0.00 
freq.    1676.73  E(vib)   ...       0.00 
freq.    1688.69  E(vib)   ...       0.00 
freq.    1718.42  E(vib)   ...       0.00 
freq.    2924.84  E(vib)   ...       0.00 
freq.    2924.98  E(vib)   ...       0.00 
freq.    2926.24  E(vib)   ...       0.00 
freq.    2927.57  E(vib)   ...       0.00 
freq.    2932.44  E(vib)   ...       0.00 
freq.    2934.82  E(vib)   ...       0.00 
freq.    2939.45  E(vib)   ...       0.00 
freq.    2940.50  E(vib)   ...       0.00 
freq.    2942.29  E(vib)   ...       0.00 
freq.    2942.48  E(vib)   ...       0.00 
freq.    2944.96  E(vib)   ...       0.00 
freq.    2947.94  E(vib)   ...       0.00 
freq.    2950.15  E(vib)   ...       0.00 
freq.    2951.80  E(vib)   ...       0.00 
freq.    2953.12  E(vib)   ...       0.00 
freq.    2953.42  E(vib)   ...       0.00 
freq.    2955.19  E(vib)   ...       0.00 
freq.    2956.75  E(vib)   ...       0.00 
freq.    2958.60  E(vib)   ...       0.00 
freq.    2960.63  E(vib)   ...       0.00 
freq.    2960.64  E(vib)   ...       0.00 
freq.    2960.94  E(vib)   ...       0.00 
freq.    2961.66  E(vib)   ...       0.00 
freq.    2966.29  E(vib)   ...       0.00 
freq.    2967.84  E(vib)   ...       0.00 
freq.    2972.32  E(vib)   ...       0.00 
freq.    2972.77  E(vib)   ...       0.00 
freq.    2978.27  E(vib)   ...       0.00 
freq.    2979.09  E(vib)   ...       0.00 
freq.    2981.72  E(vib)   ...       0.00 
freq.    2987.60  E(vib)   ...       0.00 
freq.    2988.09  E(vib)   ...       0.00 
freq.    2989.89  E(vib)   ...       0.00 
freq.    2991.53  E(vib)   ...       0.00 
freq.    2993.04  E(vib)   ...       0.00 
freq.    3003.77  E(vib)   ...       0.00 
freq.    3004.66  E(vib)   ...       0.00 
freq.    3009.65  E(vib)   ...       0.00 
freq.    3015.79  E(vib)   ...       0.00 
freq.    3020.14  E(vib)   ...       0.00 
freq.    3020.25  E(vib)   ...       0.00 
freq.    3022.22  E(vib)   ...       0.00 
freq.    3022.39  E(vib)   ...       0.00 
freq.    3027.52  E(vib)   ...       0.00 
freq.    3029.20  E(vib)   ...       0.00 
freq.    3029.58  E(vib)   ...       0.00 
freq.    3033.81  E(vib)   ...       0.00 
freq.    3039.80  E(vib)   ...       0.00 
freq.    3044.52  E(vib)   ...       0.00 
freq.    3045.43  E(vib)   ...       0.00 
freq.    3045.96  E(vib)   ...       0.00 
freq.    3053.61  E(vib)   ...       0.00 
freq.    3057.70  E(vib)   ...       0.00 
freq.    3059.06  E(vib)   ...       0.00 
freq.    3062.88  E(vib)   ...       0.00 
freq.    3065.91  E(vib)   ...       0.00 
freq.    3066.98  E(vib)   ...       0.00 
freq.    3071.67  E(vib)   ...       0.00 
freq.    3185.67  E(vib)   ...       0.00 
freq.    3229.72  E(vib)   ...       0.00 
freq.    3348.15  E(vib)   ...       0.00 
freq.    3421.30  E(vib)   ...       0.00 
freq.    3447.11  E(vib)   ...       0.00 
freq.    3454.17  E(vib)   ...       0.00 

------------
INNER ENERGY
------------

The inner energy is: U= E(el) + E(ZPE) + E(vib) + E(rot) + E(trans)
    E(el)   - is the total energy from the electronic structure calculation
              = E(kin-el) + E(nuc-el) + E(el-el) + E(nuc-nuc)
    E(ZPE)  - the the zero temperature vibrational energy from the frequency calculation
    E(vib)  - the the finite temperature correction to E(ZPE) due to population
              of excited vibrational states
    E(rot)  - is the rotational thermal energy
    E(trans)- is the translational thermal energy

Summary of contributions to the inner energy U:
Electronic energy                ...  -2380.08346650 Eh
Zero point energy                ...      0.97745612 Eh     613.36 kcal/mol
Thermal vibrational correction   ...      0.05531602 Eh      34.71 kcal/mol
Thermal rotational correction    ...      0.00141627 Eh       0.89 kcal/mol
Thermal translational correction ...      0.00141627 Eh       0.89 kcal/mol
-----------------------------------------------------------------------
Total thermal energy                  -2379.04786182 Eh


Summary of corrections to the electronic energy:
(perhaps to be used in another calculation)
Total thermal correction                  0.05814857 Eh      36.49 kcal/mol
Non-thermal (ZPE) correction              0.97745612 Eh     613.36 kcal/mol
-----------------------------------------------------------------------
Total correction                          1.03560468 Eh     649.85 kcal/mol


--------
ENTHALPY
--------

The enthalpy is H = U + kB*T
                kB is Boltzmann's constant
Total free energy                 ...  -2379.04786182 Eh 
Thermal Enthalpy correction       ...      0.00094421 Eh       0.59 kcal/mol
-----------------------------------------------------------------------
Total Enthalpy                    ...  -2379.04691761 Eh


Note: Only C1 symmetry has been detected, increase convergence thresholds 
      if your molecule has a higher symmetry. Symmetry factor of 1.0 is   
      used for the rotational entropy correction. 
 

Note: Rotational entropy computed according to Herzberg 
Infrared and Raman Spectra, Chapter V,1, Van Nostrand Reinhold, 1945 
Point Group:  C1, Symmetry Number:   1  
Rotational constants in cm-1:     0.002371     0.000930     0.000792 

Vibrational entropy computed according to the QRRHO of S. Grimme
Chem.Eur.J. 2012 18 9955


-------
ENTROPY
-------

The entropy contributions are T*S = T*(S(el)+S(vib)+S(rot)+S(trans))
     S(el)   - electronic entropy
     S(vib)  - vibrational entropy
     S(rot)  - rotational entropy
     S(trans)- translational entropy
The entropies will be listed as mutliplied by the temperature to get
units of energy

Electronic entropy                ...      0.00000000 Eh      0.00 kcal/mol
Vibrational entropy               ...      0.10162864 Eh     63.77 kcal/mol
Rotational entropy                ...      0.01903056 Eh     11.94 kcal/mol
Translational entropy             ...      0.02166895 Eh     13.60 kcal/mol
-----------------------------------------------------------------------
Final entropy term                ...      0.14232815 Eh     89.31 kcal/mol

In case the symmetry of your molecule has not been determined correctly
or in case you have a reason to use a different symmetry number we print 
out the resulting rotational entropy values for sn=1,12 :
 --------------------------------------------------------
|  sn= 1 | S(rot)=       0.01903056 Eh     11.94 kcal/mol|
|  sn= 2 | S(rot)=       0.01837610 Eh     11.53 kcal/mol|
|  sn= 3 | S(rot)=       0.01799327 Eh     11.29 kcal/mol|
|  sn= 4 | S(rot)=       0.01772165 Eh     11.12 kcal/mol|
|  sn= 5 | S(rot)=       0.01751096 Eh     10.99 kcal/mol|
|  sn= 6 | S(rot)=       0.01733881 Eh     10.88 kcal/mol|
|  sn= 7 | S(rot)=       0.01719327 Eh     10.79 kcal/mol|
|  sn= 8 | S(rot)=       0.01706719 Eh     10.71 kcal/mol|
|  sn= 9 | S(rot)=       0.01695598 Eh     10.64 kcal/mol|
|  sn=10 | S(rot)=       0.01685650 Eh     10.58 kcal/mol|
|  sn=11 | S(rot)=       0.01676651 Eh     10.52 kcal/mol|
|  sn=12 | S(rot)=       0.01668436 Eh     10.47 kcal/mol|
 --------------------------------------------------------


-------------------
GIBBS FREE ENERGY
-------------------

The Gibbs free energy is G = H - T*S

Total enthalpy                    ...  -2379.04691761 Eh 
Total entropy correction          ...     -0.14232815 Eh    -89.31 kcal/mol
-----------------------------------------------------------------------
Final Gibbs free energy         ...  -2379.18924575 Eh

For completeness - the Gibbs free energy minus the electronic energy
G-E(el)                           ...      0.89422075 Eh    561.13 kcal/mol


Timings for individual modules:

Sum of individual times         ...    29730.063 sec (= 495.501 min)
GTO integral calculation        ...       13.592 sec (=   0.227 min)   0.0 %
SCF iterations                  ...      297.366 sec (=   4.956 min)   1.0 %
SCF Gradient evaluation         ...       60.927 sec (=   1.015 min)   0.2 %
Geometry relaxation             ...        2.211 sec (=   0.037 min)   0.0 %
Analytical frequency calculation...    29355.967 sec (= 489.266 min)  98.7 %
                             ****ORCA TERMINATED NORMALLY****
TOTAL RUN TIME: 0 days 8 hours 15 minutes 43 seconds 654 msec
