
                                 *****************
                                 * O   R   C   A *
                                 *****************

           --- An Ab Initio, DFT and Semiempirical electronic structure package ---

                  #######################################################
                  #                        -***-                        #
                  #          Department of theory and spectroscopy      #
                  #               Directorship: Frank Neese             #
                  #        Max Planck Institute fuer Kohlenforschung    #
                  #                Kaiser Wilhelm Platz 1               #
                  #                 D-45470 Muelheim/Ruhr               #
                  #                      Germany                        #
                  #                                                     #
                  #                  All rights reserved                #
                  #                        -***-                        #
                  #######################################################


                         Program Version 4.2.0 -  RELEASE  -


 With contributions from (in alphabetic order):
   Daniel Aravena         : Magnetic Suceptibility
   Michael Atanasov       : Ab Initio Ligand Field Theory (pilot matlab implementation)
   Alexander A. Auer      : GIAO ZORA, VPT2
   Ute Becker             : Parallelization
   Giovanni Bistoni       : ED, misc. LED, open-shell LED, HFLED
   Martin Brehm           : Molecular dynamics
   Dmytro Bykov           : SCF Hessian
   Vijay G. Chilkuri      : MRCI spin determinant printing, contributions to CSF-ICE
   Dipayan Datta          : RHF DLPNO-CCSD density
   Achintya Kumar Dutta   : EOM-CC, STEOM-CC
   Dmitry Ganyushin       : Spin-Orbit,Spin-Spin,Magnetic field MRCI
   Miquel Garcia          : C-PCM Hessian, Gaussian charge scheme
   Yang Guo               : DLPNO-NEVPT2, CIM, IAO-localization
   Andreas Hansen         : Spin unrestricted coupled pair/coupled cluster methods
   Benjamin Helmich-Paris : CASSCF linear response (MC-RPA)
   Lee Huntington         : MR-EOM, pCC
   Robert Izsak           : Overlap fitted RIJCOSX, COSX-SCS-MP3, EOM
   Christian Kollmar      : KDIIS, OOCD, Brueckner-CCSD(T), CCSD density
   Simone Kossmann        : Meta GGA functionals, TD-DFT gradient, OOMP2, MP2 Hessian
   Martin Krupicka        : AUTO-CI
   Lucas Lang             : DCDCAS
   Dagmar Lenk            : GEPOL surface, SMD
   Dimitrios Liakos       : Extrapolation schemes; Compound Job, initial MDCI parallelization
   Dimitrios Manganas     : Further ROCIS development; embedding schemes
   Dimitrios Pantazis     : SARC Basis sets
   Taras Petrenko         : DFT Hessian,TD-DFT gradient, ASA, ECA, R-Raman, ABS, FL, XAS/XES, NRVS
   Peter Pinski           : DLPNO-MP2, DLPNO-MP2 Gradient
   Christoph Reimann      : Effective Core Potentials
   Marius Retegan         : Local ZFS, SOC
   Christoph Riplinger    : Optimizer, TS searches, QM/MM, DLPNO-CCSD(T), (RO)-DLPNO pert. Triples
   Tobias Risthaus        : Range-separated hybrids, TD-DFT gradient, RPA, STAB
   Michael Roemelt        : Original ROCIS implementation
   Masaaki Saitow         : Open-shell DLPNO-CCSD energy and density
   Barbara Sandhoefer     : DKH picture change effects
   Avijit Sen             : IP-ROCIS
   Kantharuban Sivalingam : CASSCF convergence, NEVPT2, FIC-MRCI
   Bernardo de Souza      : ESD, SOC TD-DFT
   Georgi Stoychev        : AutoAux, RI-MP2 NMR
   Willem Van den Heuvel  : Paramagnetic NMR
   Boris Wezisla          : Elementary symmetry handling
   Frank Wennmohs         : Technical directorship


 We gratefully acknowledge several colleagues who have allowed us to
 interface, adapt or use parts of their codes:
   Stefan Grimme, W. Hujo, H. Kruse,             : VdW corrections, initial TS optimization,
                  C. Bannwarth                     DFT functionals, gCP, sTDA/sTD-DF
   Ed Valeev, F. Pavosevic, A. Kumar             : LibInt (2-el integral package), F12 methods
   Garnet Chan, S. Sharma, J. Yang, R. Olivares  : DMRG
   Ulf Ekstrom                                   : XCFun DFT Library
   Mihaly Kallay                                 : mrcc  (arbitrary order and MRCC methods)
   Andreas Klamt, Michael Diedenhofen            : otool_cosmo (COSMO solvation model)
   Jiri Pittner, Ondrej Demel                    : Mk-CCSD
   Frank Weinhold                                : gennbo (NPA and NBO analysis)
   Christopher J. Cramer and Donald G. Truhlar   : smd solvation model
   Lars Goerigk                                  : TD-DFT with DH, B97 family of functionals
   V. Asgeirsson, H. Jonsson                     : NEB implementation
   FAccTs GmbH                                   : IRC, NEB, NEB-TS, Multilevel, MM, QM/MM, CI optimization
   S Lehtola, MJT Oliveira, MAL Marques          : LibXC Library


 Your calculation uses the libint2 library for the computation of 2-el integrals
 For citations please refer to: http://libint.valeyev.net

 Your ORCA version has been built with support for libXC version: 4.2.3
 For citations please refer to: https://tddft.org/programs/libxc/

 This ORCA versions uses:
   CBLAS   interface :  Fast vector & matrix operations
   LAPACKE interface :  Fast linear algebra routines
   SCALAPACK package :  Parallel linear algebra routines




***************************************
The coordinates will be read from file: 82.xyz
***************************************


Your calculation utilizes the atom-pairwise dispersion correction
with the Becke-Johnson damping scheme (D3BJ)
Cite in your paper:
S.Grimme, S.Ehrlich, L.Goerigk, J Comput Chem, (2011), 32, 1456–1465 
S.Grimme, J.Antony, S.Ehrlich and H.Krieg, J.Chem.Phys., 132, (2010), 154104 
   

----- Orbital basis set information -----
Your calculation utilizes the basis: def2-TZVP
   F. Weigend and R. Ahlrichs, Phys. Chem. Chem. Phys. 7, 3297 (2005).

----- AuxJ basis set information -----
Your calculation utilizes the auxiliary basis: def2/J
   F. Weigend, Phys. Chem. Chem. Phys. 8, 1057 (2006).

================================================================================
                                        WARNINGS
                       Please study these warnings very carefully!
================================================================================


WARNING: Geometry Optimization
  ===> : Switching off AutoStart
         For restart on a previous wavefunction, please use MOREAD

INFO   : the flag for use of LIBINT has been found!

================================================================================
                                       INPUT FILE
================================================================================
NAME = 82.inp
|  1> !RI BP86 def2-tzvp def2/J D3BJ VeryTightSCF VeryTightOpt Grid5 FinalGrid6 freq
|  2> %maxcore 4000
|  3> %pal nprocs 24
|  4> end
|  5> * xyzfile 0 1 82.xyz 
|  6> 
|  7>                          ****END OF INPUT****
================================================================================

                       *****************************
                       * Geometry Optimization Run *
                       *****************************

Geometry optimization settings:
Update method            Update   .... BFGS
Choice of coordinates    CoordSys .... Z-matrix Internals
Initial Hessian          InHess   .... Almoef's Model

Convergence Tolerances:
Energy Change            TolE     ....  2.0000e-07 Eh
Max. Gradient            TolMAXG  ....  3.0000e-05 Eh/bohr
RMS Gradient             TolRMSG  ....  8.0000e-06 Eh/bohr
Max. Displacement        TolMAXD  ....  2.0000e-04 bohr
RMS Displacement         TolRMSD  ....  1.0000e-04 bohr
Strict Convergence                ....  False
------------------------------------------------------------------------------
                        ORCA OPTIMIZATION COORDINATE SETUP
------------------------------------------------------------------------------

The optimization will be done in new redundant internal coordinates
Making redundant internal coordinates   ...  (new redundants) done
Evaluating the initial hessian          ...  (Almloef) done
Evaluating the coordinates              ...  done
Calculating the B-matrix                .... done
Calculating the G-matrix                .... done
Diagonalizing the G-matrix              .... done
Small eigenvalue found = 3.360e-04
Small eigenvalue found = 1.252e-03
Small eigenvalue found = 1.501e-03
Small eigenvalue found = 2.237e-03
Small eigenvalue found = 4.026e-03
Small eigenvalue found = 5.138e-03
Small eigenvalue found = 6.299e-03
Small eigenvalue found = 7.321e-03
Small eigenvalue found = 8.073e-03
Small eigenvalue found = 9.362e-03
Small eigenvalue found = 9.923e-03
Small eigenvalue found = 1.181e-02
Small eigenvalue found = 1.324e-02
Small eigenvalue found = 1.616e-02
Small eigenvalue found = 1.765e-02
Small eigenvalue found = 1.853e-02
Small eigenvalue found = 2.309e-02
Small eigenvalue found = 2.408e-02
Small eigenvalue found = 2.610e-02
The first mode is                       ....  325
The number of degrees of freedom        ....  339

    -----------------------------------------------------------------
                    Redundant Internal Coordinates


    -----------------------------------------------------------------
         Definition                    Initial Value    Approx d2E/dq
    -----------------------------------------------------------------
      1. B(C   1,O   0)                  1.2331         0.995939   
      2. B(C   2,C   1)                  1.5437         0.355194   
      3. B(C   3,C   2)                  1.5505         0.346459   
      4. B(C   4,C   3)                  1.5358         0.365709   
      5. B(C   5,C   4)                  1.5271         0.377552   
      6. B(N   6,C   2)                  1.4532         0.443730   
      7. B(N   6,C   5)                  1.4729         0.412691   
      8. B(C   7,N   6)                  1.3647         0.613996   
      9. B(O   8,C   7)                  1.2339         0.992996   
     10. B(N   9,C   1)                  1.3648         0.613803   
     11. B(C  10,N   9)                  1.4652         0.424594   
     12. B(C  11,C  10)                  1.5351         0.366655   
     13. B(N  12,C  11)                  1.3613         0.621894   
     14. B(C  13,N  12)                  1.4536         0.442926   
     15. B(C  14,C  13)                  1.5412         0.358461   
     16. B(N  15,C  14)                  1.3574         0.630712   
     17. B(C  16,N  15)                  1.4465         0.454645   
     18. B(C  17,C  16)                  1.5354         0.366303   
     19. B(C  18,C  17)                  1.5686         0.324177   
     20. B(C  19,C  18)                  1.5310         0.372215   
     21. B(N  20,C  19)                  1.3615         0.621253   
     22. B(C  21,N  20)                  1.4638         0.426671   
     23. B(C  22,C  21)                  1.5499         0.347247   
     24. B(N  23,C  22)                  1.3631         0.617668   
     25. B(C  24,N  23)                  1.4616         0.430139   
     26. B(C  24,C   7)                  1.5386         0.361973   
     27. B(C  25,C  24)                  1.5254         0.379966   
     28. B(O  26,C  22)                  1.2289         1.011221   
     29. B(C  27,C  21)                  1.5368         0.364379   
     30. B(C  28,C  27)                  1.5384         0.362160   
     31. B(C  29,C  28)                  1.5331         0.369294   
     32. B(C  30,C  28)                  1.5321         0.370653   
     33. B(O  31,C  19)                  1.2346         0.990223   
     34. B(C  32,C  18)                  1.5299         0.373769   
     35. B(C  33,C  32)                  1.5178         0.390763   
     36. B(C  34,C  33)                  1.5296         0.374189   
     37. B(C  35,C  34)                  1.5304         0.372981   
     38. B(C  36,C  35)                  1.5283         0.375859   
     39. B(C  37,C  36)                  1.5306         0.372749   
     40. B(C  38,C  37)                  1.5295         0.374288   
     41. B(C  39,C  38)                  1.5300         0.373628   
     42. B(C  40,C  39)                  1.5308         0.372436   
     43. B(C  41,C  40)                  1.5299         0.373687   
     44. B(O  42,C  32)                  1.2243         1.028697   
     45. B(O  43,C  17)                  1.4424         0.461680   
     46. B(O  44,C  14)                  1.2351         0.988478   
     47. B(C  45,C  13)                  1.5324         0.370322   
     48. B(C  46,C  45)                  1.5271         0.377579   
     49. B(O  47,C  11)                  1.2313         1.002388   
     50. B(C  48,C  10)                  1.5523         0.344135   
     51. B(C  49,C  48)                  1.5341         0.368041   
     52. B(C  50,C  48)                  1.5304         0.373036   
     53. B(H  51,C   2)                  1.1036         0.342506   
     54. B(H  52,C   3)                  1.0994         0.347814   
     55. B(H  53,C   3)                  1.0975         0.350328   
     56. B(H  54,C   4)                  1.0946         0.354049   
     57. B(H  55,C   4)                  1.0971         0.350782   
     58. B(H  56,C   5)                  1.0944         0.354273   
     59. B(H  57,C   5)                  1.1044         0.341577   
     60. B(H  58,N   9)                  1.0174         0.421100   
     61. B(H  59,C  10)                  1.1022         0.344362   
     62. B(H  60,N  12)                  1.0179         0.420399   
     63. B(H  61,C  13)                  1.1021         0.344493   
     64. B(H  62,N  15)                  1.0219         0.414154   
     65. B(H  63,C  16)                  1.0976         0.350191   
     66. B(H  64,C  16)                  1.0992         0.348155   
     67. B(H  65,C  17)                  1.1014         0.345276   
     68. B(H  66,O   0)                  2.1815         0.005850   
     69. B(H  66,C  18)                  1.1035         0.342690   
     70. B(H  67,N  20)                  1.0223         0.413619   
     71. B(H  68,C  21)                  1.1022         0.344281   
     72. B(H  69,N  23)                  1.0167         0.422200   
     73. B(H  70,C  24)                  1.1016         0.345035   
     74. B(H  71,C  25)                  1.0976         0.350216   
     75. B(H  72,C  25)                  1.0980         0.349681   
     76. B(H  73,C  25)                  1.0971         0.350847   
     77. B(H  74,C  27)                  1.0973         0.350631   
     78. B(H  75,C  27)                  1.1036         0.342613   
     79. B(H  76,C  28)                  1.1015         0.345197   
     80. B(H  77,C  29)                  1.1006         0.346286   
     81. B(H  78,C  29)                  1.1024         0.344118   
     82. B(H  79,C  29)                  1.0996         0.347663   
     83. B(H  80,C  30)                  1.0993         0.348023   
     84. B(H  81,C  30)                  1.0998         0.347332   
     85. B(H  82,C  30)                  1.1024         0.344077   
     86. B(H  83,C  33)                  1.1029         0.343389   
     87. B(H  84,C  33)                  1.1033         0.342973   
     88. B(H  85,C  34)                  1.1011         0.345658   
     89. B(H  86,H  54)                  4.1000         0.000001   
     90. B(H  86,C  34)                  1.1011         0.345697   
     91. B(H  87,C  35)                  1.1024         0.344080   
     92. B(H  88,C  35)                  1.1049         0.340901   
     93. B(H  89,C  36)                  1.1043         0.341614   
     94. B(H  90,C  36)                  1.1043         0.341613   
     95. B(H  91,C  37)                  1.1035         0.342629   
     96. B(H  92,C  37)                  1.1043         0.341715   
     97. B(H  93,C  38)                  1.1047         0.341172   
     98. B(H  94,C  38)                  1.1049         0.340860   
     99. B(H  95,C  39)                  1.1042         0.341788   
    100. B(H  96,C  39)                  1.1045         0.341384   
    101. B(H  97,C  40)                  1.1036         0.342592   
    102. B(H  98,C  40)                  1.1036         0.342608   
    103. B(H  99,C  41)                  1.0996         0.347656   
    104. B(H 100,C  41)                  1.1008         0.346125   
    105. B(H 101,C  41)                  1.1007         0.346220   
    106. B(H 102,O  43)                  0.9720         0.497510   
    107. B(H 103,H  91)                  2.2953         0.000823   
    108. B(H 103,C  45)                  1.0978         0.349885   
    109. B(H 104,C  45)                  1.1017         0.344941   
    110. B(H 105,C  46)                  1.0989         0.348574   
    111. B(H 106,C  46)                  1.1003         0.346788   
    112. B(H 107,H  53)                  4.6134         0.000000   
    113. B(H 107,C  46)                  1.0997         0.347451   
    114. B(H 108,C  48)                  1.1063         0.339230   
    115. B(H 109,C  49)                  1.1004         0.346563   
    116. B(H 110,C  49)                  1.0997         0.347551   
    117. B(H 111,C  49)                  1.0986         0.348872   
    118. B(H 112,C  50)                  1.0992         0.348162   
    119. B(H 113,C  50)                  1.0995         0.347692   
    120. B(H 114,C  50)                  1.0968         0.351194   
    121. A(O   0,C   1,N   9)          122.8994         0.465988   
    122. A(C   2,C   1,N   9)          112.2719         0.390002   
    123. A(O   0,C   1,C   2)          124.8215         0.424851   
    124. A(C   1,C   2,H  51)          105.6306         0.319024   
    125. A(N   6,C   2,H  51)          109.3989         0.328917   
    126. A(C   1,C   2,N   6)          112.0005         0.368689   
    127. A(C   1,C   2,C   3)          114.1778         0.355650   
    128. A(C   3,C   2,H  51)          111.2324         0.317731   
    129. A(C   3,C   2,N   6)          104.4492         0.367118   
    130. A(C   4,C   3,H  53)          112.3487         0.321734   
    131. A(C   4,C   3,H  52)          111.0066         0.321355   
    132. A(C   2,C   3,C   4)          104.3972         0.357416   
    133. A(C   2,C   3,H  53)          112.1634         0.318903   
    134. A(C   2,C   3,H  52)          109.0879         0.318529   
    135. A(H  52,C   3,H  53)          107.8207         0.288017   
    136. A(H  54,C   4,H  55)          108.0025         0.288877   
    137. A(C   3,C   4,H  55)          112.6830         0.321803   
    138. A(C   3,C   4,C   5)          104.3210         0.362689   
    139. A(C   3,C   4,H  54)          110.3660         0.322292   
    140. A(C   5,C   4,H  55)          112.2577         0.323488   
    141. A(C   5,C   4,H  54)          109.1646         0.323981   
    142. A(H  56,C   5,H  57)          109.0211         0.287706   
    143. A(C   4,C   5,N   6)          102.8586         0.367964   
    144. A(C   4,C   5,H  56)          111.6885         0.324014   
    145. A(N   6,C   5,H  57)          110.0071         0.324866   
    146. A(N   6,C   5,H  56)          111.4382         0.326823   
    147. A(C   4,C   5,H  57)          111.7368         0.322081   
    148. A(C   5,N   6,C   7)          127.4076         0.397859   
    149. A(C   2,N   6,C   7)          118.6016         0.402970   
    150. A(C   2,N   6,C   5)          112.9492         0.375970   
    151. A(O   8,C   7,C  24)          122.2911         0.426065   
    152. A(N   6,C   7,O   8)          121.5882         0.465762   
    153. A(N   6,C   7,C  24)          116.0681         0.391314   
    154. A(C   1,N   9,C  10)          124.2808         0.399831   
    155. A(C  10,N   9,H  58)          115.1532         0.335005   
    156. A(C   1,N   9,H  58)          115.9740         0.356405   
    157. A(C  48,C  10,H  59)          109.0468         0.317663   
    158. A(C  11,C  10,H  59)          104.9264         0.320967   
    159. A(N   9,C  10,C  11)          114.8455         0.367910   
    160. A(N   9,C  10,C  48)          108.3150         0.363937   
    161. A(N   9,C  10,H  59)          108.3337         0.326826   
    162. A(C  11,C  10,C  48)          111.1871         0.357164   
    163. A(N  12,C  11,O  47)          123.1922         0.467660   
    164. A(C  10,C  11,O  47)          119.6964         0.427768   
    165. A(C  10,C  11,N  12)          117.1110         0.393073   
    166. A(C  13,N  12,H  60)          118.1145         0.337276   
    167. A(C  11,N  12,C  13)          121.1813         0.403750   
    168. A(C  11,N  12,H  60)          119.2017         0.357098   
    169. A(C  14,C  13,C  45)          110.9032         0.360261   
    170. A(N  12,C  13,H  61)          106.1257         0.329133   
    171. A(C  14,C  13,H  61)          105.2497         0.319803   
    172. A(N  12,C  13,C  14)          112.9658         0.369155   
    173. A(C  45,C  13,H  61)          109.8056         0.321510   
    174. A(N  12,C  13,C  45)          111.4599         0.371227   
    175. A(C  13,C  14,N  15)          116.2765         0.392487   
    176. A(N  15,C  14,O  44)          122.9800         0.467669   
    177. A(C  13,C  14,O  44)          120.7345         0.424975   
    178. A(C  14,N  15,H  62)          119.7681         0.357044   
    179. A(C  16,N  15,H  62)          118.0360         0.337903   
    180. A(C  14,N  15,C  16)          120.7470         0.406627   
    181. A(H  63,C  16,H  64)          108.9168         0.288043   
    182. A(C  17,C  16,H  64)          109.4893         0.321492   
    183. A(N  15,C  16,H  63)          109.6148         0.331455   
    184. A(C  17,C  16,H  63)          108.6066         0.321799   
    185. A(N  15,C  16,C  17)          111.4970         0.372199   
    186. A(N  15,C  16,H  64)          108.6796         0.331135   
    187. A(O  43,C  17,H  65)          108.6584         0.331522   
    188. A(C  18,C  17,H  65)          108.5737         0.314727   
    189. A(C  16,C  17,H  65)          107.3752         0.321056   
    190. A(C  16,C  17,C  18)          110.6658         0.353505   
    191. A(C  18,C  17,O  43)          115.3591         0.365435   
    192. A(C  16,C  17,O  43)          105.9102         0.373185   
    193. A(C  19,C  18,H  66)          102.4404         0.321502   
    194. A(C  17,C  18,H  66)          108.3982         0.314343   
    195. A(C  17,C  18,C  32)          109.3783         0.354716   
    196. A(C  17,C  18,C  19)          120.2947         0.354465   
    197. A(C  19,C  18,C  32)          109.8356         0.363157   
    198. A(C  32,C  18,H  66)          105.3040         0.321722   
    199. A(C  18,C  19,N  20)          116.0735         0.394040   
    200. A(N  20,C  19,O  31)          122.7698         0.466527   
    201. A(C  18,C  19,O  31)          120.5318         0.427986   
    202. A(C  19,N  20,H  67)          115.9507         0.356051   
    203. A(C  19,N  20,C  21)          121.5771         0.401025   
    204. A(C  21,N  20,H  67)          120.2871         0.334279   
    205. A(C  27,C  21,H  68)          108.9074         0.320628   
    206. A(C  22,C  21,H  68)          105.4654         0.318117   
    207. A(N  20,C  21,H  68)          105.0183         0.327076   
    208. A(N  20,C  21,C  22)          110.6699         0.364803   
    209. A(C  22,C  21,C  27)          111.8257         0.357333   
    210. A(N  20,C  21,C  27)          114.3268         0.367825   
    211. A(C  21,C  22,N  23)          114.4416         0.388890   
    212. A(C  21,C  22,O  26)          122.3129         0.424289   
    213. A(N  23,C  22,O  26)          123.1724         0.467827   
    214. A(C  22,N  23,C  24)          122.5351         0.401188   
    215. A(C  24,N  23,H  69)          118.6764         0.335874   
    216. A(C  22,N  23,H  69)          118.5124         0.356944   
    217. A(C  25,C  24,H  70)          109.4168         0.322950   
    218. A(N  23,C  24,H  70)          105.5104         0.327631   
    219. A(C   7,C  24,H  70)          109.9717         0.320395   
    220. A(N  23,C  24,C  25)          112.1927         0.370997   
    221. A(C   7,C  24,N  23)          107.9729         0.367918   
    222. A(C   7,C  24,C  25)          111.5887         0.362447   
    223. A(H  71,C  25,H  73)          109.6497         0.288394   
    224. A(C  24,C  25,H  73)          110.6692         0.323836   
    225. A(H  71,C  25,H  72)          108.9355         0.288243   
    226. A(C  24,C  25,H  72)          110.4636         0.323659   
    227. A(C  24,C  25,H  71)          109.3188         0.323741   
    228. A(H  72,C  25,H  73)          107.7710         0.288325   
    229. A(C  28,C  27,H  75)          108.8904         0.320054   
    230. A(C  21,C  27,C  28)          114.2648         0.359899   
    231. A(H  74,C  27,H  75)          107.1955         0.287378   
    232. A(C  21,C  27,H  75)          107.8281         0.320373   
    233. A(C  28,C  27,H  74)          110.0189         0.321267   
    234. A(C  21,C  27,H  74)          108.3926         0.321588   
    235. A(C  29,C  28,C  30)          110.5583         0.362151   
    236. A(C  27,C  28,C  30)          109.6760         0.360947   
    237. A(C  27,C  28,C  29)          112.0681         0.360721   
    238. A(C  30,C  28,H  76)          107.9991         0.321664   
    239. A(C  29,C  28,H  76)          108.9810         0.321471   
    240. A(C  27,C  28,H  76)          107.4216         0.320447   
    241. A(C  28,C  29,H  79)          110.9716         0.321846   
    242. A(H  78,C  29,H  79)          107.6419         0.287193   
    243. A(H  77,C  29,H  79)          106.9933         0.287475   
    244. A(H  77,C  29,H  78)          107.6547         0.287015   
    245. A(C  28,C  29,H  78)          110.7377         0.321306   
    246. A(C  28,C  29,H  77)          112.6161         0.321637   
    247. A(H  81,C  30,H  82)          107.6379         0.287145   
    248. A(H  80,C  30,H  82)          107.8974         0.287234   
    249. A(C  28,C  30,H  82)          110.8645         0.321493   
    250. A(H  80,C  30,H  81)          108.0367         0.287657   
    251. A(C  28,C  30,H  81)          111.2503         0.321989   
    252. A(C  28,C  30,H  80)          111.0059         0.322094   
    253. A(C  33,C  32,O  42)          121.6736         0.434707   
    254. A(C  18,C  32,O  42)          120.4792         0.431246   
    255. A(C  18,C  32,C  33)          117.8430         0.366192   
    256. A(C  32,C  33,C  34)          113.0649         0.366262   
    257. A(C  34,C  33,H  84)          111.7163         0.321824   
    258. A(H  83,C  33,H  84)          105.4664         0.286490   
    259. A(C  32,C  33,H  84)          104.6485         0.324119   
    260. A(C  34,C  33,H  83)          111.4867         0.321888   
    261. A(C  32,C  33,H  83)          109.9878         0.324184   
    262. A(C  33,C  34,C  35)          112.1382         0.363355   
    263. A(H  85,C  34,H  86)          106.8049         0.287139   
    264. A(C  35,C  34,H  86)          109.6582         0.322071   
    265. A(C  33,C  34,H  86)          108.1280         0.322242   
    266. A(C  35,C  34,H  85)          110.3352         0.322065   
    267. A(C  33,C  34,H  85)          109.6092         0.322236   
    268. A(C  34,C  35,C  36)          113.9213         0.363631   
    269. A(H  87,C  35,H  88)          105.8117         0.286309   
    270. A(C  36,C  35,H  88)          109.6902         0.321739   
    271. A(C  34,C  35,H  88)          109.4855         0.321335   
    272. A(C  36,C  35,H  87)          107.8206         0.322229   
    273. A(C  34,C  35,H  87)          109.7864         0.321824   
    274. A(C  35,C  36,C  37)          112.6895         0.363593   
    275. A(H  89,C  36,H  90)          105.9377         0.286081   
    276. A(C  37,C  36,H  90)          109.0855         0.321412   
    277. A(C  35,C  36,H  90)          108.5126         0.321849   
    278. A(C  37,C  36,H  89)          110.0620         0.321412   
    279. A(C  35,C  36,H  89)          110.3085         0.321850   
    280. A(C  36,C  37,C  38)          113.4749         0.363332   
    281. A(H  91,C  37,H  92)          105.7273         0.286227   
    282. A(C  38,C  37,H  92)          109.5293         0.321644   
    283. A(C  36,C  37,H  92)          109.4438         0.321428   
    284. A(C  38,C  37,H  91)          109.5279         0.321785   
    285. A(C  36,C  37,H  91)          108.8450         0.321568   
    286. A(C  37,C  38,C  39)          113.3945         0.363479   
    287. A(H  93,C  38,H  94)          105.8562         0.285925   
    288. A(C  39,C  38,H  94)          109.1387         0.321420   
    289. A(C  37,C  38,H  94)          109.0063         0.321513   
    290. A(C  39,C  38,H  93)          109.4309         0.321468   
    291. A(C  37,C  38,H  93)          109.7354         0.321561   
    292. A(C  38,C  39,C  40)          113.6316         0.363171   
    293. A(H  95,C  39,H  96)          105.8315         0.286074   
    294. A(C  40,C  39,H  96)          109.2701         0.321333   
    295. A(C  38,C  39,H  96)          109.3348         0.321501   
    296. A(C  40,C  39,H  95)          109.3236         0.321395   
    297. A(C  38,C  39,H  95)          109.1551         0.321563   
    298. A(C  39,C  40,C  41)          113.1338         0.363181   
    299. A(H  97,C  40,H  98)          105.9301         0.286339   
    300. A(C  41,C  40,H  98)          109.6049         0.321697   
    301. A(C  39,C  40,H  98)          109.0880         0.321521   
    302. A(C  41,C  40,H  97)          109.6421         0.321695   
    303. A(C  39,C  40,H  97)          109.1867         0.321518   
    304. A(H 100,C  41,H 101)          107.4149         0.287267   
    305. A(H  99,C  41,H 101)          107.7142         0.287466   
    306. A(C  40,C  41,H 101)          111.0538         0.322250   
    307. A(H  99,C  41,H 100)          107.6954         0.287453   
    308. A(C  40,C  41,H 100)          111.0777         0.322236   
    309. A(C  40,C  41,H  99)          111.6926         0.322469   
    310. A(C  17,O  43,H 102)          108.5075         0.349355   
    311. A(C  13,C  45,C  46)          112.8338         0.363470   
    312. A(C  46,C  45,H 104)          110.7302         0.322602   
    313. A(C  13,C  45,H 104)          108.7558         0.321578   
    314. A(C  46,C  45,H 103)          110.6708         0.323356   
    315. A(C  13,C  45,H 103)          106.8889         0.322329   
    316. A(H 103,C  45,H 104)          106.7014         0.287586   
    317. A(H 106,C  46,H 107)          107.5677         0.287513   
    318. A(H 105,C  46,H 107)          107.7779         0.287744   
    319. A(C  45,C  46,H 107)          111.5561         0.322986   
    320. A(H 105,C  46,H 106)          107.8804         0.287658   
    321. A(C  45,C  46,H 106)          111.0579         0.322885   
    322. A(C  45,C  46,H 105)          110.8350         0.323157   
    323. A(C  50,C  48,H 108)          107.3848         0.321085   
    324. A(C  49,C  48,H 108)          108.5709         0.320377   
    325. A(C  10,C  48,H 108)          105.0698         0.316887   
    326. A(C  49,C  48,C  50)          111.4747         0.362337   
    327. A(C  10,C  48,C  50)          112.2275         0.358213   
    328. A(C  10,C  48,C  49)          111.7482         0.357393   
    329. A(H 110,C  49,H 111)          107.8203         0.287795   
    330. A(H 109,C  49,H 111)          107.7317         0.287667   
    331. A(C  48,C  49,H 111)          110.4194         0.321850   
    332. A(H 109,C  49,H 110)          107.6519         0.287497   
    333. A(C  48,C  49,H 110)          110.5532         0.321650   
    334. A(C  48,C  49,H 109)          112.4902         0.321500   
    335. A(H 113,C  50,H 114)          108.9332         0.288112   
    336. A(H 112,C  50,H 114)          107.7686         0.288173   
    337. A(C  48,C  50,H 114)          110.8614         0.322912   
    338. A(H 112,C  50,H 113)          108.1517         0.287722   
    339. A(C  48,C  50,H 113)          109.8679         0.322382   
    340. A(C  48,C  50,H 112)          111.1744         0.322454   
    341. D(H  51,C   2,C   1,N   9)     47.0977         0.009508   
    342. D(C   3,C   2,C   1,N   9)    -75.4381         0.009508   
    343. D(N   6,C   2,C   1,N   9)    166.1120         0.009508   
    344. D(N   6,C   2,C   1,O   0)    -14.8467         0.009508   
    345. D(C   3,C   2,C   1,O   0)    103.6031         0.009508   
    346. D(H  51,C   2,C   1,O   0)   -133.8610         0.009508   
    347. D(C   4,C   3,C   2,N   6)     19.0507         0.009687   
    348. D(H  53,C   3,C   2,H  51)   -101.1379         0.009687   
    349. D(H  53,C   3,C   2,C   1)     18.2867         0.009687   
    350. D(C   4,C   3,C   2,H  51)    136.9606         0.009687   
    351. D(H  53,C   3,C   2,N   6)    140.9521         0.009687   
    352. D(H  52,C   3,C   2,H  51)     18.2450         0.009687   
    353. D(C   4,C   3,C   2,C   1)   -103.6148         0.009687   
    354. D(H  52,C   3,C   2,C   1)    137.6696         0.009687   
    355. D(H  52,C   3,C   2,N   6)    -99.6650         0.009687   
    356. D(H  55,C   4,C   3,H  53)     84.4648         0.010707   
    357. D(H  55,C   4,C   3,H  52)    -36.3538         0.010707   
    358. D(H  54,C   4,C   3,H  52)   -157.1815         0.010707   
    359. D(H  55,C   4,C   3,C   2)   -153.7558         0.010707   
    360. D(H  54,C   4,C   3,H  53)    -36.3629         0.010707   
    361. D(C   5,C   4,C   3,C   2)    -31.7239         0.010707   
    362. D(H  54,C   4,C   3,C   2)     85.4164         0.010707   
    363. D(C   5,C   4,C   3,H  53)   -153.5032         0.010707   
    364. D(C   5,C   4,C   3,H  52)     85.6782         0.010707   
    365. D(N   6,C   5,C   4,C   3)     31.8422         0.011369   
    366. D(H  57,C   5,C   4,C   3)    -86.1148         0.011369   
    367. D(H  56,C   5,C   4,H  55)    -86.2260         0.011369   
    368. D(H  56,C   5,C   4,C   3)    151.4624         0.011369   
    369. D(H  57,C   5,C   4,H  54)    155.9174         0.011369   
    370. D(H  56,C   5,C   4,H  54)     33.4947         0.011369   
    371. D(H  57,C   5,C   4,H  55)     36.1967         0.011369   
    372. D(N   6,C   5,C   4,H  54)    -86.1255         0.011369   
    373. D(N   6,C   5,C   4,H  55)    154.1538         0.011369   
    374. D(C   5,N   6,C   2,C   3)      1.1963         0.016792   
    375. D(C   7,N   6,C   5,H  57)    -69.7999         0.014527   
    376. D(C   7,N   6,C   5,H  56)     51.2379         0.014527   
    377. D(C   7,N   6,C   5,C   4)    171.0314         0.014527   
    378. D(C   2,N   6,C   5,H  57)     98.2392         0.014527   
    379. D(C   2,N   6,C   5,H  56)   -140.7230         0.014527   
    380. D(C   7,N   6,C   2,H  51)     51.2309         0.016792   
    381. D(C   2,N   6,C   5,C   4)    -20.9295         0.014527   
    382. D(C   7,N   6,C   2,C   3)    170.3893         0.016792   
    383. D(C   5,N   6,C   2,C   1)    125.2711         0.016792   
    384. D(C   7,N   6,C   2,C   1)    -65.5359         0.016792   
    385. D(C   5,N   6,C   2,H  51)   -117.9620         0.016792   
    386. D(C  24,C   7,N   6,C   5)    -15.8785         0.030481   
    387. D(C  24,C   7,N   6,C   2)    176.6759         0.030481   
    388. D(O   8,C   7,N   6,C   5)    166.7009         0.030481   
    389. D(O   8,C   7,N   6,C   2)     -0.7447         0.030481   
    390. D(H  58,N   9,C   1,O   0)    174.1630         0.030460   
    391. D(C  10,N   9,C   1,C   2)   -161.5008         0.030460   
    392. D(H  58,N   9,C   1,C   2)     -6.7745         0.030460   
    393. D(C  10,N   9,C   1,O   0)     19.4366         0.030460   
    394. D(H  59,C  10,N   9,C   1)     42.3729         0.015371   
    395. D(C  48,C  10,N   9,H  58)      5.6147         0.015371   
    396. D(C  48,C  10,N   9,C   1)    160.5256         0.015371   
    397. D(C  11,C  10,N   9,C   1)    -74.5289         0.015371   
    398. D(H  59,C  10,N   9,H  58)   -112.5380         0.015371   
    399. D(C  11,C  10,N   9,H  58)    130.5602         0.015371   
    400. D(O  47,C  11,C  10,N   9)    169.7045         0.010080   
    401. D(N  12,C  11,C  10,H  59)   -129.3371         0.010080   
    402. D(N  12,C  11,C  10,C  48)    112.9171         0.010080   
    403. D(N  12,C  11,C  10,N   9)    -10.5099         0.010080   
    404. D(O  47,C  11,C  10,H  59)     50.8772         0.010080   
    405. D(O  47,C  11,C  10,C  48)    -66.8686         0.010080   
    406. D(H  60,N  12,C  11,O  47)   -173.0121         0.031332   
    407. D(H  60,N  12,C  11,C  10)      7.2104         0.031332   
    408. D(C  13,N  12,C  11,O  47)     -7.2574         0.031332   
    409. D(C  13,N  12,C  11,C  10)    172.9651         0.031332   
    410. D(H  61,C  13,N  12,C  11)     28.3168         0.016730   
    411. D(H  61,C  13,N  12,H  60)   -165.7785         0.016730   
    412. D(C  45,C  13,N  12,H  60)    -46.2646         0.016730   
    413. D(C  45,C  13,N  12,C  11)    147.8307         0.016730   
    414. D(C  14,C  13,N  12,C  11)    -86.5107         0.016730   
    415. D(C  14,C  13,N  12,H  60)     79.3940         0.016730   
    416. D(O  44,C  14,C  13,C  45)    -47.5916         0.009669   
    417. D(O  44,C  14,C  13,N  12)   -173.5493         0.009669   
    418. D(N  15,C  14,C  13,H  61)   -107.8470         0.009669   
    419. D(N  15,C  14,C  13,C  45)    133.4636         0.009669   
    420. D(O  44,C  14,C  13,H  61)     71.0977         0.009669   
    421. D(N  15,C  14,C  13,N  12)      7.5059         0.009669   
    422. D(H  62,N  15,C  14,O  44)    171.8495         0.032300   
    423. D(H  62,N  15,C  14,C  13)     -9.2317         0.032300   
    424. D(C  16,N  15,C  14,O  44)      5.8518         0.032300   
    425. D(C  16,N  15,C  14,C  13)   -175.2294         0.032300   
    426. D(H  64,C  16,N  15,H  62)     28.9043         0.017638   
    427. D(H  64,C  16,N  15,C  14)   -164.8617         0.017638   
    428. D(H  63,C  16,N  15,H  62)    147.8374         0.017638   
    429. D(H  63,C  16,N  15,C  14)    -45.9285         0.017638   
    430. D(C  17,C  16,N  15,C  14)     74.3634         0.017638   
    431. D(C  17,C  16,N  15,H  62)    -91.8706         0.017638   
    432. D(H  65,C  17,C  16,H  64)    173.3580         0.010740   
    433. D(H  65,C  17,C  16,H  63)     54.5410         0.010740   
    434. D(H  65,C  17,C  16,N  15)    -66.3420         0.010740   
    435. D(O  43,C  17,C  16,H  64)     57.3964         0.010740   
    436. D(O  43,C  17,C  16,H  63)    -61.4206         0.010740   
    437. D(O  43,C  17,C  16,N  15)    177.6964         0.010740   
    438. D(C  18,C  17,C  16,H  64)    -68.3002         0.010740   
    439. D(C  18,C  17,C  16,H  63)    172.8828         0.010740   
    440. D(C  18,C  17,C  16,N  15)     51.9998         0.010740   
    441. D(H  66,C  18,C  17,H  65)    124.5338         0.008590   
    442. D(H  66,C  18,C  17,O  43)   -113.2743         0.008590   
    443. D(H  66,C  18,C  17,C  16)      6.9240         0.008590   
    444. D(C  32,C  18,C  17,O  43)    132.4043         0.008590   
    445. D(C  32,C  18,C  17,C  16)   -107.3974         0.008590   
    446. D(C  32,C  18,C  17,H  65)     10.2124         0.008590   
    447. D(C  19,C  18,C  17,H  65)   -118.2557         0.008590   
    448. D(C  19,C  18,C  17,O  43)      3.9362         0.008590   
    449. D(C  19,C  18,C  17,C  16)    124.1345         0.008590   
    450. D(O  31,C  19,C  18,H  66)    -90.2740         0.010366   
    451. D(O  31,C  19,C  18,C  32)     21.2512         0.010366   
    452. D(O  31,C  19,C  18,C  17)    149.5135         0.010366   
    453. D(N  20,C  19,C  18,H  66)     80.9110         0.010366   
    454. D(N  20,C  19,C  18,C  17)    -39.3014         0.010366   
    455. D(N  20,C  19,C  18,C  32)   -167.5637         0.010366   
    456. D(H  67,N  20,C  19,O  31)   -163.3774         0.031263   
    457. D(H  67,N  20,C  19,C  18)     25.6542         0.031263   
    458. D(C  21,N  20,C  19,O  31)     -0.1417         0.031263   
    459. D(C  21,N  20,C  19,C  18)   -171.1101         0.031263   
    460. D(H  68,C  21,N  20,H  67)    -21.5427         0.015521   
    461. D(H  68,C  21,N  20,C  19)    175.9358         0.015521   
    462. D(C  27,C  21,N  20,H  67)     97.7636         0.015521   
    463. D(C  27,C  21,N  20,C  19)    -64.7579         0.015521   
    464. D(C  22,C  21,N  20,H  67)   -134.8897         0.015521   
    465. D(C  22,C  21,N  20,C  19)     62.5888         0.015521   
    466. D(N  23,C  22,C  21,C  27)    163.5840         0.009124   
    467. D(N  23,C  22,C  21,N  20)     34.8746         0.009124   
    468. D(O  26,C  22,C  21,H  68)     98.7913         0.009124   
    469. D(O  26,C  22,C  21,C  27)    -19.4366         0.009124   
    470. D(O  26,C  22,C  21,N  20)   -148.1460         0.009124   
    471. D(N  23,C  22,C  21,H  68)    -78.1882         0.009124   
    472. D(H  69,N  23,C  22,O  26)    175.7113         0.030875   
    473. D(H  69,N  23,C  22,C  21)     -7.3386         0.030875   
    474. D(C  24,N  23,C  22,O  26)      1.8314         0.030875   
    475. D(C  24,N  23,C  22,C  21)    178.7815         0.030875   
    476. D(H  70,C  24,N  23,H  69)   -151.8569         0.015774   
    477. D(H  70,C  24,N  23,C  22)     22.0134         0.015774   
    478. D(C  25,C  24,N  23,H  69)     89.0770         0.015774   
    479. D(C  25,C  24,N  23,C  22)    -97.0527         0.015774   
    480. D(C   7,C  24,N  23,H  69)    -34.2970         0.015774   
    481. D(C   7,C  24,N  23,C  22)    139.5733         0.015774   
    482. D(H  70,C  24,C   7,O   8)   -134.8096         0.009844   
    483. D(H  70,C  24,C   7,N   6)     47.7896         0.009844   
    484. D(C  25,C  24,C   7,O   8)    -13.1954         0.009844   
    485. D(C  25,C  24,C   7,N   6)    169.4038         0.009844   
    486. D(N  23,C  24,C   7,O   8)    110.5444         0.009844   
    487. D(N  23,C  24,C   7,N   6)    -66.8564         0.009844   
    488. D(H  73,C  25,C  24,H  70)   -179.7025         0.011507   
    489. D(H  73,C  25,C  24,N  23)    -62.9575         0.011507   
    490. D(H  73,C  25,C  24,C   7)     58.3626         0.011507   
    491. D(H  72,C  25,C  24,H  70)     61.0253         0.011507   
    492. D(H  72,C  25,C  24,N  23)    177.7703         0.011507   
    493. D(H  72,C  25,C  24,C   7)    -60.9096         0.011507   
    494. D(H  71,C  25,C  24,H  70)    -58.8321         0.011507   
    495. D(H  71,C  25,C  24,N  23)     57.9129         0.011507   
    496. D(H  71,C  25,C  24,C   7)    179.2330         0.011507   
    497. D(H  75,C  27,C  21,H  68)     84.6201         0.010635   
    498. D(H  75,C  27,C  21,C  22)   -159.2247         0.010635   
    499. D(H  75,C  27,C  21,N  20)    -32.4733         0.010635   
    500. D(H  74,C  27,C  21,H  68)   -159.6455         0.010635   
    501. D(H  74,C  27,C  21,C  22)    -43.4902         0.010635   
    502. D(H  74,C  27,C  21,N  20)     83.2611         0.010635   
    503. D(C  28,C  27,C  21,H  68)    -36.5793         0.010635   
    504. D(C  28,C  27,C  21,C  22)     79.5759         0.010635   
    505. D(C  28,C  27,C  21,N  20)   -153.6727         0.010635   
    506. D(H  76,C  28,C  27,H  75)   -171.6636         0.010514   
    507. D(H  76,C  28,C  27,H  74)     71.1279         0.010514   
    508. D(H  76,C  28,C  27,C  21)    -51.0531         0.010514   
    509. D(C  30,C  28,C  27,H  75)     71.1976         0.010514   
    510. D(C  30,C  28,C  27,H  74)    -46.0109         0.010514   
    511. D(C  30,C  28,C  27,C  21)   -168.1920         0.010514   
    512. D(C  29,C  28,C  27,H  75)    -51.9901         0.010514   
    513. D(C  29,C  28,C  27,H  74)   -169.1986         0.010514   
    514. D(C  29,C  28,C  27,C  21)     68.6204         0.010514   
    515. D(H  79,C  29,C  28,C  30)     58.7510         0.010905   
    516. D(H  79,C  29,C  28,C  27)   -178.5601         0.010905   
    517. D(H  78,C  29,C  28,H  76)   -179.2872         0.010905   
    518. D(H  78,C  29,C  28,C  30)    -60.7327         0.010905   
    519. D(H  78,C  29,C  28,C  27)     61.9562         0.010905   
    520. D(H  77,C  29,C  28,H  76)     60.1133         0.010905   
    521. D(H  77,C  29,C  28,C  30)    178.6678         0.010905   
    522. D(H  79,C  29,C  28,H  76)    -59.8036         0.010905   
    523. D(H  77,C  29,C  28,C  27)    -58.6433         0.010905   
    524. D(H  82,C  30,C  28,H  76)   -177.5504         0.010980   
    525. D(H  82,C  30,C  28,C  29)     63.2990         0.010980   
    526. D(H  82,C  30,C  28,C  27)    -60.7742         0.010980   
    527. D(H  81,C  30,C  28,H  76)     62.7042         0.010980   
    528. D(H  81,C  30,C  28,C  29)    -56.4463         0.010980   
    529. D(H  81,C  30,C  28,C  27)    179.4804         0.010980   
    530. D(H  80,C  30,C  28,H  76)    -57.6398         0.010980   
    531. D(H  80,C  30,C  28,C  29)   -176.7903         0.010980   
    532. D(H  80,C  30,C  28,C  27)     59.1364         0.010980   
    533. D(O  42,C  32,C  18,H  66)    -10.1344         0.010447   
    534. D(O  42,C  32,C  18,C  19)   -119.7763         0.010447   
    535. D(O  42,C  32,C  18,C  17)    106.1689         0.010447   
    536. D(C  33,C  32,C  18,H  66)    170.5945         0.010447   
    537. D(C  33,C  32,C  18,C  19)     60.9526         0.010447   
    538. D(C  33,C  32,C  18,C  17)    -73.1022         0.010447   
    539. D(H  84,C  33,C  32,O  42)     88.7180         0.011358   
    540. D(H  84,C  33,C  32,C  18)    -92.0201         0.011358   
    541. D(H  83,C  33,C  32,O  42)   -158.4287         0.011358   
    542. D(H  83,C  33,C  32,C  18)     20.8332         0.011358   
    543. D(C  34,C  33,C  32,O  42)    -33.0830         0.011358   
    544. D(C  34,C  33,C  32,C  18)    146.1789         0.011358   
    545. D(H  86,C  34,C  33,H  84)    -69.5640         0.011178   
    546. D(H  86,C  34,C  33,H  83)    172.7087         0.011178   
    547. D(H  86,C  34,C  33,C  32)     48.1754         0.011178   
    548. D(H  85,C  34,C  33,H  84)     46.5131         0.011178   
    549. D(H  85,C  34,C  33,H  83)    -71.2142         0.011178   
    550. D(H  85,C  34,C  33,C  32)    164.2525         0.011178   
    551. D(C  35,C  34,C  33,H  84)    169.4154         0.011178   
    552. D(C  35,C  34,C  33,H  83)     51.6881         0.011178   
    553. D(C  35,C  34,C  33,C  32)    -72.8452         0.011178   
    554. D(H  88,C  35,C  34,H  86)    171.4249         0.011110   
    555. D(H  88,C  35,C  34,H  85)     54.0504         0.011110   
    556. D(H  88,C  35,C  34,C  33)    -68.4409         0.011110   
    557. D(H  87,C  35,C  34,H  86)    -72.8243         0.011110   
    558. D(H  87,C  35,C  34,H  85)    169.8013         0.011110   
    559. D(H  87,C  35,C  34,C  33)     47.3099         0.011110   
    560. D(C  36,C  35,C  34,H  86)     48.1988         0.011110   
    561. D(C  36,C  35,C  34,H  85)    -69.1757         0.011110   
    562. D(C  36,C  35,C  34,C  33)    168.3330         0.011110   
    563. D(H  90,C  36,C  35,H  87)     65.9468         0.011273   
    564. D(H  90,C  36,C  35,C  34)    -56.1657         0.011273   
    565. D(H  89,C  36,C  35,H  88)    -63.6421         0.011273   
    566. D(H  89,C  36,C  35,H  87)   -178.4149         0.011273   
    567. D(H  89,C  36,C  35,C  34)     59.4726         0.011273   
    568. D(C  37,C  36,C  35,H  88)     59.8062         0.011273   
    569. D(C  37,C  36,C  35,H  87)    -54.9666         0.011273   
    570. D(H  90,C  36,C  35,H  88)   -179.2804         0.011273   
    571. D(C  37,C  36,C  35,C  34)   -177.0791         0.011273   
    572. D(H  92,C  37,C  36,H  90)    173.2730         0.011097   
    573. D(H  92,C  37,C  36,H  89)     57.4438         0.011097   
    574. D(H  92,C  37,C  36,C  35)    -66.1414         0.011097   
    575. D(H  91,C  37,C  36,H  90)    -71.6257         0.011097   
    576. D(H  91,C  37,C  36,H  89)    172.5450         0.011097   
    577. D(H  91,C  37,C  36,C  35)     48.9599         0.011097   
    578. D(C  38,C  37,C  36,H  90)     50.6026         0.011097   
    579. D(C  38,C  37,C  36,H  89)    -65.2267         0.011097   
    580. D(C  38,C  37,C  36,C  35)    171.1882         0.011097   
    581. D(H  94,C  38,C  37,H  92)   -179.9273         0.011184   
    582. D(H  94,C  38,C  37,H  91)     64.5445         0.011184   
    583. D(H  94,C  38,C  37,C  36)    -57.3041         0.011184   
    584. D(H  93,C  38,C  37,H  92)    -64.4227         0.011184   
    585. D(H  93,C  38,C  37,H  91)   -179.9509         0.011184   
    586. D(H  93,C  38,C  37,C  36)     58.2005         0.011184   
    587. D(C  39,C  38,C  37,H  92)     58.2807         0.011184   
    588. D(C  39,C  38,C  37,H  91)    -57.2475         0.011184   
    589. D(C  39,C  38,C  37,C  36)   -179.0961         0.011184   
    590. D(H  95,C  39,C  38,H  94)    -65.4117         0.011147   
    591. D(H  95,C  39,C  38,H  93)    179.1779         0.011147   
    592. D(H  95,C  39,C  38,C  37)     56.3063         0.011147   
    593. D(C  40,C  39,C  38,H  94)     56.8880         0.011147   
    594. D(C  40,C  39,C  38,H  93)    -58.5224         0.011147   
    595. D(C  40,C  39,C  38,C  37)    178.6060         0.011147   
    596. D(H  96,C  39,C  38,H  94)    179.2514         0.011147   
    597. D(H  96,C  39,C  38,H  93)     63.8410         0.011147   
    598. D(H  96,C  39,C  38,C  37)    -59.0306         0.011147   
    599. D(H  98,C  40,C  39,H  95)     64.5886         0.011080   
    600. D(H  98,C  40,C  39,C  38)    -57.6178         0.011080   
    601. D(H  97,C  40,C  39,H  96)    -64.6807         0.011080   
    602. D(H  97,C  40,C  39,H  95)    179.9249         0.011080   
    603. D(H  97,C  40,C  39,C  38)     57.7184         0.011080   
    604. D(C  41,C  40,C  39,H  96)     57.7109         0.011080   
    605. D(C  41,C  40,C  39,H  95)    -57.6835         0.011080   
    606. D(H  98,C  40,C  39,H  96)    179.9830         0.011080   
    607. D(C  41,C  40,C  39,C  38)   -179.8900         0.011080   
    608. D(H 101,C  41,C  40,H  98)    -62.3800         0.011150   
    609. D(H 101,C  41,C  40,H  97)   -178.2596         0.011150   
    610. D(H 101,C  41,C  40,C  39)     59.6031         0.011150   
    611. D(H 100,C  41,C  40,H  98)    178.1441         0.011150   
    612. D(H 100,C  41,C  40,H  97)     62.2645         0.011150   
    613. D(H 100,C  41,C  40,C  39)    -59.8727         0.011150   
    614. D(H  99,C  41,C  40,H  98)     57.8858         0.011150   
    615. D(H  99,C  41,C  40,H  97)    -57.9938         0.011150   
    616. D(H  99,C  41,C  40,C  39)    179.8690         0.011150   
    617. D(H 102,O  43,C  17,H  65)     35.1418         0.016793   
    618. D(H 102,O  43,C  17,C  18)    -87.0048         0.016793   
    619. D(H 102,O  43,C  17,C  16)    150.2294         0.016793   
    620. D(H 104,C  45,C  13,H  61)    176.4188         0.010962   
    621. D(H 104,C  45,C  13,C  14)    -67.6812         0.010962   
    622. D(H 104,C  45,C  13,N  12)     59.1112         0.010962   
    623. D(H 103,C  45,C  13,H  61)    -68.7292         0.010962   
    624. D(H 103,C  45,C  13,C  14)     47.1708         0.010962   
    625. D(H 103,C  45,C  13,N  12)    173.9633         0.010962   
    626. D(C  46,C  45,C  13,H  61)     53.1490         0.010962   
    627. D(C  46,C  45,C  13,C  14)    169.0490         0.010962   
    628. D(C  46,C  45,C  13,N  12)    -64.1585         0.010962   
    629. D(H 107,C  46,C  45,H 104)    -62.4347         0.011370   
    630. D(H 107,C  46,C  45,H 103)    179.4523         0.011370   
    631. D(H 107,C  46,C  45,C  13)     59.7320         0.011370   
    632. D(H 106,C  46,C  45,H 104)    177.5749         0.011370   
    633. D(H 106,C  46,C  45,H 103)     59.4619         0.011370   
    634. D(H 106,C  46,C  45,C  13)    -60.2584         0.011370   
    635. D(H 105,C  46,C  45,H 104)     57.6710         0.011370   
    636. D(H 105,C  46,C  45,H 103)    -60.4420         0.011370   
    637. D(H 105,C  46,C  45,C  13)    179.8376         0.011370   
    638. D(H 108,C  48,C  10,H  59)     73.1172         0.009568   
    639. D(H 108,C  48,C  10,C  11)   -171.6642         0.009568   
    640. D(H 108,C  48,C  10,N   9)    -44.5803         0.009568   
    641. D(C  50,C  48,C  10,H  59)    -43.2613         0.009568   
    642. D(C  50,C  48,C  10,C  11)     71.9572         0.009568   
    643. D(C  50,C  48,C  10,N   9)   -160.9589         0.009568   
    644. D(C  49,C  48,C  10,H  59)   -169.3337         0.009568   
    645. D(C  49,C  48,C  10,C  11)    -54.1151         0.009568   
    646. D(C  49,C  48,C  10,N   9)     72.9688         0.009568   
    647. D(H 111,C  49,C  48,C  50)     60.3813         0.010835   
    648. D(H 111,C  49,C  48,C  10)   -173.1351         0.010835   
    649. D(H 110,C  49,C  48,H 108)   -176.9418         0.010835   
    650. D(H 110,C  49,C  48,C  50)    -58.8500         0.010835   
    651. D(H 110,C  49,C  48,C  10)     67.6336         0.010835   
    652. D(H 109,C  49,C  48,H 108)     62.6780         0.010835   
    653. D(H 109,C  49,C  48,C  50)   -179.2302         0.010835   
    654. D(H 111,C  49,C  48,H 108)    -57.7105         0.010835   
    655. D(H 109,C  49,C  48,C  10)    -52.7466         0.010835   
    656. D(H 114,C  50,C  48,H 108)   -178.2611         0.011113   
    657. D(H 114,C  50,C  48,C  49)     62.9366         0.011113   
    658. D(H 114,C  50,C  48,C  10)    -63.2840         0.011113   
    659. D(H 113,C  50,C  48,H 108)     61.2804         0.011113   
    660. D(H 113,C  50,C  48,C  49)    -57.5219         0.011113   
    661. D(H 113,C  50,C  48,C  10)    176.2575         0.011113   
    662. D(H 112,C  50,C  48,H 108)    -58.4034         0.011113   
    663. D(H 112,C  50,C  48,C  49)   -177.2056         0.011113   
    664. D(H 112,C  50,C  48,C  10)     56.5737         0.011113   
    -----------------------------------------------------------------

Number of atoms                         .... 115
Number of degrees of freedom            .... 664

         *************************************************************
         *                GEOMETRY OPTIMIZATION CYCLE   1            *
         *************************************************************
---------------------------------
CARTESIAN COORDINATES (ANGSTROEM)
---------------------------------
  O      3.122758   -0.418993   -0.075776
  C      3.313702   -1.000444    0.994710
  C      3.474566   -0.300868    2.361397
  C      2.221401   -0.387133    3.270365
  C      1.580742    1.005083    3.170615
  C      2.762580    1.951290    2.970516
  N      3.721032    1.124025    2.217910
  C      4.883843    1.529976    1.630027
  O      5.725875    0.719083    1.235179
  N      3.385599   -2.359490    1.097628
  C      3.655136   -3.259151   -0.026931
  C      2.479681   -3.451174   -0.995401
  N      1.269766   -2.963030   -0.606982
  C      0.133300   -2.959858   -1.513362
  C      0.083234   -1.707755   -2.410668
  N      1.159003   -0.882069   -2.350724
  C      1.170487    0.371212   -3.072962
  C      0.274346    1.418536   -2.396689
  C      0.633513    1.555405   -0.875902
  C      1.012007    2.918875   -0.291412
  N      1.790418    3.711983   -1.078094
  C      2.381197    4.951431   -0.570617
  C      3.363974    4.653794    0.590302
  N      4.057472    3.487831    0.457280
  C      5.049590    3.047257    1.436022
  C      6.471453    3.407532    1.017338
  O      3.539455    5.438241    1.519887
  C      1.356496    6.031304   -0.189084
  C      1.893423    7.470516   -0.273939
  C      2.161467    7.900940   -1.720797
  C      0.906220    8.429912    0.398692
  O      0.759022    3.188398    0.886598
  C     -0.473555    0.918738   -0.033569
  C     -1.795102    1.657169    0.075128
  C     -2.999677    0.719230    0.168941
  C     -3.306969    0.039699   -1.167485
  C     -4.311267   -1.107588   -1.062877
  C     -4.543937   -1.812471   -2.401439
  C     -5.375581   -3.090391   -2.280607
  C     -5.588509   -3.805202   -3.616455
  C     -6.391638   -5.102938   -3.496833
  C     -6.595459   -5.809500   -4.838427
  O     -0.291801   -0.158580    0.518867
  O      0.417276    2.623738   -3.176083
  O     -0.883945   -1.499288   -3.150020
  C     -1.186997   -3.144085   -0.757672
  C     -1.289463   -4.501690   -0.065982
  O      2.660445   -4.030377   -2.066849
  C      4.141197   -4.619205    0.542078
  C      2.993522   -5.409961    1.183088
  C      4.880136   -5.454394   -0.506030
  H      4.348018   -0.777736    2.838564
  H      2.538785   -0.602022    4.300840
  H      1.536450   -1.185160    2.956555
  H      0.924064    1.060507    2.296613
  H      0.987796    1.262465    4.057113
  H      2.475066    2.843826    2.406143
  H      3.205722    2.261503    3.933344
  H      3.637705   -2.724291    2.013308
  H      4.458269   -2.817762   -0.639239
  H      1.209422   -2.401627    0.239904
  H      0.289694   -3.804864   -2.203321
  H      1.873518   -1.030792   -1.635400
  H      0.809244    0.209803   -4.096762
  H      2.203602    0.744266   -3.114272
  H     -0.765558    1.065498   -2.481189
  H      1.535489    0.952142   -0.675396
  H      1.723412    3.547193   -2.084779
  H      3.006873    5.328475   -1.396011
  H      3.809451    2.859629   -0.302661
  H      4.797609    3.575662    2.369237
  H      6.544304    4.493580    0.876388
  H      7.188693    3.099554    1.789545
  H      6.742225    2.895609    0.085557
  H      0.996810    5.823851    0.826571
  H      0.492171    5.931813   -0.867957
  H      2.838633    7.503707    0.290678
  H      2.885866    7.246927   -2.229656
  H      1.229932    7.890331   -2.310140
  H      2.568207    8.921808   -1.758756
  H      0.752426    8.161414    1.453532
  H      1.269843    9.467200    0.360854
  H     -0.074130    8.401051   -0.104641
  H     -1.900212    2.367213   -0.762281
  H     -1.692397    2.281382    0.979011
  H     -3.878164    1.280311    0.523854
  H     -2.780574   -0.044623    0.931154
  H     -2.378187   -0.363639   -1.603307
  H     -3.675328    0.792423   -1.887592
  H     -5.270344   -0.741517   -0.655762
  H     -3.930859   -1.840865   -0.329955
  H     -3.565875   -2.050259   -2.853820
  H     -5.036758   -1.116253   -3.102731
  H     -6.356055   -2.856063   -1.828812
  H     -4.875738   -3.779788   -1.576480
  H     -4.606233   -4.023981   -4.070925
  H     -6.100229   -3.123246   -4.318638
  H     -7.372170   -4.881946   -3.041223
  H     -5.877694   -5.782016   -2.795016
  H     -7.172363   -6.738670   -4.724910
  H     -7.136432   -5.164298   -5.547488
  H     -5.630176   -6.068818   -5.299431
  H     -0.410913    3.129174   -3.117388
  H     -1.994298   -3.021073   -1.491410
  H     -1.294784   -2.325600   -0.028136
  H     -2.245557   -4.597560    0.467100
  H     -1.225602   -5.322867   -0.795466
  H     -0.481153   -4.644286    0.665944
  H      4.871541   -4.356663    1.330407
  H      2.441788   -4.820015    1.930416
  H      2.274071   -5.735200    0.417679
  H      3.379906   -6.307890    1.684490
  H      5.731609   -4.900882   -0.926518
  H      5.264335   -6.376303   -0.046167
  H      4.212530   -5.721326   -1.334315

----------------------------
CARTESIAN COORDINATES (A.U.)
----------------------------
  NO LB      ZA    FRAG     MASS         X           Y           Z
   0 O     8.0000    0    15.999    5.901157   -0.791782   -0.143195
   1 C     6.0000    0    12.011    6.261990   -1.890565    1.879730
   2 C     6.0000    0    12.011    6.565977   -0.568558    4.462393
   3 C     6.0000    0    12.011    4.197839   -0.731575    6.180094
   4 C     6.0000    0    12.011    2.987170    1.899333    5.991595
   5 C     6.0000    0    12.011    5.220519    3.687404    5.613462
   6 N     7.0000    0    14.007    7.031731    2.124100    4.191243
   7 C     6.0000    0    12.011    9.229125    2.891236    3.080304
   8 O     8.0000    0    15.999   10.820337    1.358869    2.334150
   9 N     7.0000    0    14.007    6.397855   -4.458790    2.074217
  10 C     6.0000    0    12.011    6.907206   -6.158902   -0.050892
  11 C     6.0000    0    12.011    4.685919   -6.521773   -1.881035
  12 N     7.0000    0    14.007    2.399510   -5.599315   -1.147030
  13 C     6.0000    0    12.011    0.251901   -5.593321   -2.859839
  14 C     6.0000    0    12.011    0.157290   -3.227189   -4.555502
  15 N     7.0000    0    14.007    2.190198   -1.666868   -4.442224
  16 C     6.0000    0    12.011    2.211899    0.701489   -5.807057
  17 C     6.0000    0    12.011    0.518438    2.680644   -4.529086
  18 C     6.0000    0    12.011    1.197165    2.939289   -1.655214
  19 C     6.0000    0    12.011    1.912416    5.515874   -0.550689
  20 N     7.0000    0    14.007    3.383400    7.014632   -2.037302
  21 C     6.0000    0    12.011    4.499811    9.356848   -1.078310
  22 C     6.0000    0    12.011    6.356990    8.794396    1.115509
  23 N     7.0000    0    14.007    7.667511    6.591045    0.864134
  24 C     6.0000    0    12.011    9.542341    5.758481    2.713688
  25 C     6.0000    0    12.011   12.229275    6.439302    1.922489
  26 O     8.0000    0    15.999    6.688601   10.276787    2.872169
  27 C     6.0000    0    12.011    2.563406   11.397513   -0.357318
  28 C     6.0000    0    12.011    3.578052   14.117229   -0.517670
  29 C     6.0000    0    12.011    4.084580   14.930613   -3.251835
  30 C     6.0000    0    12.011    1.712508   15.930226    0.753420
  31 O     8.0000    0    15.999    1.434344    6.025200    1.675427
  32 C     6.0000    0    12.011   -0.894889    1.736164   -0.063437
  33 C     6.0000    0    12.011   -3.392251    3.131595    0.141972
  34 C     6.0000    0    12.011   -5.668568    1.359148    0.319252
  35 C     6.0000    0    12.011   -6.249266    0.075020   -2.206226
  36 C     6.0000    0    12.011   -8.147115   -2.093038   -2.008547
  37 C     6.0000    0    12.011   -8.586796   -3.425074   -4.538063
  38 C     6.0000    0    12.011  -10.158376   -5.839993   -4.309723
  39 C     6.0000    0    12.011  -10.560751   -7.190790   -6.834109
  40 C     6.0000    0    12.011  -12.078446   -9.643154   -6.608056
  41 C     6.0000    0    12.011  -12.463611  -10.978364   -9.143303
  42 O     8.0000    0    15.999   -0.551424   -0.299674    0.980517
  43 O     8.0000    0    15.999    0.788537    4.958146   -6.001928
  44 O     8.0000    0    15.999   -1.670413   -2.833244   -5.952676
  45 C     6.0000    0    12.011   -2.243099   -5.941459   -1.431793
  46 C     6.0000    0    12.011   -2.436731   -8.506962   -0.124687
  47 O     8.0000    0    15.999    5.027512   -7.616308   -3.905779
  48 C     6.0000    0    12.011    7.825728   -8.729032    1.024378
  49 C     6.0000    0    12.011    5.656937  -10.223345    2.235712
  50 C     6.0000    0    12.011    9.222120  -10.307311   -0.956258
  51 H     1.0000    0     1.008    8.216563   -1.469707    5.364109
  52 H     1.0000    0     1.008    4.797608   -1.137656    8.127409
  53 H     1.0000    0     1.008    2.903470   -2.239629    5.587080
  54 H     1.0000    0     1.008    1.746229    2.004067    4.339969
  55 H     1.0000    0     1.008    1.866663    2.385714    7.666832
  56 H     1.0000    0     1.008    4.677198    5.374052    4.546952
  57 H     1.0000    0     1.008    6.057937    4.273622    7.432942
  58 H     1.0000    0     1.008    6.874267   -5.148165    3.804600
  59 H     1.0000    0     1.008    8.424907   -5.324799   -1.207986
  60 H     1.0000    0     1.008    2.285477   -4.538417    0.453352
  61 H     1.0000    0     1.008    0.547441   -7.190151   -4.163674
  62 H     1.0000    0     1.008    3.540437   -1.947914   -3.090457
  63 H     1.0000    0     1.008    1.529249    0.396470   -7.741758
  64 H     1.0000    0     1.008    4.164204    1.406459   -5.885120
  65 H     1.0000    0     1.008   -1.446696    2.013499   -4.688767
  66 H     1.0000    0     1.008    2.901653    1.799288   -1.276314
  67 H     1.0000    0     1.008    3.256777    6.703222   -3.939661
  68 H     1.0000    0     1.008    5.682167   10.069358   -2.638079
  69 H     1.0000    0     1.008    7.198819    5.403916   -0.571947
  70 H     1.0000    0     1.008    9.066167    6.757021    4.477209
  71 H     1.0000    0     1.008   12.366942    8.491635    1.656134
  72 H     1.0000    0     1.008   13.584661    5.857308    3.381749
  73 H     1.0000    0     1.008   12.740960    5.471908    0.161680
  74 H     1.0000    0     1.008    1.883697   11.005484    1.561992
  75 H     1.0000    0     1.008    0.930068   11.209503   -1.640201
  76 H     1.0000    0     1.008    5.364238   14.179951    0.549302
  77 H     1.0000    0     1.008    5.453496   13.694707   -4.213440
  78 H     1.0000    0     1.008    2.324236   14.910564   -4.365531
  79 H     1.0000    0     1.008    4.853208   16.859774   -3.323567
  80 H     1.0000    0     1.008    1.421880   15.422837    2.746777
  81 H     1.0000    0     1.008    2.399656   17.890416    0.681916
  82 H     1.0000    0     1.008   -0.140085   15.875687   -0.197743
  83 H     1.0000    0     1.008   -3.590881    4.473383   -1.440503
  84 H     1.0000    0     1.008   -3.198168    4.311187    1.850062
  85 H     1.0000    0     1.008   -7.328668    2.419437    0.989940
  86 H     1.0000    0     1.008   -5.254523   -0.084325    1.759625
  87 H     1.0000    0     1.008   -4.494123   -0.687179   -3.029811
  88 H     1.0000    0     1.008   -6.945364    1.497462   -3.567032
  89 H     1.0000    0     1.008   -9.959506   -1.401264   -1.239210
  90 H     1.0000    0     1.008   -7.428247   -3.478731   -0.623524
  91 H     1.0000    0     1.008   -6.738527   -3.874428   -5.392938
  92 H     1.0000    0     1.008   -9.518093   -2.109412   -5.863311
  93 H     1.0000    0     1.008  -12.011203   -5.397177   -3.455954
  94 H     1.0000    0     1.008   -9.213809   -7.142765   -2.979115
  95 H     1.0000    0     1.008   -8.704519   -7.604221   -7.692933
  96 H     1.0000    0     1.008  -11.527761   -5.902080   -8.161044
  97 H     1.0000    0     1.008  -13.931383   -9.225542   -5.747079
  98 H     1.0000    0     1.008  -11.107232  -10.926427   -5.281815
  99 H     1.0000    0     1.008  -13.553802  -12.734241   -8.928786
 100 H     1.0000    0     1.008  -13.485903   -9.759109  -10.483233
 101 H     1.0000    0     1.008  -10.639491  -11.468403  -10.014473
 102 H     1.0000    0     1.008   -0.776513    5.913282   -5.891009
 103 H     1.0000    0     1.008   -3.768677   -5.709000   -2.818357
 104 H     1.0000    0     1.008   -2.446788   -4.394746   -0.053169
 105 H     1.0000    0     1.008   -4.243487   -8.688130    0.882691
 106 H     1.0000    0     1.008   -2.316052  -10.058761   -1.503214
 107 H     1.0000    0     1.008   -0.909248   -8.776429    1.258453
 108 H     1.0000    0     1.008    9.205878   -8.232899    2.514105
 109 H     1.0000    0     1.008    4.614311   -9.108508    3.647958
 110 H     1.0000    0     1.008    4.297371  -10.837957    0.789298
 111 H     1.0000    0     1.008    6.387097  -11.920185    3.183224
 112 H     1.0000    0     1.008   10.831171   -9.261325   -1.750864
 113 H     1.0000    0     1.008    9.948151  -12.049466   -0.087243
 114 H     1.0000    0     1.008    7.960527  -10.811739   -2.521490

--------------------------------
INTERNAL COORDINATES (ANGSTROEM)
--------------------------------
 O      0   0   0     0.000000000000     0.00000000     0.00000000
 C      1   0   0     1.233079183955     0.00000000     0.00000000
 C      2   1   0     1.543734140262   124.82147005     0.00000000
 C      3   2   1     1.550511697663   114.17782215   103.60314909
 C      4   3   2     1.535792711062   104.39716923   256.38523661
 C      5   4   3     1.527116904332   104.32103169   328.27613436
 N      3   2   1     1.453153079677   112.00052010   345.15326842
 C      7   3   2     1.364746475009   118.60160640   294.46411456
 O      8   7   3     1.233884796071   121.58824064   359.25526795
 N      2   1   3     1.364832429244   122.89940186   178.94327263
 C     10   2   1     1.465152833109   124.28076850    19.43664535
 C     11  10   2     1.535089610776   114.84552100   285.47111226
 N     12  11  10     1.361267444123   117.11100673   349.49011043
 C     13  12  11     1.453646434558   121.18134523   172.96507055
 C     14  13  12     1.541241979334   112.96575673   273.48931210
 N     15  14  13     1.357434709463   116.27654649     7.50594255
 C     16  15  14     1.446537968446   120.74699913   184.77060722
 C     17  16  15     1.535350706357   111.49696502    74.36344960
 C     18  17  16     1.568606854988   110.66577383    51.99979353
 C     19  18  17     1.530992263715   120.29469137   124.13450994
 N     20  19  18     1.361548004008   116.07351419   320.69858549
 C     21  20  19     1.463824746814   121.57714487   188.88989954
 C     22  21  20     1.549893761022   110.66988746    62.58880564
 N     23  22  21     1.363123426492   114.44156822    34.87459983
 C     24  23  22     1.461621232625   122.53514693   178.78150452
 C     25  24  23     1.525382284090   112.19269782   262.94725911
 O     23  22  21     1.228933856140   122.31285158   211.85403556
 C     22  21  20     1.536784198876   114.32677459   295.24209163
 C     28  22  21     1.538447563746   114.26475013   206.32728884
 C     29  28  22     1.533137320294   112.06807983    68.62035735
 C     29  28  22     1.532137582744   109.67600757   191.80804277
 O     20  19  18     1.234646003678   120.53175049   149.51352099
 C     19  18  17     1.529858428908   109.37833249   252.60259602
 C     33  19  18     1.517755104466   117.84299296   286.89778259
 C     34  33  19     1.529552597054   113.06492466   146.17886503
 C     35  34  33     1.530432812694   112.13821874   287.15479293
 C     36  35  34     1.528340509627   113.92130645   168.33297301
 C     37  36  35     1.530602481204   112.68954927   182.92092409
 C     38  37  36     1.529480932549   113.47487246   171.18820296
 C     39  38  37     1.529961328551   113.39448851   180.90391241
 C     40  39  38     1.530831043547   113.63164523   178.60601665
 C     41  40  39     1.529918222137   113.13376840   180.10999478
 O     33  19  18     1.224269896628   120.47923411   106.16888984
 O     18  17  16     1.442358058885   105.91015886   177.69641779
 O     15  14  13     1.235125893000   120.73454139   186.45072585
 C     14  13  12     1.532380637803   111.45993241   147.83073034
 C     46  14  13     1.527097813334   112.83381277   295.84148341
 O     12  11  10     1.231322010399   119.69637919   169.70446195
 C     11  10   2     1.552344451959   108.31495022   160.52563279
 C     49  11  10     1.534062721363   111.74815804    72.96875169
 C     49  11  10     1.530392537271   112.22747032   199.04110440
 H      3   2   1     1.103635535183   105.63058695   226.13895749
 H      4   3   2     1.099449163015   109.08793572   137.66962594
 H      4   3   2     1.097488803280   112.16344809    18.28671453
 H      5   4   3     1.094613077140   110.36597726    85.41643402
 H      5   4   3     1.097136831126   112.68297287   206.24417676
 H      6   5   4     1.094440910551   111.68847639   151.46239703
 H      6   5   4     1.104374853771   111.73677932   273.88515194
 H     10   2   1     1.017402019597   115.97396787   174.16297867
 H     11  10   2     1.102164401734   108.33374362    42.37294282
 H     13  12  11     1.017855772904   119.20173253     7.21042707
 H     14  13  12     1.102061274443   106.12565593    28.31684853
 H     16  15  14     1.021929509370   119.76813107   350.76831073
 H     17  16  15     1.097595564222   109.61482617   314.07149171
 H     17  16  15     1.099182905162   108.67957908   195.13834649
 H     18  17  16     1.101443021894   107.37522748   293.65798773
 H     19  18  17     1.103489479733   108.39820782     6.92404953
 H     21  20  19     1.022281750997   115.95068338    25.65421869
 H     22  21  20     1.102228844290   105.01826799   175.93576502
 H     24  23  22     1.016692346580   118.51237764   352.66140016
 H     25  24  23     1.101633477680   105.51040667    22.01337785
 H     26  25  24     1.097576268163   109.31876526    57.91286201
 H     26  25  24     1.097992158785   110.46355878   177.77028825
 H     26  25  24     1.097085728005   110.66919314   297.04245464
 H     28  22  21     1.097253945028   108.39257852    83.26112540
 H     28  22  21     1.103550920436   107.82806714   327.52668849
 H     29  28  22     1.101505755435   107.42161132   308.94685656
 H     30  29  28     1.100647960048   112.61607484   301.35669375
 H     30  29  28     1.102357882066   110.73773103    61.95619981
 H     30  29  28     1.099567970655   110.97156053   181.43987475
 H     31  29  28     1.099285970865   111.00594615    59.13638445
 H     31  29  28     1.099827177990   111.25034595   179.48040402
 H     31  29  28     1.102389686570   110.86450716   299.22576952
 H     34  33  19     1.102934903622   109.98780938    20.83320468
 H     34  33  19     1.103264684654   104.64853704   267.97987085
 H     35  34  33     1.101141929041   109.60919541   164.25246122
 H     35  34  33     1.101111177483   108.12800085    48.17535239
 H     36  35  34     1.102387799223   109.78637911    47.30994996
 H     36  35  34     1.104914717906   109.48554878   291.55908423
 H     37  36  35     1.104345301435   110.30847120    59.47262102
 H     37  36  35     1.104346593593   108.51262381   303.83430148
 H     38  37  36     1.103537641765   108.84499185    48.95986429
 H     38  37  36     1.104265421147   109.44376624   293.85863414
 H     39  38  37     1.104697621981   109.73543460    58.20052177
 H     39  38  37     1.104946769981   109.00629080   302.69590114
 H     40  39  38     1.104206881386   109.15508648    56.30634930
 H     40  39  38     1.104528654829   109.33478705   300.96943177
 H     41  40  39     1.103567052483   109.18665330    57.71844747
 H     41  40  39     1.103554750490   109.08799386   302.38216410
 H     42  41  40     1.099573308158   111.69260461   179.86896913
 H     42  41  40     1.100774651447   111.07771420   300.12726345
 H     42  41  40     1.100699918159   111.05375889    59.60314172
 H     44  18  17     0.972012286263   108.50749328   150.22937077
 H     46  14  13     1.097833616013   106.88891210   173.96329718
 H     46  14  13     1.101707513161   108.75579777    59.11124113
 H     47  46  14     1.098855348234   110.83497056   179.83764849
 H     47  46  14     1.100253485711   111.05790164   299.74156027
 H     47  46  14     1.099733420668   111.55608165    59.73197118
 H     49  11  10     1.106251918717   105.06980367   315.41966596
 H     50  49  11     1.100430308721   112.49019977   307.25338672
 H     50  49  11     1.099655228446   110.55319025    67.63359298
 H     50  49  11     1.098623101064   110.41941608   186.86487901
 H     51  49  11     1.099177621285   111.17443520    56.57371845
 H     51  49  11     1.099544709191   109.86788159   176.25745053
 H     51  49  11     1.096816690613   110.86143017   296.71600461

---------------------------
INTERNAL COORDINATES (A.U.)
---------------------------
 O      0   0   0     0.000000000000     0.00000000     0.00000000
 C      1   0   0     2.330181959114     0.00000000     0.00000000
 C      2   1   0     2.917234748680   124.82147005     0.00000000
 C      3   2   1     2.930042476025   114.17782215   103.60314909
 C      4   3   2     2.902227622379   104.39716923   256.38523661
 C      5   4   3     2.885832723670   104.32103169   328.27613436
 N      3   2   1     2.746061351254   112.00052010   345.15326842
 C      7   3   2     2.578997080002   118.60160640   294.46411456
 O      8   7   3     2.331704345384   121.58824064   359.25526795
 N      2   1   3     2.579159509966   122.89940186   178.94327263
 C     10   2   1     2.768737598914   124.28076850    19.43664535
 C     11  10   2     2.900898955395   114.84552100   285.47111226
 N     12  11  10     2.572422664415   117.11100673   349.49011043
 C     13  12  11     2.746993656865   121.18134523   172.96507055
 C     14  13  12     2.912525247044   112.96575673   273.48931210
 N     15  14  13     2.565179845564   116.27654649     7.50594255
 C     16  15  14     2.733560602682   120.74699913   184.77060722
 C     17  16  15     2.901392354537   111.49696502    74.36344960
 C     18  17  16     2.964237367719   110.66577383    51.99979353
 C     19  18  17     2.893156091573   120.29469137   124.13450994
 N     20  19  18     2.572952845763   116.07351419   320.69858549
 C     21  20  19     2.766227879535   121.57714487   188.88989954
 C     22  21  20     2.928874745006   110.66988746    62.58880564
 N     23  22  21     2.575929962802   114.44156822    34.87459983
 C     24  23  22     2.762063841186   122.53514693   178.78150452
 C     25  24  23     2.882554766466   112.19269782   262.94725911
 O     23  22  21     2.322348424808   122.31285158   211.85403556
 C     22  21  20     2.904101262813   114.32677459   295.24209163
 C     28  22  21     2.907244566879   114.26475013   206.32728884
 C     29  28  22     2.897209661049   112.06807983    68.62035735
 C     29  28  22     2.895320430873   109.67600757   191.80804277
 O     20  19  18     2.333142819291   120.53175049   149.51352099
 C     19  18  17     2.891013454307   109.37833249   252.60259602
 C     33  19  18     2.868141485803   117.84299296   286.89778259
 C     34  33  19     2.890435515860   113.06492466   146.17886503
 C     35  34  33     2.892098882358   112.13821874   287.15479293
 C     36  35  34     2.888145002572   113.92130645   168.33297301
 C     37  36  35     2.892419509375   112.68954927   182.92092409
 C     38  37  36     2.890300089573   113.47487246   171.18820296
 C     39  38  37     2.891207906452   113.39448851   180.90391241
 C     40  39  38     2.892851429609   113.63164523   178.60601665
 C     41  40  39     2.891126447134   113.13376840   180.10999478
 O     33  19  18     2.313534818632   120.47923411   106.16888984
 O     18  17  16     2.725661718348   105.91015886   177.69641779
 O     15  14  13     2.334049678684   120.73454139   186.45072585
 C     14  13  12     2.895779738372   111.45993241   147.83073034
 C     46  14  13     2.885796646912   112.83381277   295.84148341
 O     12  11  10     2.326861382323   119.69637919   169.70446195
 C     11  10   2     2.933505879715   108.31495022   160.52563279
 C     49  11  10     2.898958415635   111.74815804    72.96875169
 C     49  11  10     2.892022772840   112.22747032   199.04110440
 H      3   2   1     2.085568913160   105.63058695   226.13895749
 H      4   3   2     2.077657816268   109.08793572   137.66962594
 H      4   3   2     2.073953273244   112.16344809    18.28671453
 H      5   4   3     2.068518938403   110.36597726    85.41643402
 H      5   4   3     2.073288142267   112.68297287   206.24417676
 H      6   5   4     2.068193590701   111.68847639   151.46239703
 H      6   5   4     2.086966022816   111.73677932   273.88515194
 H     10   2   1     1.922611185137   115.97396787   174.16297867
[...]
freq.      79.87  E(vib)   ...       0.49 
freq.      95.89  E(vib)   ...       0.47 
freq.      97.44  E(vib)   ...       0.46 
freq.     105.12  E(vib)   ...       0.45 
freq.     111.31  E(vib)   ...       0.45 
freq.     116.51  E(vib)   ...       0.44 
freq.     121.33  E(vib)   ...       0.44 
freq.     123.17  E(vib)   ...       0.43 
freq.     132.73  E(vib)   ...       0.42 
freq.     134.17  E(vib)   ...       0.42 
freq.     135.95  E(vib)   ...       0.42 
freq.     139.60  E(vib)   ...       0.42 
freq.     149.57  E(vib)   ...       0.40 
freq.     150.31  E(vib)   ...       0.40 
freq.     155.75  E(vib)   ...       0.40 
freq.     158.82  E(vib)   ...       0.39 
freq.     161.29  E(vib)   ...       0.39 
freq.     169.15  E(vib)   ...       0.38 
freq.     170.64  E(vib)   ...       0.38 
freq.     183.84  E(vib)   ...       0.37 
freq.     189.78  E(vib)   ...       0.36 
freq.     199.01  E(vib)   ...       0.35 
freq.     203.22  E(vib)   ...       0.35 
freq.     213.69  E(vib)   ...       0.34 
freq.     216.00  E(vib)   ...       0.34 
freq.     219.51  E(vib)   ...       0.33 
freq.     222.25  E(vib)   ...       0.33 
freq.     226.07  E(vib)   ...       0.33 
freq.     228.65  E(vib)   ...       0.32 
freq.     232.70  E(vib)   ...       0.32 
freq.     237.30  E(vib)   ...       0.32 
freq.     238.93  E(vib)   ...       0.32 
freq.     243.15  E(vib)   ...       0.31 
freq.     249.91  E(vib)   ...       0.31 
freq.     252.41  E(vib)   ...       0.30 
freq.     263.54  E(vib)   ...       0.29 
freq.     270.69  E(vib)   ...       0.29 
freq.     274.65  E(vib)   ...       0.28 
freq.     281.17  E(vib)   ...       0.28 
freq.     286.68  E(vib)   ...       0.27 
freq.     292.85  E(vib)   ...       0.27 
freq.     295.86  E(vib)   ...       0.27 
freq.     300.15  E(vib)   ...       0.26 
freq.     309.44  E(vib)   ...       0.26 
freq.     320.88  E(vib)   ...       0.25 
freq.     324.14  E(vib)   ...       0.25 
freq.     331.15  E(vib)   ...       0.24 
freq.     340.58  E(vib)   ...       0.23 
freq.     342.75  E(vib)   ...       0.23 
freq.     360.99  E(vib)   ...       0.22 
freq.     374.33  E(vib)   ...       0.21 
freq.     379.95  E(vib)   ...       0.21 
freq.     381.68  E(vib)   ...       0.21 
freq.     399.72  E(vib)   ...       0.19 
freq.     406.24  E(vib)   ...       0.19 
freq.     407.28  E(vib)   ...       0.19 
freq.     416.89  E(vib)   ...       0.18 
freq.     437.02  E(vib)   ...       0.17 
freq.     441.04  E(vib)   ...       0.17 
freq.     443.41  E(vib)   ...       0.17 
freq.     460.91  E(vib)   ...       0.16 
freq.     475.93  E(vib)   ...       0.15 
freq.     483.79  E(vib)   ...       0.15 
freq.     500.94  E(vib)   ...       0.14 
freq.     509.72  E(vib)   ...       0.14 
freq.     511.35  E(vib)   ...       0.14 
freq.     522.05  E(vib)   ...       0.13 
freq.     531.99  E(vib)   ...       0.13 
freq.     546.85  E(vib)   ...       0.12 
freq.     551.36  E(vib)   ...       0.12 
freq.     564.26  E(vib)   ...       0.11 
freq.     567.64  E(vib)   ...       0.11 
freq.     571.42  E(vib)   ...       0.11 
freq.     594.41  E(vib)   ...       0.10 
freq.     606.61  E(vib)   ...       0.10 
freq.     624.86  E(vib)   ...       0.09 
freq.     628.02  E(vib)   ...       0.09 
freq.     646.76  E(vib)   ...       0.09 
freq.     662.62  E(vib)   ...       0.08 
freq.     667.95  E(vib)   ...       0.08 
freq.     672.52  E(vib)   ...       0.08 
freq.     703.45  E(vib)   ...       0.07 
freq.     709.30  E(vib)   ...       0.07 
freq.     712.47  E(vib)   ...       0.07 
freq.     717.68  E(vib)   ...       0.07 
freq.     725.65  E(vib)   ...       0.06 
freq.     727.99  E(vib)   ...       0.06 
freq.     744.40  E(vib)   ...       0.06 
freq.     747.07  E(vib)   ...       0.06 
freq.     757.66  E(vib)   ...       0.06 
freq.     759.27  E(vib)   ...       0.06 
freq.     781.52  E(vib)   ...       0.05 
freq.     784.84  E(vib)   ...       0.05 
freq.     793.33  E(vib)   ...       0.05 
freq.     802.58  E(vib)   ...       0.05 
freq.     807.47  E(vib)   ...       0.05 
freq.     827.87  E(vib)   ...       0.04 
freq.     840.36  E(vib)   ...       0.04 
freq.     848.75  E(vib)   ...       0.04 
freq.     858.10  E(vib)   ...       0.04 
freq.     860.39  E(vib)   ...       0.04 
freq.     863.13  E(vib)   ...       0.04 
freq.     871.39  E(vib)   ...       0.04 
freq.     875.93  E(vib)   ...       0.04 
freq.     877.39  E(vib)   ...       0.04 
freq.     891.78  E(vib)   ...       0.03 
freq.     895.40  E(vib)   ...       0.03 
freq.     901.29  E(vib)   ...       0.03 
freq.     905.01  E(vib)   ...       0.03 
freq.     910.29  E(vib)   ...       0.03 
freq.     916.32  E(vib)   ...       0.03 
freq.     922.66  E(vib)   ...       0.03 
freq.     923.26  E(vib)   ...       0.03 
freq.     928.66  E(vib)   ...       0.03 
freq.     938.26  E(vib)   ...       0.03 
freq.     941.44  E(vib)   ...       0.03 
freq.     944.56  E(vib)   ...       0.03 
freq.     954.38  E(vib)   ...       0.03 
freq.     967.44  E(vib)   ...       0.03 
freq.     971.93  E(vib)   ...       0.03 
freq.     974.99  E(vib)   ...       0.03 
freq.     984.51  E(vib)   ...       0.02 
freq.     988.78  E(vib)   ...       0.02 
freq.     990.19  E(vib)   ...       0.02 
freq.     992.15  E(vib)   ...       0.02 
freq.     997.55  E(vib)   ...       0.02 
freq.    1011.14  E(vib)   ...       0.02 
freq.    1021.44  E(vib)   ...       0.02 
freq.    1028.52  E(vib)   ...       0.02 
freq.    1031.68  E(vib)   ...       0.02 
freq.    1034.93  E(vib)   ...       0.02 
freq.    1042.19  E(vib)   ...       0.02 
freq.    1044.47  E(vib)   ...       0.02 
freq.    1048.19  E(vib)   ...       0.02 
freq.    1051.60  E(vib)   ...       0.02 
freq.    1052.36  E(vib)   ...       0.02 
freq.    1053.76  E(vib)   ...       0.02 
freq.    1054.59  E(vib)   ...       0.02 
freq.    1066.37  E(vib)   ...       0.02 
freq.    1076.94  E(vib)   ...       0.02 
freq.    1082.97  E(vib)   ...       0.02 
freq.    1086.59  E(vib)   ...       0.02 
freq.    1092.53  E(vib)   ...       0.02 
freq.    1099.38  E(vib)   ...       0.02 
freq.    1105.75  E(vib)   ...       0.02 
freq.    1115.44  E(vib)   ...       0.01 
freq.    1121.75  E(vib)   ...       0.01 
freq.    1126.24  E(vib)   ...       0.01 
freq.    1127.63  E(vib)   ...       0.01 
freq.    1134.87  E(vib)   ...       0.01 
freq.    1142.98  E(vib)   ...       0.01 
freq.    1145.72  E(vib)   ...       0.01 
freq.    1148.66  E(vib)   ...       0.01 
freq.    1156.89  E(vib)   ...       0.01 
freq.    1157.17  E(vib)   ...       0.01 
freq.    1163.44  E(vib)   ...       0.01 
freq.    1170.78  E(vib)   ...       0.01 
freq.    1176.31  E(vib)   ...       0.01 
freq.    1179.25  E(vib)   ...       0.01 
freq.    1185.67  E(vib)   ...       0.01 
freq.    1188.78  E(vib)   ...       0.01 
freq.    1195.15  E(vib)   ...       0.01 
freq.    1200.78  E(vib)   ...       0.01 
freq.    1204.59  E(vib)   ...       0.01 
freq.    1207.54  E(vib)   ...       0.01 
freq.    1214.95  E(vib)   ...       0.01 
freq.    1217.18  E(vib)   ...       0.01 
freq.    1228.24  E(vib)   ...       0.01 
freq.    1230.27  E(vib)   ...       0.01 
freq.    1233.34  E(vib)   ...       0.01 
freq.    1237.92  E(vib)   ...       0.01 
freq.    1245.26  E(vib)   ...       0.01 
freq.    1248.74  E(vib)   ...       0.01 
freq.    1252.28  E(vib)   ...       0.01 
freq.    1253.48  E(vib)   ...       0.01 
freq.    1255.47  E(vib)   ...       0.01 
freq.    1265.28  E(vib)   ...       0.01 
freq.    1267.33  E(vib)   ...       0.01 
freq.    1270.15  E(vib)   ...       0.01 
freq.    1280.76  E(vib)   ...       0.01 
freq.    1283.00  E(vib)   ...       0.01 
freq.    1285.52  E(vib)   ...       0.01 
freq.    1285.81  E(vib)   ...       0.01 
freq.    1286.70  E(vib)   ...       0.01 
freq.    1289.60  E(vib)   ...       0.01 
freq.    1293.09  E(vib)   ...       0.01 
freq.    1295.60  E(vib)   ...       0.01 
freq.    1301.88  E(vib)   ...       0.01 
freq.    1303.89  E(vib)   ...       0.01 
freq.    1312.20  E(vib)   ...       0.01 
freq.    1312.82  E(vib)   ...       0.01 
freq.    1317.32  E(vib)   ...       0.01 
freq.    1319.73  E(vib)   ...       0.01 
freq.    1321.22  E(vib)   ...       0.01 
freq.    1323.51  E(vib)   ...       0.01 
freq.    1325.15  E(vib)   ...       0.01 
freq.    1327.44  E(vib)   ...       0.01 
freq.    1330.10  E(vib)   ...       0.01 
freq.    1332.87  E(vib)   ...       0.01 
freq.    1333.91  E(vib)   ...       0.01 
freq.    1335.74  E(vib)   ...       0.01 
freq.    1338.50  E(vib)   ...       0.01 
freq.    1343.98  E(vib)   ...       0.01 
freq.    1346.93  E(vib)   ...       0.01 
freq.    1350.49  E(vib)   ...       0.01 
freq.    1353.43  E(vib)   ...       0.01 
freq.    1356.24  E(vib)   ...       0.01 
freq.    1356.77  E(vib)   ...       0.01 
freq.    1358.77  E(vib)   ...       0.01 
freq.    1363.29  E(vib)   ...       0.01 
freq.    1363.84  E(vib)   ...       0.01 
freq.    1370.13  E(vib)   ...       0.01 
freq.    1376.25  E(vib)   ...       0.01 
freq.    1385.88  E(vib)   ...       0.00 
freq.    1386.99  E(vib)   ...       0.00 
freq.    1402.10  E(vib)   ...       0.00 
freq.    1421.19  E(vib)   ...       0.00 
freq.    1424.48  E(vib)   ...       0.00 
freq.    1431.22  E(vib)   ...       0.00 
freq.    1432.45  E(vib)   ...       0.00 
freq.    1435.91  E(vib)   ...       0.00 
freq.    1436.08  E(vib)   ...       0.00 
freq.    1436.97  E(vib)   ...       0.00 
freq.    1437.38  E(vib)   ...       0.00 
freq.    1437.39  E(vib)   ...       0.00 
freq.    1440.23  E(vib)   ...       0.00 
freq.    1440.42  E(vib)   ...       0.00 
freq.    1445.65  E(vib)   ...       0.00 
freq.    1445.83  E(vib)   ...       0.00 
freq.    1445.89  E(vib)   ...       0.00 
freq.    1446.87  E(vib)   ...       0.00 
freq.    1450.13  E(vib)   ...       0.00 
freq.    1450.73  E(vib)   ...       0.00 
freq.    1452.90  E(vib)   ...       0.00 
freq.    1453.20  E(vib)   ...       0.00 
freq.    1453.98  E(vib)   ...       0.00 
freq.    1455.16  E(vib)   ...       0.00 
freq.    1458.78  E(vib)   ...       0.00 
freq.    1459.68  E(vib)   ...       0.00 
freq.    1460.58  E(vib)   ...       0.00 
freq.    1463.01  E(vib)   ...       0.00 
freq.    1466.66  E(vib)   ...       0.00 
freq.    1467.01  E(vib)   ...       0.00 
freq.    1468.28  E(vib)   ...       0.00 
freq.    1473.15  E(vib)   ...       0.00 
freq.    1478.62  E(vib)   ...       0.00 
freq.    1498.15  E(vib)   ...       0.00 
freq.    1512.85  E(vib)   ...       0.00 
freq.    1651.10  E(vib)   ...       0.00 
freq.    1654.27  E(vib)   ...       0.00 
freq.    1663.19  E(vib)   ...       0.00 
freq.    1677.05  E(vib)   ...       0.00 
freq.    1680.51  E(vib)   ...       0.00 
freq.    1686.98  E(vib)   ...       0.00 
freq.    1692.64  E(vib)   ...       0.00 
freq.    2913.13  E(vib)   ...       0.00 
freq.    2921.84  E(vib)   ...       0.00 
freq.    2926.20  E(vib)   ...       0.00 
freq.    2928.27  E(vib)   ...       0.00 
freq.    2928.90  E(vib)   ...       0.00 
freq.    2932.01  E(vib)   ...       0.00 
freq.    2938.10  E(vib)   ...       0.00 
freq.    2939.55  E(vib)   ...       0.00 
freq.    2941.47  E(vib)   ...       0.00 
freq.    2944.46  E(vib)   ...       0.00 
freq.    2946.97  E(vib)   ...       0.00 
freq.    2947.50  E(vib)   ...       0.00 
freq.    2949.65  E(vib)   ...       0.00 
freq.    2952.45  E(vib)   ...       0.00 
freq.    2953.07  E(vib)   ...       0.00 
freq.    2955.17  E(vib)   ...       0.00 
freq.    2956.37  E(vib)   ...       0.00 
freq.    2957.88  E(vib)   ...       0.00 
freq.    2962.01  E(vib)   ...       0.00 
freq.    2962.82  E(vib)   ...       0.00 
freq.    2964.52  E(vib)   ...       0.00 
freq.    2969.56  E(vib)   ...       0.00 
freq.    2970.17  E(vib)   ...       0.00 
freq.    2970.20  E(vib)   ...       0.00 
freq.    2970.46  E(vib)   ...       0.00 
freq.    2971.55  E(vib)   ...       0.00 
freq.    2975.17  E(vib)   ...       0.00 
freq.    2976.76  E(vib)   ...       0.00 
freq.    2979.55  E(vib)   ...       0.00 
freq.    2981.91  E(vib)   ...       0.00 
freq.    2983.44  E(vib)   ...       0.00 
freq.    2985.17  E(vib)   ...       0.00 
freq.    2985.64  E(vib)   ...       0.00 
freq.    2988.27  E(vib)   ...       0.00 
freq.    2991.17  E(vib)   ...       0.00 
freq.    2993.07  E(vib)   ...       0.00 
freq.    3008.75  E(vib)   ...       0.00 
freq.    3009.34  E(vib)   ...       0.00 
freq.    3016.83  E(vib)   ...       0.00 
freq.    3018.01  E(vib)   ...       0.00 
freq.    3019.87  E(vib)   ...       0.00 
freq.    3020.01  E(vib)   ...       0.00 
freq.    3024.61  E(vib)   ...       0.00 
freq.    3026.26  E(vib)   ...       0.00 
freq.    3026.51  E(vib)   ...       0.00 
freq.    3032.09  E(vib)   ...       0.00 
freq.    3034.38  E(vib)   ...       0.00 
freq.    3034.63  E(vib)   ...       0.00 
freq.    3034.94  E(vib)   ...       0.00 
freq.    3039.10  E(vib)   ...       0.00 
freq.    3039.80  E(vib)   ...       0.00 
freq.    3042.84  E(vib)   ...       0.00 
freq.    3048.01  E(vib)   ...       0.00 
freq.    3057.13  E(vib)   ...       0.00 
freq.    3061.95  E(vib)   ...       0.00 
freq.    3065.34  E(vib)   ...       0.00 
freq.    3067.03  E(vib)   ...       0.00 
freq.    3082.08  E(vib)   ...       0.00 
freq.    3396.99  E(vib)   ...       0.00 
freq.    3400.44  E(vib)   ...       0.00 
freq.    3478.72  E(vib)   ...       0.00 
freq.    3487.29  E(vib)   ...       0.00 
freq.    3496.86  E(vib)   ...       0.00 
freq.    3696.94  E(vib)   ...       0.00 

------------
INNER ENERGY
------------

The inner energy is: U= E(el) + E(ZPE) + E(vib) + E(rot) + E(trans)
    E(el)   - is the total energy from the electronic structure calculation
              = E(kin-el) + E(nuc-el) + E(el-el) + E(nuc-nuc)
    E(ZPE)  - the the zero temperature vibrational energy from the frequency calculation
    E(vib)  - the the finite temperature correction to E(ZPE) due to population
              of excited vibrational states
    E(rot)  - is the rotational thermal energy
    E(trans)- is the translational thermal energy

Summary of contributions to the inner energy U:
Electronic energy                ...  -2380.07400303 Eh
Zero point energy                ...      0.97693160 Eh     613.03 kcal/mol
Thermal vibrational correction   ...      0.05603202 Eh      35.16 kcal/mol
Thermal rotational correction    ...      0.00141627 Eh       0.89 kcal/mol
Thermal translational correction ...      0.00141627 Eh       0.89 kcal/mol
-----------------------------------------------------------------------
Total thermal energy                  -2379.03820687 Eh


Summary of corrections to the electronic energy:
(perhaps to be used in another calculation)
Total thermal correction                  0.05886456 Eh      36.94 kcal/mol
Non-thermal (ZPE) correction              0.97693160 Eh     613.03 kcal/mol
-----------------------------------------------------------------------
Total correction                          1.03579616 Eh     649.97 kcal/mol


--------
ENTHALPY
--------

The enthalpy is H = U + kB*T
                kB is Boltzmann's constant
Total free energy                 ...  -2379.03820687 Eh 
Thermal Enthalpy correction       ...      0.00094421 Eh       0.59 kcal/mol
-----------------------------------------------------------------------
Total Enthalpy                    ...  -2379.03726266 Eh


Note: Only C1 symmetry has been detected, increase convergence thresholds 
      if your molecule has a higher symmetry. Symmetry factor of 1.0 is   
      used for the rotational entropy correction. 
 

Note: Rotational entropy computed according to Herzberg 
Infrared and Raman Spectra, Chapter V,1, Van Nostrand Reinhold, 1945 
Point Group:  C1, Symmetry Number:   1  
Rotational constants in cm-1:     0.002334     0.001265     0.000940 

Vibrational entropy computed according to the QRRHO of S. Grimme
Chem.Eur.J. 2012 18 9955


-------
ENTROPY
-------

The entropy contributions are T*S = T*(S(el)+S(vib)+S(rot)+S(trans))
     S(el)   - electronic entropy
     S(vib)  - vibrational entropy
     S(rot)  - rotational entropy
     S(trans)- translational entropy
The entropies will be listed as mutliplied by the temperature to get
units of energy

Electronic entropy                ...      0.00000000 Eh      0.00 kcal/mol
Vibrational entropy               ...      0.10302714 Eh     64.65 kcal/mol
Rotational entropy                ...      0.01881225 Eh     11.80 kcal/mol
Translational entropy             ...      0.02166895 Eh     13.60 kcal/mol
-----------------------------------------------------------------------
Final entropy term                ...      0.14350834 Eh     90.05 kcal/mol

In case the symmetry of your molecule has not been determined correctly
or in case you have a reason to use a different symmetry number we print 
out the resulting rotational entropy values for sn=1,12 :
 --------------------------------------------------------
|  sn= 1 | S(rot)=       0.01881225 Eh     11.80 kcal/mol|
|  sn= 2 | S(rot)=       0.01815779 Eh     11.39 kcal/mol|
|  sn= 3 | S(rot)=       0.01777496 Eh     11.15 kcal/mol|
|  sn= 4 | S(rot)=       0.01750333 Eh     10.98 kcal/mol|
|  sn= 5 | S(rot)=       0.01729265 Eh     10.85 kcal/mol|
|  sn= 6 | S(rot)=       0.01712050 Eh     10.74 kcal/mol|
|  sn= 7 | S(rot)=       0.01697496 Eh     10.65 kcal/mol|
|  sn= 8 | S(rot)=       0.01684888 Eh     10.57 kcal/mol|
|  sn= 9 | S(rot)=       0.01673767 Eh     10.50 kcal/mol|
|  sn=10 | S(rot)=       0.01663819 Eh     10.44 kcal/mol|
|  sn=11 | S(rot)=       0.01654820 Eh     10.38 kcal/mol|
|  sn=12 | S(rot)=       0.01646605 Eh     10.33 kcal/mol|
 --------------------------------------------------------


-------------------
GIBBS FREE ENERGY
-------------------

The Gibbs free energy is G = H - T*S

Total enthalpy                    ...  -2379.03726266 Eh 
Total entropy correction          ...     -0.14350834 Eh    -90.05 kcal/mol
-----------------------------------------------------------------------
Final Gibbs free energy         ...  -2379.18077099 Eh

For completeness - the Gibbs free energy minus the electronic energy
G-E(el)                           ...      0.89323204 Eh    560.51 kcal/mol

--------------------------------------------------------------------------
WARNING: No preset parameters were found for the device that Open MPI
detected:

  Local host:            eu-g1-017-4
  Device name:           mlx5_0
  Device vendor ID:      0x02c9
  Device vendor part ID: 4123

Default device parameters will be used, which may result in lower
performance.  You can edit any of the files specified by the
btl_openib_device_param_files MCA parameter to set values for your
device.

NOTE: You can turn off this warning by setting the MCA parameter
      btl_openib_warn_no_device_params_found to 0.
--------------------------------------------------------------------------
--------------------------------------------------------------------------
WARNING: There was an error initializing an OpenFabrics device.

  Local host:   eu-g1-017-4
  Local device: mlx5_0
--------------------------------------------------------------------------

Timings for individual modules:

Sum of individual times         ...    36285.595 sec (= 604.760 min)
GTO integral calculation        ...       57.804 sec (=   0.963 min)   0.2 %
SCF iterations                  ...     1582.657 sec (=  26.378 min)   4.4 %
SCF Gradient evaluation         ...      626.621 sec (=  10.444 min)   1.7 %
Geometry relaxation             ...       23.763 sec (=   0.396 min)   0.1 %
Analytical frequency calculation...    33994.751 sec (= 566.579 min)  93.7 %
                             ****ORCA TERMINATED NORMALLY****
TOTAL RUN TIME: 0 days 10 hours 5 minutes 17 seconds 503 msec
