
                                 *****************
                                 * O   R   C   A *
                                 *****************

           --- An Ab Initio, DFT and Semiempirical electronic structure package ---

                  #######################################################
                  #                        -***-                        #
                  #          Department of theory and spectroscopy      #
                  #               Directorship: Frank Neese             #
                  #        Max Planck Institute fuer Kohlenforschung    #
                  #                Kaiser Wilhelm Platz 1               #
                  #                 D-45470 Muelheim/Ruhr               #
                  #                      Germany                        #
                  #                                                     #
                  #                  All rights reserved                #
                  #                        -***-                        #
                  #######################################################


                         Program Version 4.2.0 -  RELEASE  -


 With contributions from (in alphabetic order):
   Daniel Aravena         : Magnetic Suceptibility
   Michael Atanasov       : Ab Initio Ligand Field Theory (pilot matlab implementation)
   Alexander A. Auer      : GIAO ZORA, VPT2
   Ute Becker             : Parallelization
   Giovanni Bistoni       : ED, misc. LED, open-shell LED, HFLED
   Martin Brehm           : Molecular dynamics
   Dmytro Bykov           : SCF Hessian
   Vijay G. Chilkuri      : MRCI spin determinant printing, contributions to CSF-ICE
   Dipayan Datta          : RHF DLPNO-CCSD density
   Achintya Kumar Dutta   : EOM-CC, STEOM-CC
   Dmitry Ganyushin       : Spin-Orbit,Spin-Spin,Magnetic field MRCI
   Miquel Garcia          : C-PCM Hessian, Gaussian charge scheme
   Yang Guo               : DLPNO-NEVPT2, CIM, IAO-localization
   Andreas Hansen         : Spin unrestricted coupled pair/coupled cluster methods
   Benjamin Helmich-Paris : CASSCF linear response (MC-RPA)
   Lee Huntington         : MR-EOM, pCC
   Robert Izsak           : Overlap fitted RIJCOSX, COSX-SCS-MP3, EOM
   Christian Kollmar      : KDIIS, OOCD, Brueckner-CCSD(T), CCSD density
   Simone Kossmann        : Meta GGA functionals, TD-DFT gradient, OOMP2, MP2 Hessian
   Martin Krupicka        : AUTO-CI
   Lucas Lang             : DCDCAS
   Dagmar Lenk            : GEPOL surface, SMD
   Dimitrios Liakos       : Extrapolation schemes; Compound Job, initial MDCI parallelization
   Dimitrios Manganas     : Further ROCIS development; embedding schemes
   Dimitrios Pantazis     : SARC Basis sets
   Taras Petrenko         : DFT Hessian,TD-DFT gradient, ASA, ECA, R-Raman, ABS, FL, XAS/XES, NRVS
   Peter Pinski           : DLPNO-MP2, DLPNO-MP2 Gradient
   Christoph Reimann      : Effective Core Potentials
   Marius Retegan         : Local ZFS, SOC
   Christoph Riplinger    : Optimizer, TS searches, QM/MM, DLPNO-CCSD(T), (RO)-DLPNO pert. Triples
   Tobias Risthaus        : Range-separated hybrids, TD-DFT gradient, RPA, STAB
   Michael Roemelt        : Original ROCIS implementation
   Masaaki Saitow         : Open-shell DLPNO-CCSD energy and density
   Barbara Sandhoefer     : DKH picture change effects
   Avijit Sen             : IP-ROCIS
   Kantharuban Sivalingam : CASSCF convergence, NEVPT2, FIC-MRCI
   Bernardo de Souza      : ESD, SOC TD-DFT
   Georgi Stoychev        : AutoAux, RI-MP2 NMR
   Willem Van den Heuvel  : Paramagnetic NMR
   Boris Wezisla          : Elementary symmetry handling
   Frank Wennmohs         : Technical directorship


 We gratefully acknowledge several colleagues who have allowed us to
 interface, adapt or use parts of their codes:
   Stefan Grimme, W. Hujo, H. Kruse,             : VdW corrections, initial TS optimization,
                  C. Bannwarth                     DFT functionals, gCP, sTDA/sTD-DF
   Ed Valeev, F. Pavosevic, A. Kumar             : LibInt (2-el integral package), F12 methods
   Garnet Chan, S. Sharma, J. Yang, R. Olivares  : DMRG
   Ulf Ekstrom                                   : XCFun DFT Library
   Mihaly Kallay                                 : mrcc  (arbitrary order and MRCC methods)
   Andreas Klamt, Michael Diedenhofen            : otool_cosmo (COSMO solvation model)
   Jiri Pittner, Ondrej Demel                    : Mk-CCSD
   Frank Weinhold                                : gennbo (NPA and NBO analysis)
   Christopher J. Cramer and Donald G. Truhlar   : smd solvation model
   Lars Goerigk                                  : TD-DFT with DH, B97 family of functionals
   V. Asgeirsson, H. Jonsson                     : NEB implementation
   FAccTs GmbH                                   : IRC, NEB, NEB-TS, Multilevel, MM, QM/MM, CI optimization
   S Lehtola, MJT Oliveira, MAL Marques          : LibXC Library


 Your calculation uses the libint2 library for the computation of 2-el integrals
 For citations please refer to: http://libint.valeyev.net

 Your ORCA version has been built with support for libXC version: 4.2.3
 For citations please refer to: https://tddft.org/programs/libxc/

 This ORCA versions uses:
   CBLAS   interface :  Fast vector & matrix operations
   LAPACKE interface :  Fast linear algebra routines
   SCALAPACK package :  Parallel linear algebra routines




***************************************
The coordinates will be read from file: 9.xyz
***************************************


Your calculation utilizes the atom-pairwise dispersion correction
with the Becke-Johnson damping scheme (D3BJ)
Cite in your paper:
S.Grimme, S.Ehrlich, L.Goerigk, J Comput Chem, (2011), 32, 1456–1465 
S.Grimme, J.Antony, S.Ehrlich and H.Krieg, J.Chem.Phys., 132, (2010), 154104 
   

----- Orbital basis set information -----
Your calculation utilizes the basis: def2-TZVP
   F. Weigend and R. Ahlrichs, Phys. Chem. Chem. Phys. 7, 3297 (2005).

----- AuxJ basis set information -----
Your calculation utilizes the auxiliary basis: def2/J
   F. Weigend, Phys. Chem. Chem. Phys. 8, 1057 (2006).

================================================================================
                                        WARNINGS
                       Please study these warnings very carefully!
================================================================================


WARNING: Geometry Optimization
  ===> : Switching off AutoStart
         For restart on a previous wavefunction, please use MOREAD

INFO   : the flag for use of LIBINT has been found!

================================================================================
                                       INPUT FILE
================================================================================
NAME = 9.inp
|  1> !RI BP86 def2-tzvp def2/J D3BJ TIGHTSCF TightOpt Grid5 FinalGrid6 freq
|  2> %maxcore 4000
|  3> %pal nprocs 24
|  4> end
|  5> * xyzfile 0 1 9.xyz 
|  6> 
|  7>                          ****END OF INPUT****
================================================================================

                       *****************************
                       * Geometry Optimization Run *
                       *****************************

Geometry optimization settings:
Update method            Update   .... BFGS
Choice of coordinates    CoordSys .... Z-matrix Internals
Initial Hessian          InHess   .... Almoef's Model

Convergence Tolerances:
Energy Change            TolE     ....  1.0000e-06 Eh
Max. Gradient            TolMAXG  ....  1.0000e-04 Eh/bohr
RMS Gradient             TolRMSG  ....  3.0000e-05 Eh/bohr
Max. Displacement        TolMAXD  ....  1.0000e-03 bohr
RMS Displacement         TolRMSD  ....  6.0000e-04 bohr
Strict Convergence                ....  False
------------------------------------------------------------------------------
                        ORCA OPTIMIZATION COORDINATE SETUP
------------------------------------------------------------------------------

The optimization will be done in new redundant internal coordinates
Making redundant internal coordinates   ...  (new redundants) done
Evaluating the initial hessian          ...  (Almloef) done
Evaluating the coordinates              ...  done
Calculating the B-matrix                .... done
Calculating the G-matrix                .... done
Diagonalizing the G-matrix              .... done
Small eigenvalue found = 3.490e-04
Small eigenvalue found = 7.439e-04
Small eigenvalue found = 1.622e-03
Small eigenvalue found = 4.207e-03
Small eigenvalue found = 4.837e-03
Small eigenvalue found = 5.900e-03
Small eigenvalue found = 6.080e-03
Small eigenvalue found = 7.476e-03
Small eigenvalue found = 8.576e-03
Small eigenvalue found = 8.680e-03
Small eigenvalue found = 1.042e-02
Small eigenvalue found = 1.174e-02
Small eigenvalue found = 1.250e-02
Small eigenvalue found = 1.433e-02
Small eigenvalue found = 1.832e-02
Small eigenvalue found = 1.957e-02
Small eigenvalue found = 2.096e-02
Small eigenvalue found = 2.158e-02
Small eigenvalue found = 2.798e-02
Small eigenvalue found = 2.842e-02
The first mode is                       ....  325
The number of degrees of freedom        ....  339

    -----------------------------------------------------------------
                    Redundant Internal Coordinates


    -----------------------------------------------------------------
         Definition                    Initial Value    Approx d2E/dq
    -----------------------------------------------------------------
      1. B(C   1,O   0)                  1.2389         0.974740   
      2. B(C   2,C   1)                  1.5287         0.375345   
      3. B(C   3,C   2)                  1.5441         0.354771   
      4. B(C   4,C   3)                  1.5338         0.368462   
      5. B(C   5,C   4)                  1.5322         0.370516   
      6. B(N   6,C   5)                  1.4742         0.410768   
      7. B(N   6,C   2)                  1.4742         0.410680   
      8. B(C   7,N   6)                  1.3616         0.621093   
      9. B(O   8,C   7)                  1.2367         0.982885   
     10. B(N   9,C   1)                  1.3554         0.635474   
     11. B(C  10,N   9)                  1.4614         0.430566   
     12. B(C  11,C  10)                  1.5516         0.345089   
     13. B(N  12,C  11)                  1.3476         0.653966   
     14. B(C  13,N  12)                  1.4703         0.416571   
     15. B(C  14,C  13)                  1.5525         0.343905   
     16. B(N  15,C  14)                  1.3669         0.609092   
     17. B(C  16,N  15)                  1.4550         0.440677   
     18. B(C  17,C  16)                  1.5420         0.357490   
     19. B(C  18,C  17)                  1.5397         0.360495   
     20. B(C  19,C  18)                  1.5533         0.342984   
     21. B(N  20,C  19)                  1.3598         0.625204   
     22. B(C  21,N  20)                  1.4562         0.438829   
     23. B(C  22,C  21)                  1.5463         0.351921   
     24. B(N  23,C  22)                  1.3592         0.626704   
     25. B(C  24,N  23)                  1.4533         0.443527   
     26. B(C  24,C   7)                  1.5316         0.371337   
     27. B(C  25,C  24)                  1.5357         0.365790   
     28. B(O  26,C  22)                  1.2302         1.006455   
     29. B(C  27,C  21)                  1.5400         0.360091   
     30. B(C  28,C  27)                  1.5343         0.367689   
     31. B(C  29,C  28)                  1.5331         0.369304   
     32. B(C  30,C  28)                  1.5321         0.370741   
     33. B(O  31,C  19)                  1.2321         0.999388   
     34. B(C  32,C  18)                  1.5407         0.359187   
     35. B(C  33,C  32)                  1.5101         0.401963   
     36. B(C  34,C  33)                  1.5235         0.382646   
     37. B(C  35,C  34)                  1.5298         0.373783   
     38. B(C  36,C  35)                  1.5302         0.373317   
     39. B(C  37,C  36)                  1.5302         0.373344   
     40. B(C  38,C  37)                  1.5303         0.373141   
     41. B(C  39,C  38)                  1.5302         0.373315   
     42. B(C  40,C  39)                  1.5310         0.372234   
     43. B(C  41,C  40)                  1.5299         0.373712   
     44. B(O  42,C  32)                  1.2189         1.049114   
     45. B(O  43,C  17)                  1.4429         0.460822   
     46. B(O  44,O   8)                  3.3930         0.000319   
     47. B(O  44,C  14)                  1.2255         1.024014   
     48. B(C  45,C  13)                  1.5358         0.365662   
     49. B(C  46,C  45)                  1.5295         0.374218   
     50. B(O  47,C  11)                  1.2434         0.959028   
     51. B(C  48,C  10)                  1.5342         0.367883   
     52. B(C  49,C  48)                  1.5324         0.370335   
     53. B(C  50,C  48)                  1.5326         0.370065   
     54. B(H  51,C   2)                  1.1012         0.345595   
     55. B(H  52,C   3)                  1.0949         0.353711   
     56. B(H  53,C   3)                  1.1006         0.346330   
     57. B(H  54,C   4)                  1.0972         0.350682   
     58. B(H  55,C   4)                  1.1001         0.346922   
     59. B(H  56,C   5)                  1.1031         0.343237   
     60. B(H  57,C   5)                  1.0962         0.352025   
     61. B(H  58,N   9)                  1.0162         0.422898   
     62. B(H  59,C  10)                  1.1015         0.345158   
     63. B(H  60,N  12)                  1.0284         0.404456   
     64. B(H  61,C  13)                  1.0994         0.347879   
     65. B(H  62,N  15)                  1.0161         0.423115   
     66. B(H  63,C  16)                  1.1012         0.345644   
     67. B(H  64,C  16)                  1.0956         0.352807   
     68. B(H  65,C  17)                  1.1041         0.341939   
     69. B(H  66,C  18)                  1.1044         0.341534   
     70. B(H  67,N  20)                  1.0293         0.403106   
     71. B(H  68,C  21)                  1.0987         0.348788   
     72. B(H  69,N  23)                  1.0181         0.420045   
     73. B(H  70,C  24)                  1.0981         0.349594   
     74. B(H  71,C  25)                  1.0967         0.351317   
     75. B(H  72,C  25)                  1.1004         0.346634   
     76. B(H  73,C  25)                  1.0983         0.349334   
     77. B(H  74,C  27)                  1.1049         0.340933   
     78. B(H  75,C  27)                  1.1039         0.342153   
     79. B(H  76,C  28)                  1.1025         0.343994   
     80. B(H  77,C  29)                  1.1009         0.346006   
     81. B(H  78,C  29)                  1.0995         0.347751   
     82. B(H  79,C  29)                  1.1018         0.344867   
     83. B(H  80,C  30)                  1.0976         0.350137   
     84. B(H  81,C  30)                  1.1022         0.344268   
     85. B(H  82,C  30)                  1.0997         0.347502   
     86. B(H  83,C  33)                  1.1036         0.342492   
     87. B(H  84,C  33)                  1.1075         0.337619   
     88. B(H  85,C  34)                  1.1014         0.345385   
     89. B(H  86,H  73)                  4.1972         0.000001   
     90. B(H  86,C  34)                  1.1014         0.345312   
     91. B(H  87,C  35)                  1.1043         0.341647   
     92. B(H  88,C  35)                  1.1049         0.340897   
     93. B(H  89,C  36)                  1.1042         0.341753   
     94. B(H  90,C  36)                  1.1041         0.341952   
     95. B(H  91,C  37)                  1.1044         0.341559   
     96. B(H  92,C  37)                  1.1045         0.341391   
     97. B(H  93,C  38)                  1.1044         0.341527   
     98. B(H  94,C  38)                  1.1043         0.341610   
     99. B(H  95,C  39)                  1.1046         0.341309   
    100. B(H  96,C  39)                  1.1046         0.341248   
    101. B(H  97,C  40)                  1.1034         0.342755   
    102. B(H  98,C  40)                  1.1034         0.342793   
    103. B(H  99,C  41)                  1.0995         0.347732   
    104. B(H 100,C  41)                  1.1008         0.346100   
    105. B(H 101,C  41)                  1.1008         0.346128   
    106. B(H 102,O  43)                  0.9926         0.461324   
    107. B(H 103,C  45)                  1.1009         0.345971   
    108. B(H 104,C  45)                  1.1007         0.346193   
    109. B(H 105,C  46)                  1.0985         0.349047   
    110. B(H 106,C  46)                  1.1003         0.346670   
    111. B(H 107,C  46)                  1.0988         0.348673   
    112. B(H 108,H  74)                  2.4759         0.000424   
    113. B(H 108,C  48)                  1.1043         0.341684   
    114. B(H 109,C  49)                  1.0979         0.349790   
    115. B(H 110,C  49)                  1.0989         0.348572   
    116. B(H 111,C  49)                  1.1011         0.345658   
    117. B(H 112,H 102)                  3.8987         0.000002   
    118. B(H 112,C  50)                  1.0968         0.351225   
    119. B(H 113,C  50)                  1.1015         0.345181   
    120. B(H 114,C  50)                  1.0987         0.348730   
    121. A(O   0,C   1,N   9)          123.2911         0.467114   
    122. A(C   2,C   1,N   9)          117.3214         0.396188   
    123. A(O   0,C   1,C   2)          119.3464         0.427420   
    124. A(C   1,C   2,H  51)          105.2451         0.322389   
    125. A(N   6,C   2,H  51)          109.4470         0.325230   
    126. A(C   1,C   2,N   6)          115.6665         0.367286   
    127. A(C   1,C   2,C   3)          111.2880         0.360453   
    128. A(C   3,C   2,H  51)          111.7864         0.319430   
    129. A(C   3,C   2,N   6)          103.5681         0.363758   
    130. A(C   4,C   3,H  53)          110.2818         0.321525   
    131. A(C   4,C   3,H  52)          114.0322         0.322637   
    132. A(C   2,C   3,C   4)          103.6269         0.359319   
    133. A(C   2,C   3,H  53)          109.6053         0.319541   
    134. A(C   2,C   3,H  52)          111.4990         0.320644   
    135. A(H  52,C   3,H  53)          107.7417         0.288257   
    136. A(H  54,C   4,H  55)          108.1500         0.287946   
    137. A(C   3,C   4,H  55)          110.3236         0.321615   
    138. A(C   3,C   4,C   5)          103.1312         0.361989   
    139. A(C   3,C   4,H  54)          113.1071         0.322183   
    140. A(C   5,C   4,H  55)          109.6729         0.321908   
    141. A(C   5,C   4,H  54)          112.3900         0.322477   
    142. A(H  56,C   5,H  57)          108.3376         0.287638   
    143. A(C   4,C   5,N   6)          102.7189         0.366485   
    144. A(C   4,C   5,H  56)          111.2063         0.321345   
    145. A(N   6,C   5,H  57)          110.8807         0.326229   
    146. A(N   6,C   5,H  56)          110.6374         0.324876   
    147. A(C   4,C   5,H  57)          113.0133         0.322679   
    148. A(C   5,N   6,C   7)          126.9507         0.398336   
    149. A(C   2,N   6,C   7)          119.8066         0.398321   
    150. A(C   2,N   6,C   5)          112.2608         0.370688   
    151. A(O   8,C   7,C  24)          119.9294         0.427235   
    152. A(N   6,C   7,O   8)          121.1839         0.465870   
    153. A(N   6,C   7,C  24)          118.7355         0.393859   
    154. A(C   1,N   9,C  10)          122.2397         0.403273   
    155. A(C  10,N   9,H  58)          116.7691         0.336022   
    156. A(C   1,N   9,H  58)          117.3563         0.358774   
    157. A(C  48,C  10,H  59)          109.7992         0.321264   
    158. A(C  11,C  10,H  59)          108.5246         0.317926   
    159. A(N   9,C  10,C  11)          108.1494         0.364981   
    160. A(N   9,C  10,C  48)          111.3043         0.369005   
    161. A(N   9,C  10,H  59)          106.5277         0.327704   
    162. A(C  11,C  10,C  48)          112.3265         0.357535   
    163. A(N  12,C  11,O  47)          124.7152         0.468180   
    164. A(C  10,C  11,O  47)          121.7249         0.419824   
    165. A(C  10,C  11,N  12)          113.5573         0.392363   
    166. A(C  13,N  12,H  60)          118.3446         0.331719   
    167. A(C  11,N  12,C  13)          124.7191         0.402963   
    168. A(C  11,N  12,H  60)          115.1748         0.357804   
    169. A(C  14,C  13,C  45)          117.0356         0.356959   
    170. A(N  12,C  13,H  61)          104.9210         0.326346   
    171. A(C  14,C  13,H  61)          104.0408         0.318154   
    172. A(N  12,C  13,C  14)          109.4693         0.362711   
    173. A(C  45,C  13,H  61)          108.5549         0.321358   
    174. A(N  12,C  13,C  45)          111.8384         0.366538   
    175. A(C  13,C  14,N  15)          115.7775         0.387289   
    176. A(N  15,C  14,O  44)          124.2199         0.467707   
    177. A(C  13,C  14,O  44)          120.0012         0.424509   
    178. A(C  14,N  15,H  62)          116.4529         0.356228   
    179. A(C  16,N  15,H  62)          115.4129         0.337352   
    180. A(C  14,N  15,C  16)          121.9235         0.401911   
    181. A(H  63,C  16,H  64)          109.7034         0.288052   
    182. A(C  17,C  16,H  64)          110.0584         0.320910   
    183. A(N  15,C  16,H  63)          108.7078         0.329037   
    184. A(C  17,C  16,H  63)          110.1885         0.319836   
    185. A(N  15,C  16,C  17)          109.9099         0.368660   
    186. A(N  15,C  16,H  64)          108.2342         0.330154   
    187. A(O  43,C  17,H  65)          110.3564         0.330887   
    188. A(C  18,C  17,H  65)          109.8623         0.319710   
    189. A(C  16,C  17,H  65)          107.1948         0.319273   
    190. A(C  16,C  17,C  18)          112.6770         0.358450   
    191. A(C  18,C  17,O  43)          107.5364         0.372040   
    192. A(C  16,C  17,O  43)          109.2263         0.371504   
    193. A(C  19,C  18,H  66)          107.6869         0.317063   
    194. A(C  17,C  18,H  66)          108.1228         0.319648   
    195. A(C  17,C  18,C  32)          112.2200         0.358739   
    196. A(C  17,C  18,C  19)          113.9774         0.355935   
    197. A(C  19,C  18,C  32)          105.1227         0.355716   
    198. A(C  32,C  18,H  66)          109.5664         0.319458   
    199. A(C  18,C  19,N  20)          114.9329         0.388875   
    200. A(N  20,C  19,O  31)          123.2672         0.467858   
    201. A(C  18,C  19,O  31)          121.7437         0.422463   
    202. A(C  19,N  20,H  67)          115.5958         0.354880   
    203. A(C  19,N  20,C  21)          122.3217         0.403467   
    204. A(C  21,N  20,H  67)          120.4619         0.334410   
    205. A(C  27,C  21,H  68)          111.1082         0.320689   
    206. A(C  22,C  21,H  68)          105.4561         0.319489   
    207. A(N  20,C  21,H  68)          110.0474         0.329301   
    208. A(N  20,C  21,C  22)          112.1125         0.367403   
    209. A(C  22,C  21,C  27)          110.7166         0.357426   
    210. A(N  20,C  21,C  27)          107.4489         0.368853   
    211. A(C  21,C  22,N  23)          113.7144         0.390790   
    212. A(C  21,C  22,O  26)          122.1250         0.424946   
    213. A(N  23,C  22,O  26)          124.0265         0.468669   
    214. A(C  22,N  23,C  24)          124.2434         0.404396   
    215. A(C  24,N  23,H  69)          114.3262         0.337305   
    216. A(C  22,N  23,H  69)          118.7276         0.357515   
    217. A(C  25,C  24,H  70)          110.4764         0.321635   
    218. A(N  23,C  24,H  70)          107.4196         0.330007   
    219. A(C   7,C  24,H  70)          112.2782         0.322429   
    220. A(N  23,C  24,C  25)          112.1273         0.370527   
    221. A(C   7,C  24,N  23)          103.7517         0.371488   
    222. A(C   7,C  24,C  25)          110.5991         0.361676   
    223. A(H  71,C  25,H  73)          109.0897         0.288340   
    224. A(C  24,C  25,H  73)          109.8064         0.321596   
    225. A(H  71,C  25,H  72)          108.8391         0.287990   
    226. A(C  24,C  25,H  72)          110.9780         0.321188   
    227. A(C  24,C  25,H  71)          109.2507         0.321894   
    228. A(H  72,C  25,H  73)          108.8452         0.287736   
    229. A(C  28,C  27,H  75)          109.1368         0.320777   
    230. A(C  21,C  27,C  28)          116.6525         0.360102   
    231. A(H  74,C  27,H  75)          106.4403         0.286063   
    232. A(C  21,C  27,H  75)          107.6327         0.319684   
    233. A(C  28,C  27,H  74)          108.9096         0.320590   
    234. A(C  21,C  27,H  74)          107.6022         0.319498   
    235. A(C  29,C  28,C  30)          111.2911         0.362167   
    236. A(C  27,C  28,C  30)          112.0791         0.361896   
    237. A(C  27,C  28,C  29)          109.2717         0.361657   
    238. A(C  30,C  28,H  76)          107.6790         0.321493   
    239. A(C  29,C  28,H  76)          108.2703         0.321289   
    240. A(C  27,C  28,H  76)          108.1154         0.321059   
    241. A(C  28,C  29,H  79)          110.9713         0.321422   
    242. A(H  78,C  29,H  79)          107.6900         0.287302   
    243. A(H  77,C  29,H  79)          107.6413         0.287076   
    244. A(H  77,C  29,H  78)          107.9383         0.287450   
    245. A(C  28,C  29,H  78)          111.0671         0.321861   
    246. A(C  28,C  29,H  77)          111.3681         0.321596   
    247. A(H  81,C  30,H  82)          107.7039         0.287192   
    248. A(H  80,C  30,H  82)          107.5924         0.287952   
    249. A(C  28,C  30,H  82)          110.6947         0.322028   
    250. A(H  80,C  30,H  81)          108.6865         0.287531   
    251. A(C  28,C  30,H  81)          110.8171         0.321535   
    252. A(C  28,C  30,H  80)          111.2146         0.322427   
    253. A(C  33,C  32,O  42)          123.3283         0.438477   
    254. A(C  18,C  32,O  42)          120.6621         0.429689   
    255. A(C  18,C  32,C  33)          116.0048         0.365469   
    256. A(C  32,C  33,C  34)          114.4371         0.369456   
    257. A(C  34,C  33,H  84)          111.2178         0.322173   
    258. A(H  83,C  33,H  84)          105.3436         0.285671   
    259. A(C  32,C  33,H  84)          106.9793         0.324787   
    260. A(C  34,C  33,H  83)          111.4844         0.322931   
    261. A(C  32,C  33,H  83)          106.8391         0.325553   
    262. A(C  33,C  34,C  35)          112.7195         0.364880   
    263. A(H  85,C  34,H  86)          105.7757         0.287054   
    264. A(C  35,C  34,H  86)          109.9537         0.322125   
    265. A(C  33,C  34,H  86)          108.6898         0.323365   
    266. A(C  35,C  34,H  85)          110.1026         0.322136   
    267. A(C  33,C  34,H  85)          109.3537         0.323376   
    268. A(C  34,C  35,C  36)          113.2280         0.363343   
    269. A(H  87,C  35,H  88)          105.9165         0.285992   
    270. A(C  36,C  35,H  88)          109.2117         0.321382   
    271. A(C  34,C  35,H  88)          109.5140         0.321447   
    272. A(C  36,C  35,H  87)          109.2430         0.321497   
    273. A(C  34,C  35,H  87)          109.4665         0.321563   
    274. A(C  35,C  36,C  37)          113.4912         0.363270   
    275. A(H  89,C  36,H  90)          105.9018         0.286144   
    276. A(C  37,C  36,H  90)          109.3481         0.321548   
    277. A(C  35,C  36,H  90)          109.1978         0.321544   
    278. A(C  37,C  36,H  89)          109.3522         0.321517   
    279. A(C  35,C  36,H  89)          109.2703         0.321514   
    280. A(C  36,C  37,C  38)          113.5485         0.363241   
    281. A(H  91,C  37,H  92)          105.8934         0.286045   
    282. A(C  38,C  37,H  92)          109.2624         0.321433   
    283. A(C  36,C  37,H  92)          109.2945         0.321462   
    284. A(C  38,C  37,H  91)          109.2718         0.321459   
    285. A(C  36,C  37,H  91)          109.2865         0.321488   
    286. A(C  37,C  38,C  39)          113.5492         0.363236   
    287. A(H  93,C  38,H  94)          105.8860         0.286070   
    288. A(C  39,C  38,H  94)          109.2930         0.321491   
    289. A(C  37,C  38,H  94)          109.2609         0.321467   
    290. A(C  39,C  38,H  93)          109.2923         0.321479   
    291. A(C  37,C  38,H  93)          109.2752         0.321454   
    292. A(C  38,C  39,C  40)          113.6138         0.363085   
    293. A(H  95,C  39,H  96)          105.8558         0.285994   
    294. A(C  40,C  39,H  96)          109.2286         0.321283   
    295. A(C  38,C  39,H  96)          109.3098         0.321436   
    296. A(C  40,C  39,H  95)          109.2303         0.321292   
    297. A(C  38,C  39,H  95)          109.3115         0.321445   
    298. A(C  39,C  40,C  41)          113.1425         0.363151   
    299. A(H  97,C  40,H  98)          105.9314         0.286384   
    300. A(C  41,C  40,H  98)          109.6319         0.321729   
    301. A(C  39,C  40,H  98)          109.1192         0.321521   
    302. A(C  41,C  40,H  97)          109.6348         0.321724   
    303. A(C  39,C  40,H  97)          109.1250         0.321515   
    304. A(H 100,C  41,H 101)          107.4321         0.287252   
    305. A(H  99,C  41,H 101)          107.6887         0.287464   
    306. A(C  40,C  41,H 101)          111.0823         0.322240   
    307. A(H  99,C  41,H 100)          107.6896         0.287460   
    308. A(C  40,C  41,H 100)          111.0833         0.322236   
    309. A(C  40,C  41,H  99)          111.6720         0.322484   
    310. A(C  17,O  43,H 102)          107.7473         0.344835   
    311. A(C  13,C  45,C  46)          112.5639         0.362132   
    312. A(C  46,C  45,H 104)          109.2349         0.322321   
    313. A(C  13,C  45,H 104)          109.7430         0.321103   
    314. A(C  46,C  45,H 103)          110.0010         0.322287   
    315. A(C  13,C  45,H 103)          107.7884         0.321069   
    316. A(H 103,C  45,H 104)          107.3698         0.287244   
    317. A(H 106,C  46,H 107)          107.8083         0.287655   
    318. A(H 105,C  46,H 107)          107.8111         0.287963   
    319. A(C  45,C  46,H 107)          111.1180         0.322699   
    320. A(H 105,C  46,H 106)          107.8297         0.287703   
    321. A(C  45,C  46,H 106)          111.1925         0.322394   
    322. A(C  45,C  46,H 105)          110.9272         0.322755   
    323. A(C  50,C  48,H 108)          108.0362         0.321043   
    324. A(C  49,C  48,H 108)          109.1851         0.321081   
    325. A(C  10,C  48,H 108)          107.1027         0.320733   
    326. A(C  49,C  48,C  50)          110.7265         0.362227   
    327. A(C  10,C  48,C  50)          110.2235         0.361816   
    328. A(C  10,C  48,C  49)          111.4337         0.361861   
    329. A(H 110,C  49,H 111)          107.7589         0.287511   
    330. A(H 109,C  49,H 111)          107.7145         0.287668   
    331. A(C  48,C  49,H 111)          110.8427         0.321690   
    332. A(H 109,C  49,H 110)          107.7633         0.288046   
    333. A(C  48,C  49,H 110)          110.1277         0.322132   
    334. A(C  48,C  49,H 109)          112.4592         0.322316   
    335. A(H 113,C  50,H 114)          107.6125         0.287469   
    336. A(H 112,C  50,H 114)          107.9061         0.288250   
    337. A(C  48,C  50,H 114)          110.3276         0.322118   
    338. A(H 112,C  50,H 113)          108.7066         0.287790   
    339. A(C  48,C  50,H 113)          110.6068         0.321579   
    340. A(C  48,C  50,H 112)          111.5540         0.322494   
    341. D(H  51,C   2,C   1,N   9)   -129.0960         0.010529   
    342. D(C   3,C   2,C   1,N   9)    109.6356         0.010529   
    343. D(N   6,C   2,C   1,N   9)     -8.1772         0.010529   
    344. D(N   6,C   2,C   1,O   0)    174.0764         0.010529   
    345. D(C   3,C   2,C   1,O   0)    -68.1108         0.010529   
    346. D(H  51,C   2,C   1,O   0)     53.1576         0.010529   
    347. D(C   4,C   3,C   2,N   6)    -26.3546         0.010119   
    348. D(H  53,C   3,C   2,H  51)   -150.9163         0.010119   
    349. D(H  53,C   3,C   2,C   1)    -33.5518         0.010119   
    350. D(C   4,C   3,C   2,H  51)     91.3750         0.010119   
    351. D(H  53,C   3,C   2,N   6)     91.3541         0.010119   
    352. D(H  52,C   3,C   2,H  51)    -31.7092         0.010119   
    353. D(C   4,C   3,C   2,C   1)   -151.2605         0.010119   
    354. D(H  52,C   3,C   2,C   1)     85.6553         0.010119   
    355. D(H  52,C   3,C   2,N   6)   -149.4388         0.010119   
    356. D(H  55,C   4,C   3,H  53)    163.7123         0.010859   
    357. D(H  55,C   4,C   3,H  52)     42.3474         0.010859   
    358. D(H  54,C   4,C   3,H  52)    -78.9308         0.010859   
    359. D(H  55,C   4,C   3,C   2)    -79.0511         0.010859   
    360. D(H  54,C   4,C   3,H  53)     42.4340         0.010859   
    361. D(C   5,C   4,C   3,C   2)     38.0165         0.010859   
    362. D(H  54,C   4,C   3,C   2)    159.6706         0.010859   
    363. D(C   5,C   4,C   3,H  53)    -79.2201         0.010859   
    364. D(C   5,C   4,C   3,H  52)    159.4150         0.010859   
    365. D(N   6,C   5,C   4,C   3)    -34.5894         0.010973   
    366. D(H  57,C   5,C   4,C   3)   -154.1176         0.010973   
    367. D(H  56,C   5,C   4,H  55)   -158.6946         0.010973   
    368. D(H  56,C   5,C   4,C   3)     83.7789         0.010973   
    369. D(H  57,C   5,C   4,H  54)     83.7451         0.010973   
    370. D(H  56,C   5,C   4,H  54)    -38.3584         0.010973   
    371. D(H  57,C   5,C   4,H  55)    -36.5911         0.010973   
    372. D(N   6,C   5,C   4,H  54)   -156.7266         0.010973   
    373. D(N   6,C   5,C   4,H  55)     82.9371         0.010973   
    374. D(C   5,N   6,C   2,C   3)      4.6813         0.014387   
    375. D(C   7,N   6,C   5,H  57)    -28.6754         0.014393   
    376. D(C   7,N   6,C   5,H  56)     91.5560         0.014393   
    377. D(C   7,N   6,C   5,C   4)   -149.6764         0.014393   
    378. D(C   2,N   6,C   5,H  57)    139.8450         0.014393   
    379. D(C   2,N   6,C   5,H  56)    -99.9236         0.014393   
    380. D(C   7,N   6,C   2,H  51)     54.7714         0.014387   
    381. D(C   2,N   6,C   5,C   4)     18.8440         0.014393   
    382. D(C   7,N   6,C   2,C   3)    174.1195         0.014387   
    383. D(C   5,N   6,C   2,C   1)    126.7096         0.014387   
    384. D(C   7,N   6,C   2,C   1)    -63.8522         0.014387   
    385. D(C   5,N   6,C   2,H  51)   -114.6668         0.014387   
    386. D(C  24,C   7,N   6,C   5)    -13.4910         0.031245   
    387. D(C  24,C   7,N   6,C   2)    178.7643         0.031245   
    388. D(O   8,C   7,N   6,C   5)    170.9824         0.031245   
    389. D(O   8,C   7,N   6,C   2)      3.2377         0.031245   
    390. D(H  58,N   9,C   1,O   0)   -166.4432         0.032830   
    391. D(C  10,N   9,C   1,C   2)    173.7052         0.032830   
    392. D(H  58,N   9,C   1,C   2)     15.9069         0.032830   
    393. D(C  10,N   9,C   1,O   0)     -8.6449         0.032830   
    394. D(H  59,C  10,N   9,C   1)     40.7029         0.015806   
    395. D(C  48,C  10,N   9,H  58)    -41.7098         0.015806   
    396. D(C  48,C  10,N   9,C   1)    160.3699         0.015806   
    397. D(C  11,C  10,N   9,C   1)    -75.7863         0.015806   
    398. D(H  59,C  10,N   9,H  58)   -161.3768         0.015806   
    399. D(C  11,C  10,N   9,H  58)     82.1340         0.015806   
    400. D(O  47,C  11,C  10,N   9)   -102.4122         0.009022   
    401. D(N  12,C  11,C  10,H  59)    -38.1587         0.009022   
    402. D(N  12,C  11,C  10,C  48)   -159.7455         0.009022   
    403. D(N  12,C  11,C  10,N   9)     77.0281         0.009022   
    404. D(O  47,C  11,C  10,H  59)    142.4010         0.009022   
    405. D(O  47,C  11,C  10,C  48)     20.8143         0.009022   
    406. D(H  60,N  12,C  11,O  47)    167.9190         0.034939   
    407. D(H  60,N  12,C  11,C  10)    -11.5018         0.034939   
    408. D(C  13,N  12,C  11,O  47)      3.3541         0.034939   
    409. D(C  13,N  12,C  11,C  10)   -176.0667         0.034939   
    410. D(H  61,C  13,N  12,C  11)    175.8071         0.014799   
    411. D(H  61,C  13,N  12,H  60)     11.6903         0.014799   
    412. D(C  45,C  13,N  12,H  60)    129.1785         0.014799   
    413. D(C  45,C  13,N  12,C  11)    -66.7048         0.014799   
    414. D(C  14,C  13,N  12,C  11)     64.6756         0.014799   
    415. D(C  14,C  13,N  12,H  60)    -99.4411         0.014799   
    416. D(O  44,C  14,C  13,C  45)   -159.3061         0.008966   
    417. D(O  44,C  14,C  13,N  12)     72.1323         0.008966   
    418. D(N  15,C  14,C  13,H  61)    140.0011         0.008966   
    419. D(N  15,C  14,C  13,C  45)     20.2737         0.008966   
    420. D(O  44,C  14,C  13,H  61)    -39.5786         0.008966   
    421. D(N  15,C  14,C  13,N  12)   -108.2880         0.008966   
    422. D(H  62,N  15,C  14,O  44)   -169.1113         0.029960   
    423. D(H  62,N  15,C  14,C  13)     11.3289         0.029960   
    424. D(C  16,N  15,C  14,O  44)    -18.0992         0.029960   
    425. D(C  16,N  15,C  14,C  13)    162.3409         0.029960   
    426. D(H  64,C  16,N  15,H  62)   -175.3975         0.016560   
    427. D(H  64,C  16,N  15,C  14)     33.3118         0.016560   
    428. D(H  63,C  16,N  15,H  62)    -56.2973         0.016560   
    429. D(H  63,C  16,N  15,C  14)    152.4120         0.016560   
    430. D(C  17,C  16,N  15,C  14)    -86.9126         0.016560   
    431. D(C  17,C  16,N  15,H  62)     64.3780         0.016560   
    432. D(H  65,C  17,C  16,H  64)    -46.9288         0.010263   
    433. D(H  65,C  17,C  16,H  63)   -168.0382         0.010263   
    434. D(H  65,C  17,C  16,N  15)     72.1838         0.010263   
    435. D(O  43,C  17,C  16,H  64)   -166.5040         0.010263   
    436. D(O  43,C  17,C  16,H  63)     72.3866         0.010263   
    437. D(O  43,C  17,C  16,N  15)    -47.3913         0.010263   
    438. D(C  18,C  17,C  16,H  64)     74.0524         0.010263   
    439. D(C  18,C  17,C  16,H  63)    -47.0571         0.010263   
    440. D(C  18,C  17,C  16,N  15)   -166.8350         0.010263   
    441. D(H  66,C  18,C  17,H  65)   -172.7321         0.010424   
    442. D(H  66,C  18,C  17,O  43)    -52.5969         0.010424   
    443. D(H  66,C  18,C  17,C  16)     67.8221         0.010424   
    444. D(C  32,C  18,C  17,O  43)   -173.5507         0.010424   
    445. D(C  32,C  18,C  17,C  16)    -53.1317         0.010424   
    446. D(C  32,C  18,C  17,H  65)     66.3141         0.010424   
    447. D(C  19,C  18,C  17,H  65)    -53.0340         0.010424   
    448. D(C  19,C  18,C  17,O  43)     67.1012         0.010424   
    449. D(C  19,C  18,C  17,C  16)   -172.4798         0.010424   
    450. D(O  31,C  19,C  18,H  66)    -98.3173         0.008923   
    451. D(O  31,C  19,C  18,C  32)     18.4459         0.008923   
    452. D(O  31,C  19,C  18,C  17)    141.7389         0.008923   
    453. D(N  20,C  19,C  18,H  66)     84.3256         0.008923   
    454. D(N  20,C  19,C  18,C  17)    -35.6182         0.008923   
    455. D(N  20,C  19,C  18,C  32)   -158.9112         0.008923   
    456. D(H  67,N  20,C  19,O  31)   -179.1187         0.031693   
    457. D(H  67,N  20,C  19,C  18)     -1.8068         0.031693   
    458. D(C  21,N  20,C  19,O  31)    -13.5881         0.031693   
    459. D(C  21,N  20,C  19,C  18)    163.7238         0.031693   
    460. D(H  68,C  21,N  20,H  67)   -135.6357         0.016420   
    461. D(H  68,C  21,N  20,C  19)     59.5192         0.016420   
    462. D(C  27,C  21,N  20,H  67)    -14.5347         0.016420   
    463. D(C  27,C  21,N  20,C  19)   -179.3799         0.016420   
    464. D(C  22,C  21,N  20,H  67)    107.3329         0.016420   
    465. D(C  22,C  21,N  20,C  19)    -57.5123         0.016420   
    466. D(N  23,C  22,C  21,C  27)     90.9044         0.009349   
    467. D(N  23,C  22,C  21,N  20)    -29.0759         0.009349   
    468. D(O  26,C  22,C  21,H  68)     35.2238         0.009349   
    469. D(O  26,C  22,C  21,C  27)    -85.0442         0.009349   
    470. D(O  26,C  22,C  21,N  20)    154.9755         0.009349   
    471. D(N  23,C  22,C  21,H  68)   -148.8276         0.009349   
    472. D(H  69,N  23,C  22,O  26)   -171.1090         0.031858   
    473. D(H  69,N  23,C  22,C  21)     13.0310         0.031858   
    474. D(C  24,N  23,C  22,O  26)    -10.8285         0.031858   
    475. D(C  24,N  23,C  22,C  21)    173.3116         0.031858   
    476. D(H  70,C  24,N  23,H  69)   -157.4689         0.016776   
    477. D(H  70,C  24,N  23,C  22)     41.4793         0.016776   
    478. D(C  25,C  24,N  23,H  69)     80.9730         0.016776   
    479. D(C  25,C  24,N  23,C  22)    -80.0788         0.016776   
    480. D(C   7,C  24,N  23,H  69)    -38.4016         0.016776   
    481. D(C   7,C  24,N  23,C  22)    160.5466         0.016776   
    482. D(H  70,C  24,C   7,O   8)    159.4393         0.010321   
    483. D(H  70,C  24,C   7,N   6)    -16.1448         0.010321   
    484. D(C  25,C  24,C   7,O   8)    -76.6538         0.010321   
    485. D(C  25,C  24,C   7,N   6)    107.7621         0.010321   
    486. D(N  23,C  24,C   7,O   8)     43.7606         0.010321   
    487. D(N  23,C  24,C   7,N   6)   -131.8236         0.010321   
    488. D(H  73,C  25,C  24,H  70)   -179.8017         0.010712   
    489. D(H  73,C  25,C  24,N  23)    -60.0131         0.010712   
    490. D(H  73,C  25,C  24,C   7)     55.2622         0.010712   
    491. D(H  72,C  25,C  24,H  70)     59.8150         0.010712   
    492. D(H  72,C  25,C  24,N  23)    179.6035         0.010712   
    493. D(H  72,C  25,C  24,C   7)    -65.1211         0.010712   
    494. D(H  71,C  25,C  24,H  70)    -60.1995         0.010712   
    495. D(H  71,C  25,C  24,N  23)     59.5890         0.010712   
    496. D(H  71,C  25,C  24,C   7)    174.8644         0.010712   
    497. D(H  75,C  27,C  21,H  68)     59.8136         0.010402   
    498. D(H  75,C  27,C  21,C  22)    176.6480         0.010402   
    499. D(H  75,C  27,C  21,N  20)    -60.6183         0.010402   
    500. D(H  74,C  27,C  21,H  68)    174.1690         0.010402   
    501. D(H  74,C  27,C  21,C  22)    -68.9966         0.010402   
    502. D(H  74,C  27,C  21,N  20)     53.7371         0.010402   
    503. D(C  28,C  27,C  21,H  68)    -63.1710         0.010402   
    504. D(C  28,C  27,C  21,C  22)     53.6634         0.010402   
    505. D(C  28,C  27,C  21,N  20)    176.3971         0.010402   
    506. D(H  76,C  28,C  27,H  75)   -179.9134         0.010816   
    507. D(H  76,C  28,C  27,H  74)     64.2676         0.010816   
    508. D(H  76,C  28,C  27,C  21)    -57.7107         0.010816   
    509. D(C  30,C  28,C  27,H  75)    -61.3905         0.010816   
    510. D(C  30,C  28,C  27,H  74)   -177.2095         0.010816   
    511. D(C  30,C  28,C  27,C  21)     60.8122         0.010816   
    512. D(C  29,C  28,C  27,H  75)     62.4531         0.010816   
    513. D(C  29,C  28,C  27,H  74)    -53.3659         0.010816   
    514. D(C  29,C  28,C  27,C  21)   -175.3442         0.010816   
    515. D(H  79,C  29,C  28,C  30)     61.3773         0.010905   
    516. D(H  79,C  29,C  28,C  27)    -62.9295         0.010905   
    517. D(H  78,C  29,C  28,H  76)     59.7738         0.010905   
    518. D(H  78,C  29,C  28,C  30)    -58.3833         0.010905   
    519. D(H  78,C  29,C  28,C  27)    177.3098         0.010905   
    520. D(H  77,C  29,C  28,H  76)    -60.5663         0.010905   
    521. D(H  77,C  29,C  28,C  30)   -178.7234         0.010905   
    522. D(H  79,C  29,C  28,H  76)    179.5344         0.010905   
    523. D(H  77,C  29,C  28,C  27)     56.9698         0.010905   
    524. D(H  82,C  30,C  28,H  76)    -64.8737         0.010985   
    525. D(H  82,C  30,C  28,C  29)     53.6391         0.010985   
    526. D(H  82,C  30,C  28,C  27)    176.3454         0.010985   
    527. D(H  81,C  30,C  28,H  76)    175.6935         0.010985   
    528. D(H  81,C  30,C  28,C  29)    -65.7937         0.010985   
    529. D(H  81,C  30,C  28,C  27)     56.9127         0.010985   
    530. D(H  80,C  30,C  28,H  76)     54.6782         0.010985   
    531. D(H  80,C  30,C  28,C  29)    173.1911         0.010985   
    532. D(H  80,C  30,C  28,C  27)    -64.1026         0.010985   
    533. D(O  42,C  32,C  18,H  66)   -154.6641         0.009705   
    534. D(O  42,C  32,C  18,C  19)     89.8649         0.009705   
    535. D(O  42,C  32,C  18,C  17)    -34.5456         0.009705   
    536. D(C  33,C  32,C  18,H  66)     26.0981         0.009705   
    537. D(C  33,C  32,C  18,C  19)    -89.3729         0.009705   
    538. D(C  33,C  32,C  18,C  17)    146.2166         0.009705   
    539. D(H  84,C  33,C  32,O  42)    116.4028         0.011986   
    540. D(H  84,C  33,C  32,C  18)    -64.3819         0.011986   
    541. D(H  83,C  33,C  32,O  42)   -131.1722         0.011986   
    542. D(H  83,C  33,C  32,C  18)     48.0431         0.011986   
    543. D(C  34,C  33,C  32,O  42)     -7.2658         0.011986   
    544. D(C  34,C  33,C  32,C  18)    171.9495         0.011986   
    545. D(H  86,C  34,C  33,H  84)    179.7162         0.011661   
    546. D(H  86,C  34,C  33,H  83)     62.4678         0.011661   
    547. D(H  86,C  34,C  33,C  32)    -58.9181         0.011661   
    548. D(H  85,C  34,C  33,H  84)    -65.2586         0.011661   
    549. D(H  85,C  34,C  33,H  83)    177.4930         0.011661   
    550. D(H  85,C  34,C  33,C  32)     56.1071         0.011661   
    551. D(C  35,C  34,C  33,H  84)     57.5616         0.011661   
    552. D(C  35,C  34,C  33,H  83)    -59.6869         0.011661   
    553. D(C  35,C  34,C  33,C  32)    178.9272         0.011661   
    554. D(H  88,C  35,C  34,H  86)   -179.8549         0.011155   
    555. D(H  88,C  35,C  34,H  85)     63.9851         0.011155   
    556. D(H  88,C  35,C  34,C  33)    -58.4152         0.011155   
    557. D(H  87,C  35,C  34,H  86)    -64.1426         0.011155   
    558. D(H  87,C  35,C  34,H  85)    179.6974         0.011155   
    559. D(H  87,C  35,C  34,C  33)     57.2971         0.011155   
    560. D(C  36,C  35,C  34,H  86)     58.0041         0.011155   
    561. D(C  36,C  35,C  34,H  85)    -58.1558         0.011155   
    562. D(C  36,C  35,C  34,C  33)    179.4438         0.011155   
    563. D(H  90,C  36,C  35,H  87)     64.3451         0.011129   
    564. D(H  90,C  36,C  35,C  34)    -57.9262         0.011129   
    565. D(H  89,C  36,C  35,H  88)    -64.8267         0.011129   
    566. D(H  89,C  36,C  35,H  87)    179.7541         0.011129   
    567. D(H  89,C  36,C  35,C  34)     57.4828         0.011129   
    568. D(C  37,C  36,C  35,H  88)     57.4981         0.011129   
    569. D(C  37,C  36,C  35,H  87)    -57.9211         0.011129   
    570. D(H  90,C  36,C  35,H  88)    179.7643         0.011129   
    571. D(C  37,C  36,C  35,C  34)    179.8076         0.011129   
    572. D(H  92,C  37,C  36,H  90)    179.9935         0.011131   
    573. D(H  92,C  37,C  36,H  89)     64.4557         0.011131   
    574. D(H  92,C  37,C  36,C  35)    -57.8236         0.011131   
    575. D(H  91,C  37,C  36,H  90)    -64.5451         0.011131   
    576. D(H  91,C  37,C  36,H  89)    179.9171         0.011131   
    577. D(H  91,C  37,C  36,C  35)     57.6378         0.011131   
    578. D(C  38,C  37,C  36,H  90)     57.7273         0.011131   
    579. D(C  38,C  37,C  36,H  89)    -57.8105         0.011131   
    580. D(C  38,C  37,C  36,C  35)    179.9101         0.011131   
    581. D(H  94,C  38,C  37,H  92)    179.8931         0.011119   
    582. D(H  94,C  38,C  37,H  91)     64.4577         0.011119   
    583. D(H  94,C  38,C  37,C  36)    -57.8229         0.011119   
    584. D(H  93,C  38,C  37,H  92)    -64.6793         0.011119   
    585. D(H  93,C  38,C  37,H  91)    179.8853         0.011119   
    586. D(H  93,C  38,C  37,C  36)     57.6047         0.011119   
    587. D(C  39,C  38,C  37,H  92)     57.6117         0.011119   
    588. D(C  39,C  38,C  37,H  91)    -57.8237         0.011119   
    589. D(C  39,C  38,C  37,C  36)    179.8957         0.011119   
    590. D(H  95,C  39,C  38,H  94)    -64.5684         0.011129   
    591. D(H  95,C  39,C  38,H  93)    179.9768         0.011129   
    592. D(H  95,C  39,C  38,C  37)     57.6952         0.011129   
    593. D(C  40,C  39,C  38,H  94)     57.7140         0.011129   
    594. D(C  40,C  39,C  38,H  93)    -57.7409         0.011129   
    595. D(C  40,C  39,C  38,C  37)    179.9776         0.011129   
    596. D(H  96,C  39,C  38,H  94)    179.9929         0.011129   
    597. D(H  96,C  39,C  38,H  93)     64.5380         0.011129   
    598. D(H  96,C  39,C  38,C  37)    -57.7436         0.011129   
    599. D(H  98,C  40,C  39,H  95)     64.6343         0.011068   
    600. D(H  98,C  40,C  39,C  38)    -57.6930         0.011068   
    601. D(H  97,C  40,C  39,H  96)    -64.6955         0.011068   
    602. D(H  97,C  40,C  39,H  95)    179.9555         0.011068   
    603. D(H  97,C  40,C  39,C  38)     57.6283         0.011068   
    604. D(C  41,C  40,C  39,H  96)     57.6479         0.011068   
    605. D(C  41,C  40,C  39,H  95)    -57.7011         0.011068   
    606. D(H  98,C  40,C  39,H  96)    179.9833         0.011068   
    607. D(C  41,C  40,C  39,C  38)    179.9716         0.011068   
    608. D(H 101,C  41,C  40,H  98)    -62.2834         0.011151   
    609. D(H 101,C  41,C  40,H  97)   -178.1758         0.011151   
    610. D(H 101,C  41,C  40,C  39)     59.7656         0.011151   
    611. D(H 100,C  41,C  40,H  98)    178.1965         0.011151   
    612. D(H 100,C  41,C  40,H  97)     62.3040         0.011151   
    613. D(H 100,C  41,C  40,C  39)    -59.7546         0.011151   
    614. D(H  99,C  41,C  40,H  98)     57.9556         0.011151   
    615. D(H  99,C  41,C  40,H  97)    -57.9368         0.011151   
    616. D(H  99,C  41,C  40,C  39)   -179.9954         0.011151   
    617. D(H 102,O  43,C  17,H  65)    -38.4686         0.016730   
    618. D(H 102,O  43,C  17,C  18)   -158.2903         0.016730   
    619. D(H 102,O  43,C  17,C  16)     79.1340         0.016730   
    620. D(H 104,C  45,C  13,H  61)    176.3564         0.010705   
    621. D(H 104,C  45,C  13,C  14)    -66.3466         0.010705   
    622. D(H 104,C  45,C  13,N  12)     61.0715         0.010705   
    623. D(H 103,C  45,C  13,H  61)    -67.0116         0.010705   
    624. D(H 103,C  45,C  13,C  14)     50.2854         0.010705   
    625. D(H 103,C  45,C  13,N  12)    177.7035         0.010705   
    626. D(C  46,C  45,C  13,H  61)     54.4752         0.010705   
    627. D(C  46,C  45,C  13,C  14)    171.7722         0.010705   
    628. D(C  46,C  45,C  13,N  12)    -60.8097         0.010705   
    629. D(H 107,C  46,C  45,H 104)    -61.4659         0.011180   
    630. D(H 107,C  46,C  45,H 103)   -179.0782         0.011180   
    631. D(H 107,C  46,C  45,C  13)     60.7028         0.011180   
    632. D(H 106,C  46,C  45,H 104)    178.4426         0.011180   
    633. D(H 106,C  46,C  45,H 103)     60.8302         0.011180   
    634. D(H 106,C  46,C  45,C  13)    -59.3888         0.011180   
    635. D(H 105,C  46,C  45,H 104)     58.4519         0.011180   
    636. D(H 105,C  46,C  45,H 103)    -59.1605         0.011180   
    637. D(H 105,C  46,C  45,C  13)   -179.3794         0.011180   
    638. D(H 108,C  48,C  10,H  59)   -174.5486         0.010827   
    639. D(H 108,C  48,C  10,C  11)    -53.6926         0.010827   
    640. D(H 108,C  48,C  10,N   9)     67.7463         0.010827   
    641. D(C  50,C  48,C  10,H  59)    -57.2533         0.010827   
    642. D(C  50,C  48,C  10,C  11)     63.6027         0.010827   
    643. D(C  50,C  48,C  10,N   9)   -174.9584         0.010827   
    644. D(C  49,C  48,C  10,H  59)     66.1001         0.010827   
    645. D(C  49,C  48,C  10,C  11)   -173.0438         0.010827   
    646. D(C  49,C  48,C  10,N   9)    -51.6049         0.010827   
    647. D(H 111,C  49,C  48,C  50)     62.6343         0.010962   
    648. D(H 111,C  49,C  48,C  10)    -60.4323         0.010962   
    649. D(H 110,C  49,C  48,H 108)     62.3094         0.010962   
    650. D(H 110,C  49,C  48,C  50)    -56.5179         0.010962   
    651. D(H 110,C  49,C  48,C  10)   -179.5844         0.010962   
    652. D(H 109,C  49,C  48,H 108)    -57.8958         0.010962   
    653. D(H 109,C  49,C  48,C  50)   -176.7230         0.010962   
    654. D(H 111,C  49,C  48,H 108)   -178.5385         0.010962   
    655. D(H 109,C  49,C  48,C  10)     60.2104         0.010962   
    656. D(H 114,C  50,C  48,H 108)    -61.8541         0.010947   
    657. D(H 114,C  50,C  48,C  49)     57.6662         0.010947   
    658. D(H 114,C  50,C  48,C  10)   -178.5695         0.010947   
    659. D(H 113,C  50,C  48,H 108)    179.1972         0.010947   
    660. D(H 113,C  50,C  48,C  49)    -61.2825         0.010947   
    661. D(H 113,C  50,C  48,C  10)     62.4818         0.010947   
    662. D(H 112,C  50,C  48,H 108)     58.0705         0.010947   
    663. D(H 112,C  50,C  48,C  49)    177.5908         0.010947   
    664. D(H 112,C  50,C  48,C  10)    -58.6448         0.010947   
    -----------------------------------------------------------------

Number of atoms                         .... 115
Number of degrees of freedom            .... 664

         *************************************************************
         *                GEOMETRY OPTIMIZATION CYCLE   1            *
         *************************************************************
---------------------------------
CARTESIAN COORDINATES (ANGSTROEM)
---------------------------------
  O      6.313591   -0.989863   -0.018589
  C      5.520953   -0.175889    0.475511
  C      5.337302    1.188744   -0.188577
  C      6.609731    2.053107   -0.054724
  C      6.072765    3.489783   -0.059305
  C      4.775915    3.379273    0.749226
  N      4.278905    2.040307    0.384108
  C      2.979453    1.638237    0.322720
  O      2.670952    0.539536   -0.153765
  N      4.828661   -0.410508    1.616897
  C      4.817595   -1.719295    2.266897
  C      3.886499   -2.655675    1.452228
  N      4.446693   -3.117383    0.316896
  C      3.757257   -3.952528   -0.677653
  C      2.597298   -3.143367   -1.318038
  N      1.335655   -3.524118   -0.955021
  C      0.183455   -2.658101   -1.153939
  C      0.018682   -1.717055    0.056427
  C     -1.345759   -1.003805    0.072382
  C     -1.475157    0.086679    1.170884
  N     -0.839631   -0.197975    2.338873
  C     -0.555265    0.821456    3.339046
  C      0.293332    1.979508    2.764849
  N      1.112072    1.604629    1.746775
  C      1.902792    2.528312    0.950793
  C      1.066553    3.215372   -0.138760
  O      0.272465    3.109372    3.251071
  C      0.179880    0.133011    4.504046
  C      0.658812    1.038227    5.646568
  C      1.463625    0.203820    6.649827
  C     -0.503358    1.763824    6.332219
  O     -2.069145    1.146466    0.965478
  C     -1.637985   -0.275431   -1.253441
  C     -3.084929   -0.239079   -1.683929
  C     -3.361356    0.648872   -2.890615
  C     -4.832918    0.636365   -3.308686
  C     -5.126148    1.535260   -4.511798
  C     -6.595703    1.523661   -4.938049
  C     -6.890840    2.423910   -6.139845
  C     -8.359936    2.410373   -6.567692
  C     -8.656966    3.310971   -7.769604
  C    -10.128221    3.288777   -8.188543
  O     -0.736915    0.244112   -1.888983
  O      0.121792   -2.485531    1.273256
  O      2.844115   -2.233591   -2.101153
  C      3.414188   -5.341161   -0.118397
  C      4.656575   -6.127427    0.303180
  O      2.734169   -2.925080    1.833672
  C      4.391283   -1.608217    3.736463
  C      5.214925   -0.551442    4.480104
  C      4.508397   -2.971599    4.426565
  H      5.101409    0.968966   -1.241514
  H      7.324594    1.841718   -0.856617
  H      7.105768    1.834264    0.903089
  H      6.774868    4.213277    0.373693
  H      5.842580    3.808398   -1.086839
  H      4.974915    3.438019    1.832591
  H      4.042662    4.152052    0.490869
  H      4.055346    0.213237    1.830611
  H      5.846221   -2.108529    2.205193
  H      5.324375   -2.656525    0.043308
  H      4.481274   -4.074058   -1.496010
  H      1.265049   -4.171529   -0.175061
  H     -0.713684   -3.285513   -1.272401
  H      0.347831   -2.072785   -2.065344
  H      0.831165   -0.971378    0.003096
  H     -2.127383   -1.761615    0.258147
  H     -0.369228   -1.112661    2.377705
  H     -1.490829    1.285381    3.680527
  H      0.969763    0.693989    1.314362
  H      2.326850    3.273582    1.636712
  H      0.247306    3.772463    0.331646
  H      1.681397    3.914898   -0.724811
  H      0.645155    2.460380   -0.815955
  H      1.050059   -0.400665    4.081248
  H     -0.492678   -0.640897    4.913146
  H      1.326793    1.804450    5.219823
  H      2.312509   -0.300145    6.162666
  H      1.862261    0.833812    7.457971
  H      0.833771   -0.573620    7.111086
  H     -1.004668    2.453117    5.640574
  H     -1.245589    1.042997    6.712260
  H     -0.142701    2.354423    7.186880
  H     -3.672047    0.078858   -0.805154
  H     -3.391063   -1.285659   -1.877871
  H     -2.726128    0.329699   -3.731806
  H     -3.047264    1.677120   -2.651519
  H     -5.460269    0.952555   -2.456643
  H     -5.140910   -0.398286   -3.544226
  H     -4.495849    1.222296   -5.362745
  H     -4.822228    2.569849   -4.274641
  H     -7.225172    1.835369   -4.085826
  H     -6.898763    0.488339   -5.175187
  H     -6.259892    2.113563   -6.991502
  H     -6.589597    3.459417   -5.902013
  H     -8.991319    2.720326   -5.715988
  H     -8.661520    1.374716   -6.805781
  H     -8.024844    3.000392   -8.619038
  H     -8.355363    4.344905   -7.529760
  H    -10.314287    3.942830   -9.052560
  H    -10.446092    2.271622   -8.464410
  H    -10.778898    3.626271   -7.367314
  H      1.085114   -2.651198    1.445759
  H      2.866689   -5.892088   -0.898587
  H      2.739957   -5.237898    0.745511
  H      4.381570   -7.118806    0.688166
  H      5.341668   -6.273673   -0.545361
  H      5.208711   -5.601076    1.094010
  H      3.327727   -1.311165    3.744513
  H      5.105547    0.449683    4.042856
  H      4.897507   -0.494964    5.530600
  H      6.285669   -0.808010    4.466110
  H      3.889967   -3.729081    3.929856
  H      5.554654   -3.316100    4.429368
  H      4.179305   -2.899561    5.472378

----------------------------
CARTESIAN COORDINATES (A.U.)
----------------------------
  NO LB      ZA    FRAG     MASS         X           Y           Z
   0 O     8.0000    0    15.999   11.930957   -1.870569   -0.035128
   1 C     6.0000    0    12.011   10.433089   -0.332383    0.898585
   2 C     6.0000    0    12.011   10.086040    2.246400   -0.356360
   3 C     6.0000    0    12.011   12.490582    3.879810   -0.103413
   4 C     6.0000    0    12.011   11.475862    6.594734   -0.112070
   5 C     6.0000    0    12.011    9.025172    6.385901    1.415832
   6 N     7.0000    0    14.007    8.085959    3.855621    0.725859
   7 C     6.0000    0    12.011    5.630351    3.095819    0.609852
   8 O     8.0000    0    15.999    5.047367    1.019575   -0.290573
   9 N     7.0000    0    14.007    9.124848   -0.775747    3.055492
  10 C     6.0000    0    12.011    9.103936   -3.248997    4.283814
  11 C     6.0000    0    12.011    7.344419   -5.018499    2.744313
  12 N     7.0000    0    14.007    8.403033   -5.891001    0.598847
  13 C     6.0000    0    12.011    7.100187   -7.469195   -1.280578
  14 C     6.0000    0    12.011    4.908183   -5.940102   -2.490730
  15 N     7.0000    0    14.007    2.524022   -6.659618   -1.804729
  16 C     6.0000    0    12.011    0.346679   -5.023082   -2.180629
  17 C     6.0000    0    12.011    0.035304   -3.244764    0.106632
  18 C     6.0000    0    12.011   -2.543116   -1.896916    0.136782
  19 C     6.0000    0    12.011   -2.787642    0.163799    2.212651
  20 N     7.0000    0    14.007   -1.586673   -0.374118    4.419829
  21 C     6.0000    0    12.011   -1.049298    1.552327    6.309882
  22 C     6.0000    0    12.011    0.554317    3.740727    5.224807
  23 N     7.0000    0    14.007    2.101511    3.032309    3.300927
  24 C     6.0000    0    12.011    3.595757    4.777817    1.796739
  25 C     6.0000    0    12.011    2.015494    6.076172   -0.262219
  26 O     8.0000    0    15.999    0.514885    5.875861    6.143634
  27 C     6.0000    0    12.011    0.339925    0.251355    8.511414
  28 C     6.0000    0    12.011    1.244974    1.961965   10.670468
  29 C     6.0000    0    12.011    2.765850    0.385164   12.566352
  30 C     6.0000    0    12.011   -0.951208    3.333145   11.966159
  31 O     8.0000    0    15.999   -3.910118    2.166508    1.824489
  32 C     6.0000    0    12.011   -3.095342   -0.520490   -2.368660
  33 C     6.0000    0    12.011   -5.829670   -0.451794   -3.182166
  34 C     6.0000    0    12.011   -6.352042    1.226190   -5.462471
  35 C     6.0000    0    12.011   -9.132892    1.202556   -6.252511
  36 C     6.0000    0    12.011   -9.687017    2.901222   -8.526063
  37 C     6.0000    0    12.011  -12.464073    2.879302   -9.331560
  38 C     6.0000    0    12.011  -13.021800    4.580526  -11.602625
  39 C     6.0000    0    12.011  -15.797989    4.554944  -12.411140
  40 C     6.0000    0    12.011  -16.359295    6.256828  -14.682424
  41 C     6.0000    0    12.011  -19.139565    6.214889  -15.474104
  42 O     8.0000    0    15.999   -1.392567    0.461304   -3.569660
  43 O     8.0000    0    15.999    0.230154   -4.696974    2.406105
  44 O     8.0000    0    15.999    5.374598   -4.220875   -3.970603
  45 C     6.0000    0    12.011    6.451880  -10.093332   -0.223738
  46 C     6.0000    0    12.011    8.799652  -11.579160    0.572927
  47 O     8.0000    0    15.999    5.166831   -5.527600    3.465138
  48 C     6.0000    0    12.011    8.298323   -3.039089    7.060891
  49 C     6.0000    0    12.011    9.854780   -1.042074    8.466169
  50 C     6.0000    0    12.011    8.519635   -5.615509    8.364996
  51 H     1.0000    0     1.008    9.640266    1.831080   -2.346121
  52 H     1.0000    0     1.008   13.841477    3.480343   -1.618772
  53 H     1.0000    0     1.008   13.427955    3.466257    1.706592
  54 H     1.0000    0     1.008   12.802645    7.961939    0.706178
  55 H     1.0000    0     1.008   11.040875    7.196829   -2.053828
  56 H     1.0000    0     1.008    9.401226    6.496915    3.463095
  57 H     1.0000    0     1.008    7.639523    7.846241    0.927607
  58 H     1.0000    0     1.008    7.663493    0.402960    3.459353
  59 H     1.0000    0     1.008   11.047757   -3.984542    4.167212
  60 H     1.0000    0     1.008   10.061610   -5.020105    0.081840
  61 H     1.0000    0     1.008    8.468380   -7.698853   -2.827049
  62 H     1.0000    0     1.008    2.390597   -7.883048   -0.330818
  63 H     1.0000    0     1.008   -1.348668   -6.208720   -2.404490
  64 H     1.0000    0     1.008    0.657305   -3.916995   -3.902934
  65 H     1.0000    0     1.008    1.570674   -1.835638    0.005850
  66 H     1.0000    0     1.008   -4.020171   -3.328969    0.487828
  67 H     1.0000    0     1.008   -0.697740   -2.102625    4.493211
  68 H     1.0000    0     1.008   -2.817259    2.429018    6.955188
  69 H     1.0000    0     1.008    1.832586    1.311449    2.483785
  70 H     1.0000    0     1.008    4.397109    6.186173    3.092937
  71 H     1.0000    0     1.008    0.467342    7.128923    0.626720
  72 H     1.0000    0     1.008    3.177381    7.398084   -1.369694
  73 H     1.0000    0     1.008    1.219166    4.649445   -1.541931
  74 H     1.0000    0     1.008    1.984324   -0.757147    7.712442
  75 H     1.0000    0     1.008   -0.931027   -1.211119    9.284500
  76 H     1.0000    0     1.008    2.507275    3.409917    9.864036
  77 H     1.0000    0     1.008    4.370009   -0.567193   11.645750
  78 H     1.0000    0     1.008    3.519163    1.575677   14.093523
  79 H     1.0000    0     1.008    1.575599   -1.083985   13.438004
  80 H     1.0000    0     1.008   -1.898548    4.635719   10.659140
  81 H     1.0000    0     1.008   -2.353821    1.970979   12.684333
  82 H     1.0000    0     1.008   -0.269666    4.449215   13.581234
  83 H     1.0000    0     1.008   -6.939162    0.149020   -1.521521
  84 H     1.0000    0     1.008   -6.408181   -2.429544   -3.548661
  85 H     1.0000    0     1.008   -5.151635    0.623040   -7.052091
  86 H     1.0000    0     1.008   -5.758494    3.169297   -5.010644
  87 H     1.0000    0     1.008  -10.318412    1.800069   -4.642383
  88 H     1.0000    0     1.008   -9.714911   -0.752652   -6.697617
  89 H     1.0000    0     1.008   -8.495924    2.309804  -10.134120
  90 H     1.0000    0     1.008   -9.112690    4.856310   -8.077900
  91 H     1.0000    0     1.008  -13.653596    3.468344   -7.721092
  92 H     1.0000    0     1.008  -13.036772    0.922827   -9.779686
  93 H     1.0000    0     1.008  -11.829481    3.994055  -13.212024
  94 H     1.0000    0     1.008  -12.452534    6.537350  -11.153188
  95 H     1.0000    0     1.008  -16.991130    5.140671  -10.801652
  96 H     1.0000    0     1.008  -16.367900    2.597837  -12.861063
  97 H     1.0000    0     1.008  -15.164757    5.669920  -16.287621
  98 H     1.0000    0     1.008  -15.789347    8.210680  -14.229184
  99 H     1.0000    0     1.008  -19.491178    7.450869  -17.106859
 100 H     1.0000    0     1.008  -19.740252    4.292744  -15.995417
 101 H     1.0000    0     1.008  -20.369165    6.852660  -13.922206
 102 H     1.0000    0     1.008    2.050568   -5.010037    2.732088
 103 H     1.0000    0     1.008    5.417257  -11.134433   -1.698083
 104 H     1.0000    0     1.008    5.177769   -9.898193    1.408812
 105 H     1.0000    0     1.008    8.279968  -13.452593    1.300444
 106 H     1.0000    0     1.008   10.094290  -11.855524   -1.030582
 107 H     1.0000    0     1.008    9.843037  -10.584500    2.067380
 108 H     1.0000    0     1.008    6.288493   -2.477743    7.076104
 109 H     1.0000    0     1.008    9.648085    0.849778    7.639891
 110 H     1.0000    0     1.008    9.254946   -0.935346   10.451319
 111 H     1.0000    0     1.008   11.878192   -1.526917    8.439725
 112 H     1.0000    0     1.008    7.350972   -7.046942    7.426352
 113 H     1.0000    0     1.008   10.496774   -6.266520    8.370292
 114 H     1.0000    0     1.008    7.897741   -5.479377   10.341296

--------------------------------
INTERNAL COORDINATES (ANGSTROEM)
--------------------------------
 O      0   0   0     0.000000000000     0.00000000     0.00000000
 C      1   0   0     1.238935725561     0.00000000     0.00000000
 C      2   1   0     1.528713268843   119.34643458     0.00000000
 C      3   2   1     1.544058170741   111.28799418   291.88919769
 C      4   3   2     1.533750984026   103.62690883   208.73950959
 C      5   4   3     1.532237801319   103.13123976    38.01646145
 N      6   5   4     1.474164614857   102.71885100   325.41064878
 C      7   6   5     1.361618245202   126.95071505   210.32364671
 O      8   7   6     1.236670732814   121.18394508   170.98244554
 N      2   1   3     1.355387512096   123.29108016   182.39535593
 C     10   2   1     1.461350962401   122.23969762   351.35507016
 C     11  10   2     1.551590511265   108.14940731   284.21370991
 N     12  11  10     1.347579157671   113.55731375    77.02807745
 C     13  12  11     1.470345673639   124.71909957   183.93332339
 C     14  13  12     1.552526507156   109.46930014    64.67561590
 N     15  14  13     1.366929506224   115.77751322   251.71200870
 C     16  15  14     1.455032692522   121.92351695   162.34093960
 C     17  16  15     1.541980223375   109.90985040   273.08735333
 C     18  17  16     1.539701470681   112.67700094   193.16499388
 C     19  18  17     1.553256489498   113.97741416   187.52022688
 N     20  19  18     1.359822705223   114.93291115   324.38181188
 C     21  20  19     1.456176372248   122.32173449   163.72376386
 C     22  21  20     1.546253864714   112.11251187   302.48772260
 N     23  22  21     1.359170096957   113.71439847   330.92412557
 C     24  23  22     1.453277853009   124.24340112   173.31158713
 C     25  24  23     1.535732700653   112.12728872   279.92120568
 O     23  22  21     1.230219867854   122.12499598   154.97551533
 C     22  21  20     1.540006798099   107.44887335   180.62007906
 C     28  22  21     1.534323168958   116.65252348   176.39708787
 C     29  28  22     1.533130026726   109.27168263   184.65581041
 C     29  28  22     1.532072520806   112.07906877    60.81220979
 O     20  19  18     1.232138088899   121.74368123   141.73888699
 C     19  18  17     1.540691359446   112.22004422   306.86833897
 C     33  19  18     1.510062640123   116.00482564   146.21655668
 C     34  33  19     1.523469160717   114.43713108   171.94951167
 C     35  34  33     1.529848316075   112.71952097   178.92724877
 C     36  35  34     1.530187941434   113.22797850   179.44383782
 C     37  36  35     1.530168381427   113.49117506   179.80755407
 C     38  37  36     1.530316011314   113.54845259   179.91014603
 C     39  38  37     1.530189473346   113.54916679   179.89573549
 C     40  39  38     1.530979040554   113.61379255   179.97756771
 C     41  40  39     1.529900249168   113.14250401   179.97164396
 O     33  19  18     1.218919945055   120.66213694   325.45435935
 O     18  17  16     1.442864998175   109.22625395   312.60866056
 O     15  14  13     1.225511740132   120.00117047    72.13225897
 C     14  13  12     1.535827609449   111.83839517   293.29524666
 C     46  14  13     1.529531695225   112.56387882   299.19030018
 O     12  11  10     1.243359229098   121.72485958   257.58780186
 C     11  10   2     1.534179103493   111.30430167   160.36985451
 C     49  11  10     1.532371012418   111.43367424   308.39506769
 C     49  11  10     1.532569482651   110.22347584   185.04159606
 H      3   2   1     1.101191812576   105.24506505    53.15761347
 H      4   3   2     1.094872866321   111.49898932    85.65534849
 H      4   3   2     1.100613714360   109.60528929   326.44823119
 H      5   4   3     1.097214359147   113.10707483   159.67064849
 H      5   4   3     1.100148858876   110.32358970   280.94888291
 H      6   5   4     1.103055464180   111.20626624    83.77893725
 H      6   5   4     1.096173605263   113.01331969   205.88243828
 H     10   2   1     1.016242441630   117.35631033   193.55681036
 H     11  10   2     1.101535775944   106.52768848    40.70289180
 H     13  12  11     1.028379779224   115.17480186   348.49821623
 H     14  13  12     1.099398743035   104.92103277   175.80706401
 H     16  15  14     1.016102511164   116.45289547    11.32886781
 H     17  16  15     1.101153042818   108.70783588   152.41201558
 H     17  16  15     1.095569625909   108.23422275    33.31181483
 H     18  17  16     1.104086652600   107.19484592    72.18381126
 H     19  18  17     1.104409589252   108.12278629    67.82209964
 H     21  20  19     1.029290122686   115.59580612   358.19315489
 H     22  21  20     1.098688309033   110.04741349    59.51915771
 H     24  23  22     1.018085249641   118.72757104    13.03104612
 H     25  24  23     1.098060075194   107.41959323    41.47933136
 H     26  25  24     1.096721844782   109.25071971    59.58903672
 H     26  25  24     1.100374902591   110.97798448   179.60354343
 H     26  25  24     1.098262847682   109.80638524   299.98686288
 H     28  22  21     1.104888780577   107.60216064    53.73706703
 H     28  22  21     1.103916145401   107.63271809   299.38165611
 H     29  28  22     1.102455434454   108.11539273   302.28930224
 H     30  29  28     1.100868564991   111.36814139    56.96978845
 H     30  29  28     1.099498854779   111.06709724   177.30983410
 H     30  29  28     1.101765561029   110.97134385   297.07049526
 H     31  29  28     1.097637677175   111.21464618   295.89741981
 H     31  29  28     1.102238726495   110.81708165    56.91268335
 H     31  29  28     1.099693393536   110.69465642   176.34543760
 H     34  33  19     1.103647086943   106.83907753    48.04309405
 H     34  33  19     1.107547651655   106.97926122   295.61807135
 H     35  34  33     1.101357174970   109.35370749    56.10710661
 H     35  34  33     1.101414884478   108.68975601   301.08186493
 H     36  35  34     1.104319579785   109.46652247    57.29710217
 H     36  35  34     1.104917119824   109.51397683   301.58479552
 H     37  36  35     1.104235078548   109.27030787    57.48277520
 H     37  36  35     1.104076093555   109.19780224   302.07376417
 H     38  37  36     1.104389539259   109.28653930    57.63775871
 H     38  37  36     1.104522972695   109.29452017   302.17636297
 H     39  38  37     1.104414584110   109.27520417    57.60472221
 H     39  38  37     1.104348460774   109.26088518   302.17708724
 H     40  39  38     1.104588513968   109.31154868    57.69523046
 H     40  39  38     1.104637400246   109.30976844   302.25644844
 H     41  40  39     1.103437604326   109.12497570    57.62826192
 H     41  40  39     1.103407830573   109.11920003   302.30703999
 H     42  41  40     1.099513771641   111.67202873   180.00460418
 H     42  41  40     1.100794581292   111.08326718   300.24544927
 H     42  41  40     1.100771926970   111.08234358    59.76557184
 H     44  18  17     0.992568187770   107.74731776    79.13400223
 H     46  14  13     1.100895869941   107.78842621   177.70347568
 H     46  14  13     1.100721187474   109.74296032    61.07150147
 H     47  46  14     1.098486547242   110.92720512   180.62056123
 H     47  46  14     1.100345936608   111.19251761   300.61124725
 H     47  46  14     1.098777709951   111.11803862    60.70280863
 H     49  11  10     1.104289532273   107.10271738    67.74629693
 H     50  49  11     1.097907029951   112.45918056    60.21041232
 H     50  49  11     1.098856546586   110.12767894   180.41560286
 H     50  49  11     1.101142437682   110.84269932   299.56771982
 H     51  49  11     1.096792962532   111.55404365   301.35517547
 H     51  49  11     1.101517847500   110.60683024    62.48184033
 H     51  49  11     1.098733492633   110.32763511   181.43054000

---------------------------
INTERNAL COORDINATES (A.U.)
---------------------------
 O      0   0   0     0.000000000000     0.00000000     0.00000000
 C      1   0   0     2.341249218841     0.00000000     0.00000000
 C      2   1   0     2.888849415404   119.34643458     0.00000000
 C      3   2   1     2.917847077544   111.28799418   291.88919769
 C      4   3   2     2.898369317442   103.62690883   208.73950959
 C      5   4   3     2.895509816535   103.13123976    38.01646145
 N      6   5   4     2.785767398398   102.71885100   325.41064878
 C      7   6   5     2.573085582383   126.95071505   210.32364671
 O      8   7   6     2.336969002855   121.18394508   170.98244554
 N      2   1   3     2.561311203199   123.29108016   182.39535593
 C     10   2   1     2.761553104481   122.23969762   351.35507016
 C     11  10   2     2.932081138282   108.14940731   284.21370991
 N     12  11  10     2.546555551778   113.55731375    77.02807745
 C     13  12  11     2.778550645375   124.71909957   183.93332339
 C     14  13  12     2.933849914177   109.46930014    64.67561590
 N     15  14  13     2.583122411139   115.77751322   251.71200870
 C     16  15  14     2.749613304769   121.92351695   162.34093960
 C     17  16  15     2.913920326101   109.90985040   273.08735333
 C     18  17  16     2.909614107582   112.67700094   193.16499388
 C     19  18  17     2.935229380887   113.97741416   187.52022688
 N     20  19  18     2.569692503560   114.93291115   324.38181188
 C     21  20  19     2.751774546235   122.32173449   163.72376386
 C     22  21  20     2.921996337826   112.11251187   302.48772260
 N     23  22  21     2.568459252663   113.71439847   330.92412557
 C     24  23  22     2.746297138680   124.24340112   173.31158713
 C     25  24  23     2.902114219142   112.12728872   279.92120568
 O     23  22  21     2.324778634752   122.12499598   154.97551533
 C     22  21  20     2.910191092785   107.44887335   180.62007906
 C     28  22  21     2.899450590261   116.65252348   176.39708787
 C     29  28  22     2.897195878203   109.27168263   184.65581041
 C     29  28  22     2.895197481630   112.07906877    60.81220979
 O     20  19  18     2.328403547191   121.74368123   141.73888699
 C     19  18  17     2.911484726252   112.22004422   306.86833897
 C     33  19  18     2.853604834899   116.00482564   146.21655668
 C     34  33  19     2.878939487229   114.43713108   171.94951167
 C     35  34  33     2.890994343822   112.71952097   178.92724877
 C     36  35  34     2.891636142739   113.22797850   179.44383782
 C     37  36  35     2.891599179683   113.49117506   179.80755407
 C     38  37  36     2.891878159739   113.54845259   179.91014603
 C     39  38  37     2.891639037634   113.54916679   179.89573549
 C     40  39  38     2.893131103420   113.61379255   179.97756771
 C     41  40  39     2.891092483145   113.14250401   179.97164396
 O     33  19  18     2.303424875328   120.66213694   325.45435935
 O     18  17  16     2.726619694771   109.22625395   312.60866056
 O     15  14  13     2.315881562754   120.00117047    72.13225897
 C     14  13  12     2.902293570773   111.83839517   293.29524666
 C     46  14  13     2.890396017128   112.56387882   299.19030018
 O     12  11  10     2.349608429079   121.72485958   257.58780186
 C     11  10   2     2.899178345986   111.30430167   160.36985451
 C     49  11  10     2.895761549029   111.43367424   308.39506769
 C     49  11  10     2.896136603415   110.22347584   185.04159606
 H      3   2   1     2.080950946684   105.24506505    53.15761347
 H      4   3   2     2.069009868808   111.49898932    85.65534849
 H      4   3   2     2.079858499379   109.60528929   326.44823119
 H      5   4   3     2.073434648994   113.10707483   159.67064849
 H      5   4   3     2.078980049822   110.32358970   280.94888291
 H      6   5   4     2.084472737826   111.20626624    83.77893725
 H      6   5   4     2.071467909179   113.01331969   205.88243828
 H     10   2   1     1.920419900347   117.35631033   193.55681036
[...]
freq.      83.63  E(vib)   ...       0.48 
freq.      84.15  E(vib)   ...       0.48 
freq.      87.27  E(vib)   ...       0.48 
freq.      94.17  E(vib)   ...       0.47 
freq.      95.66  E(vib)   ...       0.47 
freq.     103.16  E(vib)   ...       0.46 
freq.     104.53  E(vib)   ...       0.46 
freq.     109.63  E(vib)   ...       0.45 
freq.     111.82  E(vib)   ...       0.45 
freq.     115.98  E(vib)   ...       0.44 
freq.     118.52  E(vib)   ...       0.44 
freq.     128.09  E(vib)   ...       0.43 
freq.     134.20  E(vib)   ...       0.42 
freq.     147.98  E(vib)   ...       0.41 
freq.     150.83  E(vib)   ...       0.40 
freq.     153.07  E(vib)   ...       0.40 
freq.     155.03  E(vib)   ...       0.40 
freq.     156.32  E(vib)   ...       0.40 
freq.     166.87  E(vib)   ...       0.39 
freq.     171.63  E(vib)   ...       0.38 
freq.     176.05  E(vib)   ...       0.38 
freq.     190.83  E(vib)   ...       0.36 
freq.     201.73  E(vib)   ...       0.35 
freq.     203.89  E(vib)   ...       0.35 
freq.     209.87  E(vib)   ...       0.34 
freq.     220.62  E(vib)   ...       0.33 
freq.     223.11  E(vib)   ...       0.33 
freq.     227.52  E(vib)   ...       0.33 
freq.     230.49  E(vib)   ...       0.32 
freq.     235.45  E(vib)   ...       0.32 
freq.     236.37  E(vib)   ...       0.32 
freq.     237.02  E(vib)   ...       0.32 
freq.     242.84  E(vib)   ...       0.31 
freq.     245.58  E(vib)   ...       0.31 
freq.     252.18  E(vib)   ...       0.30 
freq.     262.43  E(vib)   ...       0.29 
freq.     265.31  E(vib)   ...       0.29 
freq.     268.32  E(vib)   ...       0.29 
freq.     272.25  E(vib)   ...       0.29 
freq.     289.54  E(vib)   ...       0.27 
freq.     294.49  E(vib)   ...       0.27 
freq.     309.17  E(vib)   ...       0.26 
freq.     309.40  E(vib)   ...       0.26 
freq.     311.73  E(vib)   ...       0.25 
freq.     324.28  E(vib)   ...       0.25 
freq.     328.11  E(vib)   ...       0.24 
freq.     344.94  E(vib)   ...       0.23 
freq.     353.13  E(vib)   ...       0.22 
freq.     364.90  E(vib)   ...       0.22 
freq.     376.32  E(vib)   ...       0.21 
freq.     379.85  E(vib)   ...       0.21 
freq.     383.75  E(vib)   ...       0.20 
freq.     392.77  E(vib)   ...       0.20 
freq.     395.77  E(vib)   ...       0.20 
freq.     413.02  E(vib)   ...       0.19 
freq.     419.44  E(vib)   ...       0.18 
freq.     426.07  E(vib)   ...       0.18 
freq.     441.34  E(vib)   ...       0.17 
freq.     451.14  E(vib)   ...       0.16 
freq.     457.47  E(vib)   ...       0.16 
freq.     462.13  E(vib)   ...       0.16 
freq.     466.41  E(vib)   ...       0.16 
freq.     476.00  E(vib)   ...       0.15 
freq.     481.14  E(vib)   ...       0.15 
freq.     500.67  E(vib)   ...       0.14 
freq.     512.99  E(vib)   ...       0.13 
freq.     527.75  E(vib)   ...       0.13 
freq.     529.85  E(vib)   ...       0.13 
freq.     549.98  E(vib)   ...       0.12 
freq.     565.63  E(vib)   ...       0.11 
freq.     577.48  E(vib)   ...       0.11 
freq.     606.61  E(vib)   ...       0.10 
freq.     620.52  E(vib)   ...       0.09 
freq.     626.38  E(vib)   ...       0.09 
freq.     654.11  E(vib)   ...       0.08 
freq.     666.13  E(vib)   ...       0.08 
freq.     675.04  E(vib)   ...       0.08 
freq.     680.94  E(vib)   ...       0.08 
freq.     696.30  E(vib)   ...       0.07 
freq.     707.73  E(vib)   ...       0.07 
freq.     711.67  E(vib)   ...       0.07 
freq.     715.08  E(vib)   ...       0.07 
freq.     717.42  E(vib)   ...       0.07 
freq.     722.22  E(vib)   ...       0.07 
freq.     728.91  E(vib)   ...       0.06 
freq.     735.85  E(vib)   ...       0.06 
freq.     736.73  E(vib)   ...       0.06 
freq.     745.70  E(vib)   ...       0.06 
freq.     757.19  E(vib)   ...       0.06 
freq.     764.78  E(vib)   ...       0.06 
freq.     771.06  E(vib)   ...       0.05 
freq.     777.53  E(vib)   ...       0.05 
freq.     783.40  E(vib)   ...       0.05 
freq.     802.76  E(vib)   ...       0.05 
freq.     815.84  E(vib)   ...       0.05 
freq.     822.86  E(vib)   ...       0.05 
freq.     830.56  E(vib)   ...       0.04 
freq.     849.15  E(vib)   ...       0.04 
freq.     858.68  E(vib)   ...       0.04 
freq.     862.11  E(vib)   ...       0.04 
freq.     865.74  E(vib)   ...       0.04 
freq.     873.79  E(vib)   ...       0.04 
freq.     877.03  E(vib)   ...       0.04 
freq.     878.80  E(vib)   ...       0.04 
freq.     888.84  E(vib)   ...       0.04 
freq.     894.61  E(vib)   ...       0.03 
freq.     898.29  E(vib)   ...       0.03 
freq.     903.29  E(vib)   ...       0.03 
freq.     905.90  E(vib)   ...       0.03 
freq.     906.80  E(vib)   ...       0.03 
freq.     914.53  E(vib)   ...       0.03 
freq.     919.85  E(vib)   ...       0.03 
freq.     927.67  E(vib)   ...       0.03 
freq.     938.54  E(vib)   ...       0.03 
freq.     940.47  E(vib)   ...       0.03 
freq.     941.36  E(vib)   ...       0.03 
freq.     946.50  E(vib)   ...       0.03 
freq.     950.22  E(vib)   ...       0.03 
freq.     961.32  E(vib)   ...       0.03 
freq.     965.20  E(vib)   ...       0.03 
freq.     969.42  E(vib)   ...       0.03 
freq.     979.27  E(vib)   ...       0.03 
freq.     982.73  E(vib)   ...       0.02 
freq.     987.92  E(vib)   ...       0.02 
freq.    1002.22  E(vib)   ...       0.02 
freq.    1004.10  E(vib)   ...       0.02 
freq.    1018.20  E(vib)   ...       0.02 
freq.    1020.48  E(vib)   ...       0.02 
freq.    1025.12  E(vib)   ...       0.02 
freq.    1027.86  E(vib)   ...       0.02 
freq.    1038.14  E(vib)   ...       0.02 
freq.    1041.85  E(vib)   ...       0.02 
freq.    1044.22  E(vib)   ...       0.02 
freq.    1045.23  E(vib)   ...       0.02 
freq.    1049.35  E(vib)   ...       0.02 
freq.    1050.72  E(vib)   ...       0.02 
freq.    1061.08  E(vib)   ...       0.02 
freq.    1062.33  E(vib)   ...       0.02 
freq.    1066.40  E(vib)   ...       0.02 
freq.    1071.53  E(vib)   ...       0.02 
freq.    1073.92  E(vib)   ...       0.02 
freq.    1074.83  E(vib)   ...       0.02 
freq.    1085.64  E(vib)   ...       0.02 
freq.    1094.77  E(vib)   ...       0.02 
freq.    1099.62  E(vib)   ...       0.02 
freq.    1104.82  E(vib)   ...       0.02 
freq.    1114.74  E(vib)   ...       0.01 
freq.    1115.81  E(vib)   ...       0.01 
freq.    1123.14  E(vib)   ...       0.01 
freq.    1125.62  E(vib)   ...       0.01 
freq.    1132.48  E(vib)   ...       0.01 
freq.    1139.83  E(vib)   ...       0.01 
freq.    1142.58  E(vib)   ...       0.01 
freq.    1161.31  E(vib)   ...       0.01 
freq.    1163.77  E(vib)   ...       0.01 
freq.    1166.08  E(vib)   ...       0.01 
freq.    1170.45  E(vib)   ...       0.01 
freq.    1185.22  E(vib)   ...       0.01 
freq.    1185.83  E(vib)   ...       0.01 
freq.    1190.64  E(vib)   ...       0.01 
freq.    1192.75  E(vib)   ...       0.01 
freq.    1204.42  E(vib)   ...       0.01 
freq.    1207.54  E(vib)   ...       0.01 
freq.    1212.48  E(vib)   ...       0.01 
freq.    1214.79  E(vib)   ...       0.01 
freq.    1216.82  E(vib)   ...       0.01 
freq.    1222.43  E(vib)   ...       0.01 
freq.    1227.46  E(vib)   ...       0.01 
freq.    1232.78  E(vib)   ...       0.01 
freq.    1236.45  E(vib)   ...       0.01 
freq.    1241.28  E(vib)   ...       0.01 
freq.    1242.74  E(vib)   ...       0.01 
freq.    1245.71  E(vib)   ...       0.01 
freq.    1248.00  E(vib)   ...       0.01 
freq.    1257.33  E(vib)   ...       0.01 
freq.    1268.70  E(vib)   ...       0.01 
freq.    1270.45  E(vib)   ...       0.01 
freq.    1272.95  E(vib)   ...       0.01 
freq.    1274.67  E(vib)   ...       0.01 
freq.    1282.46  E(vib)   ...       0.01 
freq.    1283.28  E(vib)   ...       0.01 
freq.    1286.61  E(vib)   ...       0.01 
freq.    1287.54  E(vib)   ...       0.01 
freq.    1293.33  E(vib)   ...       0.01 
freq.    1294.17  E(vib)   ...       0.01 
freq.    1295.74  E(vib)   ...       0.01 
freq.    1296.19  E(vib)   ...       0.01 
freq.    1297.61  E(vib)   ...       0.01 
freq.    1299.06  E(vib)   ...       0.01 
freq.    1303.34  E(vib)   ...       0.01 
freq.    1304.52  E(vib)   ...       0.01 
freq.    1308.39  E(vib)   ...       0.01 
freq.    1311.74  E(vib)   ...       0.01 
freq.    1312.82  E(vib)   ...       0.01 
freq.    1316.55  E(vib)   ...       0.01 
freq.    1322.78  E(vib)   ...       0.01 
freq.    1323.27  E(vib)   ...       0.01 
freq.    1329.69  E(vib)   ...       0.01 
freq.    1335.36  E(vib)   ...       0.01 
freq.    1335.43  E(vib)   ...       0.01 
freq.    1338.75  E(vib)   ...       0.01 
freq.    1343.54  E(vib)   ...       0.01 
freq.    1346.64  E(vib)   ...       0.01 
freq.    1348.42  E(vib)   ...       0.01 
freq.    1350.03  E(vib)   ...       0.01 
freq.    1351.54  E(vib)   ...       0.01 
freq.    1352.14  E(vib)   ...       0.01 
freq.    1353.93  E(vib)   ...       0.01 
freq.    1355.24  E(vib)   ...       0.01 
freq.    1363.38  E(vib)   ...       0.01 
freq.    1363.70  E(vib)   ...       0.01 
freq.    1369.42  E(vib)   ...       0.01 
freq.    1373.70  E(vib)   ...       0.01 
freq.    1391.33  E(vib)   ...       0.00 
freq.    1400.66  E(vib)   ...       0.00 
freq.    1406.82  E(vib)   ...       0.00 
freq.    1420.70  E(vib)   ...       0.00 
freq.    1428.86  E(vib)   ...       0.00 
freq.    1433.15  E(vib)   ...       0.00 
freq.    1433.59  E(vib)   ...       0.00 
freq.    1436.94  E(vib)   ...       0.00 
freq.    1437.42  E(vib)   ...       0.00 
freq.    1437.93  E(vib)   ...       0.00 
freq.    1438.95  E(vib)   ...       0.00 
freq.    1439.99  E(vib)   ...       0.00 
freq.    1442.64  E(vib)   ...       0.00 
freq.    1443.51  E(vib)   ...       0.00 
freq.    1443.92  E(vib)   ...       0.00 
freq.    1445.27  E(vib)   ...       0.00 
freq.    1445.43  E(vib)   ...       0.00 
freq.    1446.62  E(vib)   ...       0.00 
freq.    1450.48  E(vib)   ...       0.00 
freq.    1450.84  E(vib)   ...       0.00 
freq.    1451.85  E(vib)   ...       0.00 
freq.    1452.95  E(vib)   ...       0.00 
freq.    1454.59  E(vib)   ...       0.00 
freq.    1455.67  E(vib)   ...       0.00 
freq.    1457.40  E(vib)   ...       0.00 
freq.    1460.07  E(vib)   ...       0.00 
freq.    1464.75  E(vib)   ...       0.00 
freq.    1464.88  E(vib)   ...       0.00 
freq.    1466.41  E(vib)   ...       0.00 
freq.    1468.72  E(vib)   ...       0.00 
freq.    1470.87  E(vib)   ...       0.00 
freq.    1487.00  E(vib)   ...       0.00 
freq.    1487.74  E(vib)   ...       0.00 
freq.    1509.66  E(vib)   ...       0.00 
freq.    1534.64  E(vib)   ...       0.00 
freq.    1640.78  E(vib)   ...       0.00 
freq.    1643.01  E(vib)   ...       0.00 
freq.    1657.83  E(vib)   ...       0.00 
freq.    1666.27  E(vib)   ...       0.00 
freq.    1687.30  E(vib)   ...       0.00 
freq.    1703.54  E(vib)   ...       0.00 
freq.    1720.31  E(vib)   ...       0.00 
freq.    2920.28  E(vib)   ...       0.00 
freq.    2924.10  E(vib)   ...       0.00 
freq.    2925.09  E(vib)   ...       0.00 
freq.    2925.72  E(vib)   ...       0.00 
freq.    2926.49  E(vib)   ...       0.00 
freq.    2931.81  E(vib)   ...       0.00 
freq.    2939.17  E(vib)   ...       0.00 
freq.    2941.53  E(vib)   ...       0.00 
freq.    2941.83  E(vib)   ...       0.00 
freq.    2944.31  E(vib)   ...       0.00 
freq.    2944.91  E(vib)   ...       0.00 
freq.    2945.31  E(vib)   ...       0.00 
freq.    2946.03  E(vib)   ...       0.00 
freq.    2949.00  E(vib)   ...       0.00 
freq.    2949.91  E(vib)   ...       0.00 
freq.    2953.13  E(vib)   ...       0.00 
freq.    2956.24  E(vib)   ...       0.00 
freq.    2957.64  E(vib)   ...       0.00 
freq.    2958.66  E(vib)   ...       0.00 
freq.    2961.09  E(vib)   ...       0.00 
freq.    2965.02  E(vib)   ...       0.00 
freq.    2965.19  E(vib)   ...       0.00 
freq.    2965.45  E(vib)   ...       0.00 
freq.    2967.21  E(vib)   ...       0.00 
freq.    2967.64  E(vib)   ...       0.00 
freq.    2969.07  E(vib)   ...       0.00 
freq.    2973.15  E(vib)   ...       0.00 
freq.    2973.62  E(vib)   ...       0.00 
freq.    2976.62  E(vib)   ...       0.00 
freq.    2977.14  E(vib)   ...       0.00 
freq.    2978.66  E(vib)   ...       0.00 
freq.    2981.69  E(vib)   ...       0.00 
freq.    2984.57  E(vib)   ...       0.00 
freq.    2987.54  E(vib)   ...       0.00 
freq.    2991.08  E(vib)   ...       0.00 
freq.    2996.08  E(vib)   ...       0.00 
freq.    3007.24  E(vib)   ...       0.00 
freq.    3011.29  E(vib)   ...       0.00 
freq.    3011.59  E(vib)   ...       0.00 
freq.    3012.80  E(vib)   ...       0.00 
freq.    3013.44  E(vib)   ...       0.00 
freq.    3019.14  E(vib)   ...       0.00 
freq.    3019.63  E(vib)   ...       0.00 
freq.    3026.41  E(vib)   ...       0.00 
freq.    3026.70  E(vib)   ...       0.00 
freq.    3027.19  E(vib)   ...       0.00 
freq.    3030.96  E(vib)   ...       0.00 
freq.    3035.39  E(vib)   ...       0.00 
freq.    3039.51  E(vib)   ...       0.00 
freq.    3042.73  E(vib)   ...       0.00 
freq.    3043.40  E(vib)   ...       0.00 
freq.    3043.82  E(vib)   ...       0.00 
freq.    3045.99  E(vib)   ...       0.00 
freq.    3047.69  E(vib)   ...       0.00 
freq.    3058.67  E(vib)   ...       0.00 
freq.    3066.39  E(vib)   ...       0.00 
freq.    3069.04  E(vib)   ...       0.00 
freq.    3071.53  E(vib)   ...       0.00 
freq.    3265.47  E(vib)   ...       0.00 
freq.    3299.88  E(vib)   ...       0.00 
freq.    3321.93  E(vib)   ...       0.00 
freq.    3470.13  E(vib)   ...       0.00 
freq.    3502.64  E(vib)   ...       0.00 
freq.    3503.85  E(vib)   ...       0.00 

------------
INNER ENERGY
------------

The inner energy is: U= E(el) + E(ZPE) + E(vib) + E(rot) + E(trans)
    E(el)   - is the total energy from the electronic structure calculation
              = E(kin-el) + E(nuc-el) + E(el-el) + E(nuc-nuc)
    E(ZPE)  - the the zero temperature vibrational energy from the frequency calculation
    E(vib)  - the the finite temperature correction to E(ZPE) due to population
              of excited vibrational states
    E(rot)  - is the rotational thermal energy
    E(trans)- is the translational thermal energy

Summary of contributions to the inner energy U:
Electronic energy                ...  -2380.07519128 Eh
Zero point energy                ...      0.97642931 Eh     612.72 kcal/mol
Thermal vibrational correction   ...      0.05628984 Eh      35.32 kcal/mol
Thermal rotational correction    ...      0.00141627 Eh       0.89 kcal/mol
Thermal translational correction ...      0.00141627 Eh       0.89 kcal/mol
-----------------------------------------------------------------------
Total thermal energy                  -2379.03963959 Eh


Summary of corrections to the electronic energy:
(perhaps to be used in another calculation)
Total thermal correction                  0.05912238 Eh      37.10 kcal/mol
Non-thermal (ZPE) correction              0.97642931 Eh     612.72 kcal/mol
-----------------------------------------------------------------------
Total correction                          1.03555169 Eh     649.82 kcal/mol


--------
ENTHALPY
--------

The enthalpy is H = U + kB*T
                kB is Boltzmann's constant
Total free energy                 ...  -2379.03963959 Eh 
Thermal Enthalpy correction       ...      0.00094421 Eh       0.59 kcal/mol
-----------------------------------------------------------------------
Total Enthalpy                    ...  -2379.03869538 Eh


Note: Only C1 symmetry has been detected, increase convergence thresholds 
      if your molecule has a higher symmetry. Symmetry factor of 1.0 is   
      used for the rotational entropy correction. 
 

Note: Rotational entropy computed according to Herzberg 
Infrared and Raman Spectra, Chapter V,1, Van Nostrand Reinhold, 1945 
Point Group:  C1, Symmetry Number:   1  
Rotational constants in cm-1:     0.002422     0.000844     0.000794 

Vibrational entropy computed according to the QRRHO of S. Grimme
Chem.Eur.J. 2012 18 9955


-------
ENTROPY
-------

The entropy contributions are T*S = T*(S(el)+S(vib)+S(rot)+S(trans))
     S(el)   - electronic entropy
     S(vib)  - vibrational entropy
     S(rot)  - rotational entropy
     S(trans)- translational entropy
The entropies will be listed as mutliplied by the temperature to get
units of energy

Electronic entropy                ...      0.00000000 Eh      0.00 kcal/mol
Vibrational entropy               ...      0.10515330 Eh     65.98 kcal/mol
Rotational entropy                ...      0.01906535 Eh     11.96 kcal/mol
Translational entropy             ...      0.02166895 Eh     13.60 kcal/mol
-----------------------------------------------------------------------
Final entropy term                ...      0.14588759 Eh     91.55 kcal/mol

In case the symmetry of your molecule has not been determined correctly
or in case you have a reason to use a different symmetry number we print 
out the resulting rotational entropy values for sn=1,12 :
 --------------------------------------------------------
|  sn= 1 | S(rot)=       0.01906535 Eh     11.96 kcal/mol|
|  sn= 2 | S(rot)=       0.01841089 Eh     11.55 kcal/mol|
|  sn= 3 | S(rot)=       0.01802806 Eh     11.31 kcal/mol|
|  sn= 4 | S(rot)=       0.01775643 Eh     11.14 kcal/mol|
|  sn= 5 | S(rot)=       0.01754574 Eh     11.01 kcal/mol|
|  sn= 6 | S(rot)=       0.01737360 Eh     10.90 kcal/mol|
|  sn= 7 | S(rot)=       0.01722805 Eh     10.81 kcal/mol|
|  sn= 8 | S(rot)=       0.01710198 Eh     10.73 kcal/mol|
|  sn= 9 | S(rot)=       0.01699077 Eh     10.66 kcal/mol|
|  sn=10 | S(rot)=       0.01689129 Eh     10.60 kcal/mol|
|  sn=11 | S(rot)=       0.01680130 Eh     10.54 kcal/mol|
|  sn=12 | S(rot)=       0.01671914 Eh     10.49 kcal/mol|
 --------------------------------------------------------


-------------------
GIBBS FREE ENERGY
-------------------

The Gibbs free energy is G = H - T*S

Total enthalpy                    ...  -2379.03869538 Eh 
Total entropy correction          ...     -0.14588759 Eh    -91.55 kcal/mol
-----------------------------------------------------------------------
Final Gibbs free energy         ...  -2379.18458297 Eh

For completeness - the Gibbs free energy minus the electronic energy
G-E(el)                           ...      0.89060831 Eh    558.86 kcal/mol

--------------------------------------------------------------------------
WARNING: No preset parameters were found for the device that Open MPI
detected:

  Local host:            eu-g1-018-4
  Device name:           mlx5_0
  Device vendor ID:      0x02c9
  Device vendor part ID: 4123

Default device parameters will be used, which may result in lower
performance.  You can edit any of the files specified by the
btl_openib_device_param_files MCA parameter to set values for your
device.

NOTE: You can turn off this warning by setting the MCA parameter
      btl_openib_warn_no_device_params_found to 0.
--------------------------------------------------------------------------
--------------------------------------------------------------------------
WARNING: There was an error initializing an OpenFabrics device.

  Local host:   eu-g1-018-4
  Local device: mlx5_0
--------------------------------------------------------------------------

Timings for individual modules:

Sum of individual times         ...    24124.540 sec (= 402.076 min)
GTO integral calculation        ...       15.624 sec (=   0.260 min)   0.1 %
SCF iterations                  ...      346.293 sec (=   5.772 min)   1.4 %
SCF Gradient evaluation         ...       69.787 sec (=   1.163 min)   0.3 %
Geometry relaxation             ...        4.101 sec (=   0.068 min)   0.0 %
Analytical frequency calculation...    23688.735 sec (= 394.812 min)  98.2 %
                             ****ORCA TERMINATED NORMALLY****
TOTAL RUN TIME: 0 days 6 hours 42 minutes 22 seconds 560 msec
