
                                 *****************
                                 * O   R   C   A *
                                 *****************

           --- An Ab Initio, DFT and Semiempirical electronic structure package ---

                  #######################################################
                  #                        -***-                        #
                  #          Department of theory and spectroscopy      #
                  #               Directorship: Frank Neese             #
                  #        Max Planck Institute fuer Kohlenforschung    #
                  #                Kaiser Wilhelm Platz 1               #
                  #                 D-45470 Muelheim/Ruhr               #
                  #                      Germany                        #
                  #                                                     #
                  #                  All rights reserved                #
                  #                        -***-                        #
                  #######################################################


                         Program Version 4.2.0 -  RELEASE  -


 With contributions from (in alphabetic order):
   Daniel Aravena         : Magnetic Suceptibility
   Michael Atanasov       : Ab Initio Ligand Field Theory (pilot matlab implementation)
   Alexander A. Auer      : GIAO ZORA, VPT2
   Ute Becker             : Parallelization
   Giovanni Bistoni       : ED, misc. LED, open-shell LED, HFLED
   Martin Brehm           : Molecular dynamics
   Dmytro Bykov           : SCF Hessian
   Vijay G. Chilkuri      : MRCI spin determinant printing, contributions to CSF-ICE
   Dipayan Datta          : RHF DLPNO-CCSD density
   Achintya Kumar Dutta   : EOM-CC, STEOM-CC
   Dmitry Ganyushin       : Spin-Orbit,Spin-Spin,Magnetic field MRCI
   Miquel Garcia          : C-PCM Hessian, Gaussian charge scheme
   Yang Guo               : DLPNO-NEVPT2, CIM, IAO-localization
   Andreas Hansen         : Spin unrestricted coupled pair/coupled cluster methods
   Benjamin Helmich-Paris : CASSCF linear response (MC-RPA)
   Lee Huntington         : MR-EOM, pCC
   Robert Izsak           : Overlap fitted RIJCOSX, COSX-SCS-MP3, EOM
   Christian Kollmar      : KDIIS, OOCD, Brueckner-CCSD(T), CCSD density
   Simone Kossmann        : Meta GGA functionals, TD-DFT gradient, OOMP2, MP2 Hessian
   Martin Krupicka        : AUTO-CI
   Lucas Lang             : DCDCAS
   Dagmar Lenk            : GEPOL surface, SMD
   Dimitrios Liakos       : Extrapolation schemes; Compound Job, initial MDCI parallelization
   Dimitrios Manganas     : Further ROCIS development; embedding schemes
   Dimitrios Pantazis     : SARC Basis sets
   Taras Petrenko         : DFT Hessian,TD-DFT gradient, ASA, ECA, R-Raman, ABS, FL, XAS/XES, NRVS
   Peter Pinski           : DLPNO-MP2, DLPNO-MP2 Gradient
   Christoph Reimann      : Effective Core Potentials
   Marius Retegan         : Local ZFS, SOC
   Christoph Riplinger    : Optimizer, TS searches, QM/MM, DLPNO-CCSD(T), (RO)-DLPNO pert. Triples
   Tobias Risthaus        : Range-separated hybrids, TD-DFT gradient, RPA, STAB
   Michael Roemelt        : Original ROCIS implementation
   Masaaki Saitow         : Open-shell DLPNO-CCSD energy and density
   Barbara Sandhoefer     : DKH picture change effects
   Avijit Sen             : IP-ROCIS
   Kantharuban Sivalingam : CASSCF convergence, NEVPT2, FIC-MRCI
   Bernardo de Souza      : ESD, SOC TD-DFT
   Georgi Stoychev        : AutoAux, RI-MP2 NMR
   Willem Van den Heuvel  : Paramagnetic NMR
   Boris Wezisla          : Elementary symmetry handling
   Frank Wennmohs         : Technical directorship


 We gratefully acknowledge several colleagues who have allowed us to
 interface, adapt or use parts of their codes:
   Stefan Grimme, W. Hujo, H. Kruse,             : VdW corrections, initial TS optimization,
                  C. Bannwarth                     DFT functionals, gCP, sTDA/sTD-DF
   Ed Valeev, F. Pavosevic, A. Kumar             : LibInt (2-el integral package), F12 methods
   Garnet Chan, S. Sharma, J. Yang, R. Olivares  : DMRG
   Ulf Ekstrom                                   : XCFun DFT Library
   Mihaly Kallay                                 : mrcc  (arbitrary order and MRCC methods)
   Andreas Klamt, Michael Diedenhofen            : otool_cosmo (COSMO solvation model)
   Jiri Pittner, Ondrej Demel                    : Mk-CCSD
   Frank Weinhold                                : gennbo (NPA and NBO analysis)
   Christopher J. Cramer and Donald G. Truhlar   : smd solvation model
   Lars Goerigk                                  : TD-DFT with DH, B97 family of functionals
   V. Asgeirsson, H. Jonsson                     : NEB implementation
   FAccTs GmbH                                   : IRC, NEB, NEB-TS, Multilevel, MM, QM/MM, CI optimization
   S Lehtola, MJT Oliveira, MAL Marques          : LibXC Library


 Your calculation uses the libint2 library for the computation of 2-el integrals
 For citations please refer to: http://libint.valeyev.net

 Your ORCA version has been built with support for libXC version: 4.2.3
 For citations please refer to: https://tddft.org/programs/libxc/

 This ORCA versions uses:
   CBLAS   interface :  Fast vector & matrix operations
   LAPACKE interface :  Fast linear algebra routines
   SCALAPACK package :  Parallel linear algebra routines


Your calculation utilizes the atom-pairwise dispersion correction
with the Becke-Johnson damping scheme (D3BJ)
Cite in your paper:
S.Grimme, S.Ehrlich, L.Goerigk, J Comput Chem, (2011), 32, 1456–1465 
S.Grimme, J.Antony, S.Ehrlich and H.Krieg, J.Chem.Phys., 132, (2010), 154104 
   

----- Orbital basis set information -----
Your calculation utilizes the basis: def2-SVP
   F. Weigend and R. Ahlrichs, Phys. Chem. Chem. Phys. 7, 3297 (2005).

----- AuxJ basis set information -----
Your calculation utilizes the auxiliary basis: def2/J
   F. Weigend, Phys. Chem. Chem. Phys. 8, 1057 (2006).

================================================================================
                                        WARNINGS
                       Please study these warnings very carefully!
================================================================================


WARNING: Geometry Optimization
  ===> : Switching off AutoStart
         For restart on a previous wavefunction, please use MOREAD

INFO   : the flag for use of LIBINT has been found!

================================================================================
                                       INPUT FILE
================================================================================
NAME = 15.inp
|  1> !RI BP86 def2-SVP def2/J D3BJ TIGHTSCF TightOpt Grid5 FinalGrid6 freq
|  2> %maxcore 950
|  3> %pal nprocs 16
|  4> end
|  5> * xyz 0 1 
|  6> O 6.25891 -2.7795 1.01273 
|  7> C 6.00058 -1.66317 0.5633 
|  8> C 6.79829 -0.38044 0.91197 
|  9> C 7.8972 -0.63623 1.94234 
| 10> C 7.17233 -0.45625 3.27142 
| 11> C 6.20778 0.68841 2.99474 
| 12> N 5.94748 0.63184 1.55995 
| 13> C 5.12238 1.47273 0.84407 
| 14> O 4.98919 1.33339 -0.38048 
| 15> N 4.98832 -1.45967 -0.3509 
| 16> C 4.14529 -2.52173 -0.91617 
| 17> C 3.21479 -3.10928 0.18656 
| 18> N 2.8681 -2.20265 1.16832 
| 19> C 1.89891 -2.49413 2.22726 
| 20> C 0.4681 -2.10367 1.79277 
| 21> N 0.40575 -1.12129 0.82966 
| 22> C -0.83265 -0.53144 0.34171 
| 23> C -1.5582 0.28344 1.43731 
| 24> C -2.25666 1.56664 0.96478 
| 25> C -1.28093 2.46007 0.22518 
| 26> N -0.26922 2.96467 1.00769 
| 27> C 0.86938 3.71281 0.47109 
| 28> C 2.0404 3.45346 1.43776 
| 29> N 3.15963 2.91211 0.85644 
| 30> C 4.38219 2.5984 1.5974 
| 31> C 5.26659 3.83618 1.69063 
| 32> O 1.96112 3.66512 2.64999 
| 33> C 0.54417 5.20977 0.39301 
| 34> C 1.67195 6.085 -0.19033 
| 35> C 1.26698 7.56017 -0.12278 
| 36> C 2.01476 5.71109 -1.63296 
| 37> O -1.35478 2.69482 -0.98043 
| 38> C -3.55822 1.36589 0.20602 
| 39> C -3.60504 0.36265 -0.93468 
| 40> C -4.83404 0.5519 -1.82432 
| 41> C -4.83707 -0.44254 -2.98609 
| 42> C -6.06705 -0.25521 -3.87568 
| 43> C -6.0694 -1.24945 -5.03804 
| 44> C -7.29921 -1.06203 -5.92803 
| 45> C -7.30149 -2.05616 -7.09047 
| 46> C -8.53031 -1.86869 -7.97989 
| 47> C -8.53636 -2.85514 -9.13678 
| 48> O -4.5586 2.03562 0.50647 
| 49> O -2.49179 -0.55425 2.146 
| 50> O -0.54503 -2.5175 2.36133 
| 51> C 2.25302 -1.73348 3.50988 
| 52> C 3.52537 -2.26006 4.15737 
| 53> O 2.69565 -4.22405 0.13598 
| 54> C 4.92811 -3.59459 -1.71516 
| 55> C 6.04505 -2.98311 -2.57443 
| 56> C 4.00164 -4.38775 -2.64973 
| 57> H 7.21218 0.01803 -0.02174 
| 58> H 8.67683 0.13023 1.8497 
| 59> H 8.37477 -1.61626 1.85626 
| 60> H 6.61858 -1.36776 3.521 
| 61> H 7.85182 -0.23857 4.10022 
| 62> H 5.27526 0.59128 3.55756 
| 63> H 6.66766 1.653 3.22731 
| 64> H 4.86547 -0.5104 -0.70979 
| 65> H 3.47404 -1.99334 -1.60702 
| 66> H 3.3123 -1.28804 1.13554 
| 67> H 1.89059 -3.57516 2.41025 
| 68> H 1.28307 -0.83886 0.39972 
| 69> H -1.4572 -1.35729 -0.01359 
| 70> H -0.53855 0.08529 -0.51078 
| 71> H -0.8139 0.57973 2.18865 
| 72> H -2.55749 2.10942 1.87437 
| 73> H -0.28756 2.81764 2.01537 
| 74> H 1.09358 3.30876 -0.52104 
| 75> H 3.16832 2.72097 -0.14375 
| 76> H 4.09408 2.26065 2.59674 
| 77> H 4.75091 4.64739 2.21556 
| 78> H 6.19998 3.62879 2.22099 
| 79> H 5.53213 4.20549 0.69315 
| 80> H 0.29956 5.57569 1.39984 
| 81> H -0.36619 5.34939 -0.20535 
| 82> H 2.57517 5.96341 0.41991 
| 83> H 1.05627 7.85907 0.90952 
| 84> H 2.07145 8.20232 -0.49691 
| 85> H 0.37124 7.75482 -0.72245 
| 86> H 2.43662 4.70379 -1.69568 
| 87> H 1.12822 5.75111 -2.27477 
| 88> H 2.76113 6.39886 -2.04515 
| 89> H -3.61979 -0.64275 -0.50302 
| 90> H -2.70493 0.47819 -1.54522 
| 91> H -4.85212 1.5773 -2.21427 
| 92> H -5.74618 0.42384 -1.22828 
| 93> H -4.82016 -1.46635 -2.59298 
| 94> H -3.92752 -0.31089 -3.58475 
| 95> H -6.08398 0.76883 -4.26816 
| 96> H -6.97676 -0.38735 -3.27739 
| 97> H -6.05261 -2.27349 -4.64552 
| 98> H -5.15956 -1.1174 -5.63616 
| 99> H -7.31601 -0.03795 -6.32044 
|100> H -8.20906 -1.19416 -5.32993 
|101> H -7.28471 -3.08032 -6.69818 
|102> H -6.39154 -1.92441 -7.68854 
|103> H -8.54968 -0.84752 -8.37805 
|104> H -9.44289 -2.00351 -7.38767 
|105> H -9.42345 -2.70339 -9.75965 
|106> H -7.65162 -2.72478 -9.76811 
|107> H -8.5497 -3.88726 -8.77225 
|108> H -1.97832 -1.3601 2.39399 
|109> H 1.43314 -1.81814 4.23365 
|110> H 2.37274 -0.66349 3.29675 
|111> H 3.75082 -1.69214 5.06541 
|112> H 3.41571 -3.31343 4.43413 
|113> H 4.38043 -2.17104 3.48211 
|114> H 5.38762 -4.30473 -1.01638 
|115> H 6.82557 -2.52546 -1.95978 
|116> H 6.5326 -3.7522 -3.18376 
|117> H 5.64913 -2.21798 -3.25106 
|118> H 3.23646 -4.94126 -2.10102 
|119> H 3.49533 -3.72492 -3.35999 
|120> H 4.57265 -5.12337 -3.22725 
|121> **                         ****END OF INPUT****
================================================================================

                       *****************************
                       * Geometry Optimization Run *
                       *****************************

Geometry optimization settings:
Update method            Update   .... BFGS
Choice of coordinates    CoordSys .... Z-matrix Internals
Initial Hessian          InHess   .... Almoef's Model

Convergence Tolerances:
Energy Change            TolE     ....  1.0000e-06 Eh
Max. Gradient            TolMAXG  ....  1.0000e-04 Eh/bohr
RMS Gradient             TolRMSG  ....  3.0000e-05 Eh/bohr
Max. Displacement        TolMAXD  ....  1.0000e-03 bohr
RMS Displacement         TolRMSD  ....  6.0000e-04 bohr
Strict Convergence                ....  False
------------------------------------------------------------------------------
                        ORCA OPTIMIZATION COORDINATE SETUP
------------------------------------------------------------------------------

The optimization will be done in new redundant internal coordinates
Making redundant internal coordinates   ...  (new redundants) done
Evaluating the initial hessian          ...  (Almloef) done
Evaluating the coordinates              ...  done
Calculating the B-matrix                .... done
Calculating the G-matrix                .... done
Diagonalizing the G-matrix              .... done
Small eigenvalue found = 1.601e-04
Small eigenvalue found = 4.840e-04
Small eigenvalue found = 1.671e-03
Small eigenvalue found = 1.899e-03
Small eigenvalue found = 3.134e-03
Small eigenvalue found = 4.043e-03
Small eigenvalue found = 6.635e-03
Small eigenvalue found = 7.006e-03
Small eigenvalue found = 7.466e-03
Small eigenvalue found = 8.793e-03
Small eigenvalue found = 9.586e-03
Small eigenvalue found = 1.100e-02
Small eigenvalue found = 1.234e-02
Small eigenvalue found = 1.549e-02
Small eigenvalue found = 1.581e-02
Small eigenvalue found = 1.624e-02
Small eigenvalue found = 1.931e-02
Small eigenvalue found = 1.978e-02
Small eigenvalue found = 2.529e-02
Small eigenvalue found = 2.662e-02
Small eigenvalue found = 2.853e-02
The first mode is                       ....  323
The number of degrees of freedom        ....  339

    -----------------------------------------------------------------
                    Redundant Internal Coordinates


    -----------------------------------------------------------------
         Definition                    Initial Value    Approx d2E/dq
    -----------------------------------------------------------------
      1. B(C   1,O   0)                  1.2308         1.004244   
      2. B(C   2,C   1)                  1.5503         0.346779   
      3. B(C   3,C   2)                  1.5280         0.376370   
      4. B(C   4,C   3)                  1.5246         0.381116   
      5. B(C   5,C   4)                  1.5222         0.384405   
      6. B(N   6,C   2)                  1.4726         0.413179   
      7. B(N   6,C   5)                  1.4593         0.433810   
      8. B(C   7,N   6)                  1.3785         0.583661   
      9. B(O   8,C   7)                  1.2396         0.972264   
     10. B(N   9,C   1)                  1.3791         0.582516   
     11. B(C  10,N   9)                  1.4691         0.418510   
     12. B(C  11,C  10)                  1.5579         0.337180   
     13. B(N  12,C  11)                  1.3806         0.579283   
     14. B(C  13,N  12)                  1.4648         0.425142   
     15. B(C  14,C  13)                  1.5455         0.352944   
     16. B(N  15,C  14)                  1.3771         0.586650   
     17. B(C  16,N  15)                  1.4559         0.439270   
     18. B(C  17,C  16)                  1.5462         0.351967   
     19. B(C  18,C  17)                  1.5355         0.366114   
     20. B(C  19,C  18)                  1.5157         0.393759   
     21. B(N  20,C  19)                  1.3750         0.591397   
     22. B(C  21,N  20)                  1.4643         0.425986   
     23. B(C  22,C  21)                  1.5405         0.359499   
     24. B(N  23,C  22)                  1.3725         0.596824   
     25. B(C  24,N  23)                  1.4636         0.427043   
     26. B(C  24,C   7)                  1.5435         0.355445   
     27. B(C  25,C  24)                  1.5241         0.381726   
     28. B(O  26,C  22)                  1.2331         0.995787   
     29. B(C  27,C  21)                  1.5339         0.368306   
     30. B(C  28,C  27)                  1.5421         0.357278   
     31. B(C  29,C  28)                  1.5312         0.371879   
     32. B(C  30,C  28)                  1.5292         0.374649   
     33. B(O  31,C  19)                  1.2305         1.005530   
     34. B(C  32,C  18)                  1.5199         0.387706   
     35. B(C  33,C  32)                  1.5198         0.387798   
     36. B(C  34,C  33)                  1.5290         0.375006   
     37. B(C  35,C  34)                  1.5293         0.374595   
     38. B(C  36,C  35)                  1.5295         0.374287   
     39. B(C  37,C  36)                  1.5296         0.374159   
     40. B(C  38,C  37)                  1.5296         0.374140   
     41. B(C  39,C  38)                  1.5296         0.374173   
     42. B(C  40,C  39)                  1.5285         0.375684   
     43. B(C  41,C  40)                  1.5204         0.387032   
     44. B(O  42,C  32)                  1.2408         0.968110   
     45. B(O  43,C  17)                  1.4407         0.464537   
     46. B(O  44,C  14)                  1.2333         0.995251   
     47. B(C  45,C  13)                  1.5327         0.369920   
     48. B(C  46,C  45)                  1.5216         0.385218   
     49. B(O  47,C  11)                  1.2308         1.004450   
     50. B(C  48,C  10)                  1.5499         0.347226   
     51. B(C  49,C  48)                  1.5362         0.365207   
     52. B(C  50,C  48)                  1.5365         0.364743   
     53. B(H  51,C   2)                  1.0963         0.351847   
     54. B(H  52,C   3)                  1.0972         0.350689   
     55. B(H  53,C   3)                  1.0936         0.355381   
     56. B(H  54,C   4)                  1.0953         0.353099   
     57. B(H  55,C   4)                  1.0936         0.355345   
     58. B(H  56,C   5)                  1.0935         0.355469   
     59. B(H  57,C   5)                  1.0936         0.355338   
     60. B(H  58,N   9)                  1.0223         0.413658   
     61. B(H  59,C  10)                  1.0987         0.348829   
     62. B(H  60,N  12)                  1.0173         0.421258   
     63. B(H  61,C  13)                  1.0964         0.351681   
     64. B(H  62,N  15)                  1.0170         0.421710   
     65. B(H  63,C  16)                  1.0947         0.353959   
     66. B(H  64,C  16)                  1.0925         0.356788   
     67. B(H  65,C  17)                  1.0983         0.349275   
     68. B(H  66,C  18)                  1.1011         0.345687   
     69. B(H  67,N  20)                  1.0185         0.419382   
     70. B(H  68,C  21)                  1.0945         0.354247   
     71. B(H  69,H  60)                  4.2106         0.000001   
     72. B(H  69,N  23)                  1.0183         0.419672   
     73. B(H  70,C  24)                  1.0935         0.355487   
     74. B(H  71,C  25)                  1.0952         0.353241   
     75. B(H  72,C  25)                  1.0934         0.355639   
     76. B(H  73,C  25)                  1.0963         0.351865   
     77. B(H  74,C  27)                  1.0988         0.348600   
     78. B(H  75,C  27)                  1.0983         0.349274   
     79. B(H  76,C  28)                  1.0968         0.351208   
     80. B(H  77,C  29)                  1.0952         0.353334   
     81. B(H  78,C  29)                  1.0952         0.353263   
     82. B(H  79,C  29)                  1.0954         0.353061   
     83. B(H  80,C  30)                  1.0939         0.355016   
     84. B(H  81,C  30)                  1.0952         0.353279   
     85. B(H  82,C  30)                  1.0954         0.352971   
     86. B(H  83,C  33)                  1.0942         0.354525   
     87. B(H  84,C  33)                  1.0938         0.355163   
     88. B(H  85,C  34)                  1.0972         0.350709   
     89. B(H  86,C  34)                  1.0971         0.350809   
     90. B(H  87,C  35)                  1.0968         0.351193   
     91. B(H  88,C  35)                  1.0968         0.351194   
     92. B(H  89,C  36)                  1.0968         0.351207   
     93. B(H  90,C  36)                  1.0968         0.351208   
     94. B(H  91,C  37)                  1.0968         0.351191   
     95. B(H  92,C  37)                  1.0968         0.351202   
     96. B(H  93,C  38)                  1.0968         0.351194   
     97. B(H  94,C  38)                  1.0968         0.351193   
     98. B(H  95,C  39)                  1.0968         0.351153   
     99. B(H  96,C  39)                  1.0968         0.351166   
    100. B(H  97,C  40)                  1.0962         0.351967   
    101. B(H  98,C  40)                  1.0962         0.351962   
    102. B(H  99,C  41)                  1.0945         0.354200   
    103. B(H 100,C  41)                  1.0947         0.353955   
    104. B(H 101,C  41)                  1.0947         0.353957   
    105. B(H 102,O  43)                  0.9872         0.470529   
    106. B(H 103,C  45)                  1.0969         0.351073   
    107. B(H 104,C  45)                  1.0976         0.350238   
    108. B(H 105,C  46)                  1.0945         0.354215   
    109. B(H 106,C  46)                  1.0946         0.354030   
    110. B(H 107,H  54)                  2.3783         0.000607   
    111. B(H 107,C  46)                  1.0932         0.355926   
    112. B(H 108,C  48)                  1.0972         0.350762   
    113. B(H 109,C  49)                  1.0938         0.355077   
    114. B(H 110,C  49)                  1.0957         0.352680   
    115. B(H 111,C  49)                  1.0954         0.352966   
    116. B(H 112,C  50)                  1.0922         0.357168   
    117. B(H 113,C  50)                  1.0955         0.352872   
    118. B(H 114,C  50)                  1.0958         0.352543   
    119. A(O   0,C   1,N   9)          122.0024         0.462251   
    120. A(C   2,C   1,N   9)          113.8721         0.384849   
    121. A(O   0,C   1,C   2)          124.0792         0.423662   
    122. A(C   1,C   2,H  51)          107.6650         0.319177   
    123. A(N   6,C   2,H  51)          110.0623         0.326517   
    124. A(C   1,C   2,N   6)          111.7440         0.362720   
    125. A(C   1,C   2,C   3)          112.5335         0.359224   
    126. A(C   3,C   2,H  51)          111.3246         0.323483   
    127. A(C   3,C   2,N   6)          103.5255         0.367841   
    128. A(C   4,C   3,H  53)          112.4607         0.324681   
    129. A(C   4,C   3,H  52)          109.2070         0.323973   
    130. A(C   2,C   3,C   4)          103.0712         0.365061   
    131. A(C   2,C   3,H  53)          114.2685         0.324013   
    132. A(C   2,C   3,H  52)          109.7035         0.323308   
    133. A(H  52,C   3,H  53)          108.0032         0.289035   
    134. A(H  54,C   4,H  55)          107.8826         0.289341   
    135. A(C   3,C   4,H  55)          112.8775         0.324676   
    136. A(C   3,C   4,C   5)          103.3908         0.366384   
    137. A(C   3,C   4,H  54)          109.9237         0.324337   
    138. A(C   5,C   4,H  55)          112.4434         0.325134   
    139. A(C   5,C   4,H  54)          110.2941         0.324796   
    140. A(H  56,C   5,H  57)          109.1163         0.289643   
    141. A(C   4,C   5,N   6)          105.2233         0.372284   
    142. A(C   4,C   5,H  56)          112.3344         0.325153   
    143. A(N   6,C   5,H  57)          108.5593         0.329688   
    144. A(N   6,C   5,H  56)          110.5170         0.329708   
    145. A(C   4,C   5,H  57)          110.9858         0.325133   
    146. A(C   5,N   6,C   7)          126.4196         0.397806   
    147. A(C   2,N   6,C   7)          122.4541         0.394419   
    148. A(C   2,N   6,C   5)          110.8688         0.374581   
    149. A(O   8,C   7,C  24)          120.8350         0.423080   
    150. A(N   6,C   7,O   8)          120.5793         0.459692   
    151. A(N   6,C   7,C  24)          118.5824         0.386639   
    152. A(C   1,N   9,C  10)          124.7228         0.395170   
    153. A(C  10,N   9,H  58)          117.8577         0.333215   
    154. A(C   1,N   9,H  58)          117.2561         0.352193   
    155. A(C  48,C  10,H  59)          108.5022         0.318795   
    156. A(C  11,C  10,H  59)          105.1624         0.317273   
    157. A(N   9,C  10,C  11)          110.0622         0.361777   
    158. A(N   9,C  10,C  48)          114.1386         0.363596   
    159. A(N   9,C  10,H  59)          104.1740         0.326743   
    160. A(C  11,C  10,C  48)          113.9225         0.352659   
    161. A(N  12,C  11,O  47)          121.2056         0.461799   
    162. A(C  10,C  11,O  47)          124.3636         0.421557   
    163. A(C  10,C  11,N  12)          113.9330         0.382605   
    164. A(C  13,N  12,H  60)          119.4132         0.335097   
    165. A(C  11,N  12,C  13)          123.3368         0.395875   
    166. A(C  11,N  12,H  60)          117.2481         0.352947   
    167. A(C  14,C  13,C  45)          108.8919         0.359244   
    168. A(N  12,C  13,H  61)          108.7758         0.328030   
    169. A(C  14,C  13,H  61)          106.7977         0.320072   
    170. A(N  12,C  13,C  14)          111.0419         0.365596   
    171. A(C  45,C  13,H  61)          110.5730         0.322542   
    172. A(N  12,C  13,C  45)          110.6926         0.368552   
    173. A(C  13,C  14,N  15)          114.7561         0.386507   
    174. A(N  15,C  14,O  44)          121.6405         0.462089   
    175. A(C  13,C  14,O  44)          123.1045         0.424316   
    176. A(C  14,N  15,H  62)          117.0453         0.353768   
    177. A(C  16,N  15,H  62)          118.6578         0.336985   
    178. A(C  14,N  15,C  16)          124.1878         0.399039   
    179. A(H  63,C  16,H  64)          109.0381         0.289635   
    180. A(C  17,C  16,H  64)          112.4397         0.320682   
    181. A(N  15,C  16,H  63)          106.7639         0.330158   
    182. A(C  17,C  16,H  63)          111.0912         0.320265   
    183. A(N  15,C  16,C  17)          112.0353         0.367475   
    184. A(N  15,C  16,H  64)          105.1440         0.330593   
    185. A(O  43,C  17,H  65)          105.0402         0.332494   
    186. A(C  18,C  17,H  65)          107.0578         0.321634   
    187. A(C  16,C  17,H  65)          107.9930         0.319568   
    188. A(C  16,C  17,C  18)          115.8373         0.358444   
    189. A(C  18,C  17,O  43)          110.0310         0.373549   
    190. A(C  16,C  17,O  43)          110.2549         0.371022   
    191. A(C  19,C  18,H  66)          106.7623         0.324947   
    192. A(C  17,C  18,H  66)          106.3800         0.321091   
    193. A(C  17,C  18,C  32)          115.6443         0.364406   
    194. A(C  17,C  18,C  19)          110.4838         0.365374   
    195. A(C  19,C  18,C  32)          112.6771         0.368981   
    196. A(C  32,C  18,H  66)          104.0952         0.324121   
    197. A(C  18,C  19,N  20)          114.3497         0.394525   
    198. A(N  20,C  19,O  31)          122.1248         0.463640   
    199. A(C  18,C  19,O  31)          123.4994         0.433525   
    200. A(C  19,N  20,H  67)          119.7908         0.353919   
    201. A(C  19,N  20,C  21)          123.4433         0.397454   
    202. A(C  21,N  20,H  67)          116.7645         0.334959   
    203. A(C  27,C  21,H  68)          110.9518         0.322695   
    204. A(C  22,C  21,H  68)          110.5469         0.321418   
    205. A(N  20,C  21,H  68)          107.6298         0.328532   
    206. A(N  20,C  21,C  22)          105.9694         0.366875   
    207. A(C  22,C  21,C  27)          110.9421         0.360104   
    208. A(N  20,C  21,C  27)          110.6360         0.368401   
    209. A(C  21,C  22,N  23)          114.8681         0.388914   
    210. A(C  21,C  22,O  26)          122.6237         0.425756   
    211. A(N  23,C  22,O  26)          122.4467         0.463589   
    212. A(C  22,N  23,C  24)          123.4565         0.398266   
    213. A(C  24,N  23,H  69)          116.7363         0.335136   
    214. A(C  22,N  23,H  69)          119.8023         0.354509   
    215. A(C  25,C  24,H  70)          110.3542         0.324782   
    216. A(N  23,C  24,H  70)          107.9861         0.328856   
    217. A(C   7,C  24,H  70)          110.3112         0.321006   
    218. A(N  23,C  24,C  25)          109.9745         0.370831   
    219. A(C   7,C  24,N  23)          108.0472         0.366318   
    220. A(C   7,C  24,C  25)          110.1120         0.361608   
    221. A(H  71,C  25,H  73)          107.4947         0.288913   
    222. A(C  24,C  25,H  73)          111.0066         0.324236   
    223. A(H  71,C  25,H  72)          108.0559         0.289397   
    224. A(C  24,C  25,H  72)          111.7763         0.324805   
    225. A(C  24,C  25,H  71)          110.9543         0.324444   
    226. A(H  72,C  25,H  73)          107.3653         0.289220   
    227. A(C  28,C  27,H  75)          109.1435         0.320351   
    228. A(C  21,C  27,C  28)          114.7140         0.359724   
    229. A(H  74,C  27,H  75)          105.8034         0.287983   
    230. A(C  21,C  27,H  75)          109.1192         0.321948   
    231. A(C  28,C  27,H  74)          108.6867         0.320250   
    232. A(C  21,C  27,H  74)          108.9989         0.321847   
    233. A(C  29,C  28,C  30)          109.6615         0.363247   
    234. A(C  27,C  28,C  30)          112.4587         0.360772   
    235. A(C  27,C  28,C  29)          109.6737         0.360316   
    236. A(C  30,C  28,H  76)          108.2499         0.323143   
    237. A(C  29,C  28,H  76)          107.4605         0.322750   
    238. A(C  27,C  28,H  76)          109.1993         0.320641   
    239. A(C  28,C  29,H  79)          111.3040         0.323029   
    240. A(H  78,C  29,H  79)          108.0265         0.289070   
    241. A(H  77,C  29,H  79)          108.0711         0.289079   
    242. A(H  77,C  29,H  78)          107.6557         0.289105   
    243. A(C  28,C  29,H  78)          110.8253         0.323059   
    244. A(C  28,C  29,H  77)          110.8180         0.323070   
    245. A(H  81,C  30,H  82)          107.9436         0.289060   
    246. A(H  80,C  30,H  82)          107.0867         0.289282   
    247. A(C  28,C  30,H  82)          110.7441         0.323408   
    248. A(H  80,C  30,H  81)          108.1936         0.289322   
    249. A(C  28,C  30,H  81)          111.2501         0.323455   
    250. A(C  28,C  30,H  80)          111.4510         0.323715   
    251. A(C  33,C  32,O  42)          120.8771         0.429403   
    252. A(C  18,C  32,O  42)          119.8843         0.429384   
    253. A(C  18,C  32,C  33)          119.2259         0.368016   
    254. A(C  32,C  33,C  34)          112.3194         0.365921   
    255. A(C  34,C  33,H  84)          108.8825         0.323788   
    256. A(H  83,C  33,H  84)          109.1688         0.289500   
    257. A(C  32,C  33,H  84)          108.8974         0.325577   
    258. A(C  34,C  33,H  83)          109.4160         0.323692   
    259. A(C  32,C  33,H  83)          108.1101         0.325481   
    260. A(C  33,C  34,C  35)          111.2931         0.363759   
    261. A(H  85,C  34,H  86)          106.7665         0.288452   
    262. A(C  35,C  34,H  86)          109.5833         0.323075   
    263. A(C  33,C  34,H  86)          109.7386         0.323133   
    264. A(C  35,C  34,H  85)          109.7364         0.323060   
    265. A(C  33,C  34,H  85)          109.6164         0.323118   
    266. A(C  34,C  35,C  36)          111.3343         0.363639   
    267. A(H  87,C  35,H  88)          107.1504         0.288564   
    268. A(C  36,C  35,H  88)          109.5552         0.323090   
    269. A(C  34,C  35,H  88)          109.5700         0.323133   
    270. A(C  36,C  35,H  87)          109.5839         0.323090   
    271. A(C  34,C  35,H  87)          109.5530         0.323133   
    272. A(C  35,C  36,C  37)          111.3224         0.363567   
    273. A(H  89,C  36,H  90)          107.1501         0.288568   
    274. A(C  37,C  36,H  90)          109.5689         0.323074   
    275. A(C  35,C  36,H  90)          109.5711         0.323092   
    276. A(C  37,C  36,H  89)          109.5684         0.323073   
    277. A(C  35,C  36,H  89)          109.5662         0.323092   
    278. A(C  36,C  37,C  38)          111.3307         0.363542   
    279. A(H  91,C  37,H  92)          107.1494         0.288565   
    280. A(C  38,C  37,H  92)          109.5668         0.323070   
    281. A(C  36,C  37,H  92)          109.5649         0.323073   
    282. A(C  38,C  37,H  91)          109.5685         0.323068   
    283. A(C  36,C  37,H  91)          109.5665         0.323071   
    284. A(C  37,C  38,C  39)          111.3310         0.363545   
    285. A(H  93,C  38,H  94)          107.1495         0.288564   
    286. A(C  39,C  38,H  94)          109.5658         0.323073   
    287. A(C  37,C  38,H  94)          109.5672         0.323069   
    288. A(C  39,C  38,H  93)          109.5676         0.323074   
    289. A(C  37,C  38,H  93)          109.5657         0.323069   
    290. A(C  38,C  39,C  40)          111.3286         0.363801   
    291. A(H  95,C  39,H  96)          107.1265         0.288555   
    292. A(C  40,C  39,H  96)          109.5692         0.323283   
    293. A(C  38,C  39,H  96)          109.5778         0.323069   
    294. A(C  40,C  39,H  95)          109.5690         0.323281   
    295. A(C  38,C  39,H  95)          109.5750         0.323067   
    296. A(C  39,C  40,C  41)          111.4941         0.365911   
    297. A(H  97,C  40,H  98)          107.2221         0.288762   
    298. A(C  41,C  40,H  98)          109.1458         0.324987   
    299. A(C  39,C  40,H  98)          109.8662         0.323403   
    300. A(C  41,C  40,H  97)          109.1447         0.324988   
    301. A(C  39,C  40,H  97)          109.8656         0.323404   
    302. A(H 100,C  41,H 101)          108.3111         0.289273   
    303. A(H  99,C  41,H 101)          108.0806         0.289305   
    304. A(C  40,C  41,H 101)          111.0020         0.325289   
    305. A(H  99,C  41,H 100)          108.0796         0.289304   
    306. A(C  40,C  41,H 100)          110.9997         0.325289   
    307. A(C  40,C  41,H  99)          110.2615         0.325326   
    308. A(C  17,O  43,H 102)          105.1390         0.346449   
    309. A(C  13,C  45,C  46)          112.1813         0.364650   
    310. A(C  46,C  45,H 104)          109.1953         0.324475   
    311. A(C  13,C  45,H 104)          110.2746         0.322325   
    312. A(C  46,C  45,H 103)          108.5125         0.324601   
    313. A(C  13,C  45,H 103)          109.9489         0.322450   
    314. A(H 103,C  45,H 104)          106.5529         0.288426   
    315. A(H 106,C  46,H 107)          108.2341         0.289534   
    316. A(H 105,C  46,H 107)          108.0054         0.289558   
    317. A(C  45,C  46,H 107)          111.2850         0.325335   
    318. A(H 105,C  46,H 106)          108.0717         0.289316   
    319. A(C  45,C  46,H 106)          110.9060         0.325049   
    320. A(C  45,C  46,H 105)          110.2248         0.325077   
    321. A(C  50,C  48,H 108)          107.8068         0.321660   
    322. A(C  49,C  48,H 108)          108.0219         0.321727   
    323. A(C  10,C  48,H 108)          109.3443         0.319083   
    324. A(C  49,C  48,C  50)          107.6782         0.360474   
    325. A(C  10,C  48,C  50)          111.4896         0.357390   
    326. A(C  10,C  48,C  49)          112.3370         0.357467   
    327. A(H 110,C  49,H 111)          107.9146         0.288983   
    328. A(H 109,C  49,H 111)          108.2254         0.289290   
    329. A(C  48,C  49,H 111)          111.1457         0.322057   
    330. A(H 109,C  49,H 110)          106.7781         0.289253   
    331. A(C  48,C  49,H 110)          110.8062         0.322015   
    332. A(C  48,C  49,H 109)          111.7809         0.322372   
    333. A(H 113,C  50,H 114)          107.7770         0.288953   
    334. A(H 112,C  50,H 114)          106.8361         0.289502   
    335. A(C  48,C  50,H 114)          110.6650         0.321927   
    336. A(H 112,C  50,H 113)          107.9716         0.289544   
    337. A(C  48,C  50,H 113)          111.1424         0.321976   
    338. A(C  48,C  50,H 112)          112.2380         0.322615   
    339. D(H  51,C   2,C   1,N   9)    -57.8308         0.009102   
    340. D(C   3,C   2,C   1,N   9)    179.1224         0.009102   
    341. D(N   6,C   2,C   1,N   9)     63.1408         0.009102   
    342. D(N   6,C   2,C   1,O   0)   -119.2990         0.009102   
    343. D(C   3,C   2,C   1,O   0)     -3.3174         0.009102   
    344. D(H  51,C   2,C   1,O   0)    119.7294         0.009102   
    345. D(C   4,C   3,C   2,N   6)     33.2122         0.011301   
    346. D(H  53,C   3,C   2,H  51)    -86.2427         0.011301   
    347. D(H  53,C   3,C   2,C   1)     34.7312         0.011301   
    348. D(C   4,C   3,C   2,H  51)    151.4195         0.011301   
    349. D(H  53,C   3,C   2,N   6)    155.5500         0.011301   
    350. D(H  52,C   3,C   2,H  51)     35.1953         0.011301   
    351. D(C   4,C   3,C   2,C   1)    -87.6066         0.011301   
    352. D(H  52,C   3,C   2,C   1)    156.1692         0.011301   
    353. D(H  52,C   3,C   2,N   6)    -83.0120         0.011301   
    354. D(H  55,C   4,C   3,H  53)     77.6694         0.011573   
    355. D(H  55,C   4,C   3,H  52)    -42.2098         0.011573   
    356. D(H  54,C   4,C   3,H  52)   -162.7036         0.011573   
    357. D(H  55,C   4,C   3,C   2)   -158.7873         0.011573   
    358. D(H  54,C   4,C   3,H  53)    -42.8244         0.011573   
    359. D(C   5,C   4,C   3,C   2)    -37.0249         0.011573   
    360. D(H  54,C   4,C   3,C   2)     80.7189         0.011573   
    361. D(C   5,C   4,C   3,H  53)   -160.5682         0.011573   
    362. D(C   5,C   4,C   3,H  52)     79.5526         0.011573   
    363. D(N   6,C   5,C   4,C   3)     26.8186         0.011763   
    364. D(H  57,C   5,C   4,C   3)    -90.4188         0.011763   
    365. D(H  56,C   5,C   4,H  55)    -90.8305         0.011763   
    366. D(H  56,C   5,C   4,C   3)    147.1161         0.011763   
    367. D(H  57,C   5,C   4,H  54)    152.0966         0.011763   
    368. D(H  56,C   5,C   4,H  54)     29.6315         0.011763   
    369. D(H  57,C   5,C   4,H  55)     31.6346         0.011763   
    370. D(N   6,C   5,C   4,H  54)    -90.6659         0.011763   
    371. D(N   6,C   5,C   4,H  55)    148.8721         0.011763   
    372. D(C   5,N   6,C   2,C   3)    -17.1437         0.014561   
    373. D(C   7,N   6,C   5,H  57)    -61.4266         0.016045   
    374. D(C   7,N   6,C   5,H  56)     58.2097         0.016045   
    375. D(C   7,N   6,C   5,C   4)    179.6992         0.016045   
    376. D(C   2,N   6,C   5,H  57)    112.8203         0.016045   
    377. D(C   2,N   6,C   5,H  56)   -127.5434         0.016045   
    378. D(C   7,N   6,C   2,H  51)     38.2905         0.014561   
    379. D(C   2,N   6,C   5,C   4)     -6.0540         0.016045   
    380. D(C   7,N   6,C   2,C   3)    157.3708         0.014561   
    381. D(C   5,N   6,C   2,C   1)    104.2079         0.014561   
    382. D(C   7,N   6,C   2,C   1)    -81.2776         0.014561   
    383. D(C   5,N   6,C   2,H  51)   -136.2240         0.014561   
    384. D(C  24,C   7,N   6,C   5)     -0.0055         0.027345   
    385. D(C  24,C   7,N   6,C   2)   -173.6324         0.027345   
    386. D(O   8,C   7,N   6,C   5)    179.3330         0.027345   
    387. D(O   8,C   7,N   6,C   2)      5.7062         0.027345   
    388. D(H  58,N   9,C   1,O   0)   -177.1575         0.027231   
    389. D(C  10,N   9,C   1,C   2)    175.6998         0.027231   
    390. D(H  58,N   9,C   1,C   2)      0.4596         0.027231   
    391. D(C  10,N   9,C   1,O   0)     -1.9173         0.027231   
    392. D(H  59,C  10,N   9,C   1)   -179.1149         0.014936   
    393. D(C  48,C  10,N   9,H  58)    114.2532         0.014936   
    394. D(C  48,C  10,N   9,C   1)    -60.9608         0.014936   
    395. D(C  11,C  10,N   9,C   1)     68.5868         0.014936   
    396. D(H  59,C  10,N   9,H  58)     -3.9009         0.014936   
    397. D(C  11,C  10,N   9,H  58)   -116.1992         0.014936   
    398. D(O  47,C  11,C  10,N   9)   -158.0242         0.008654   
    399. D(N  12,C  11,C  10,H  59)    -81.6440         0.008654   
    400. D(N  12,C  11,C  10,C  48)    159.6772         0.008654   
    401. D(N  12,C  11,C  10,N   9)     30.0132         0.008654   
    402. D(O  47,C  11,C  10,H  59)     90.3186         0.008654   
    403. D(O  47,C  11,C  10,C  48)    -28.3602         0.008654   
    404. D(H  60,N  12,C  11,O  47)   -178.0596         0.026910   
    405. D(H  60,N  12,C  11,C  10)     -5.8148         0.026910   
    406. D(C  13,N  12,C  11,O  47)      1.4519         0.026910   
    407. D(C  13,N  12,C  11,C  10)    173.6967         0.026910   
    408. D(H  61,C  13,N  12,C  11)     27.1617         0.015410   
    409. D(H  61,C  13,N  12,H  60)   -153.3368         0.015410   
    410. D(C  45,C  13,N  12,H  60)    -31.6582         0.015410   
    411. D(C  45,C  13,N  12,C  11)    148.8404         0.015410   
    412. D(C  14,C  13,N  12,C  11)    -90.0852         0.015410   
    413. D(C  14,C  13,N  12,H  60)     89.4162         0.015410   
    414. D(O  44,C  14,C  13,C  45)    -74.9113         0.009399   
    415. D(O  44,C  14,C  13,N  12)    162.9610         0.009399   
    416. D(N  15,C  14,C  13,H  61)   -143.4823         0.009399   
    417. D(N  15,C  14,C  13,C  45)     97.0936         0.009399   
    418. D(O  44,C  14,C  13,H  61)     44.5128         0.009399   
    419. D(N  15,C  14,C  13,N  12)    -25.0341         0.009399   
    420. D(H  62,N  15,C  14,O  44)   -179.4288         0.027645   
    421. D(H  62,N  15,C  14,C  13)      8.4370         0.027645   
    422. D(C  16,N  15,C  14,O  44)     -3.2886         0.027645   
    423. D(C  16,N  15,C  14,C  13)   -175.4228         0.027645   
    424. D(H  64,C  16,N  15,H  62)      4.7256         0.016453   
    425. D(H  64,C  16,N  15,C  14)   -171.3567         0.016453   
    426. D(H  63,C  16,N  15,H  62)    120.4764         0.016453   
    427. D(H  63,C  16,N  15,C  14)    -55.6059         0.016453   
    428. D(C  17,C  16,N  15,C  14)     66.2215         0.016453   
    429. D(C  17,C  16,N  15,H  62)   -117.6962         0.016453   
    430. D(H  65,C  17,C  16,H  64)    -95.2980         0.009972   
    431. D(H  65,C  17,C  16,H  63)    142.1856         0.009972   
    432. D(H  65,C  17,C  16,N  15)     22.8710         0.009972   
    433. D(O  43,C  17,C  16,H  64)    150.4549         0.009972   
    434. D(O  43,C  17,C  16,H  63)     27.9385         0.009972   
    435. D(O  43,C  17,C  16,N  15)    -91.3762         0.009972   
    436. D(C  18,C  17,C  16,H  64)     24.6982         0.009972   
    437. D(C  18,C  17,C  16,H  63)    -97.8182         0.009972   
    438. D(C  18,C  17,C  16,N  15)    142.8672         0.009972   
    439. D(H  66,C  18,C  17,H  65)    -49.5020         0.010729   
    440. D(H  66,C  18,C  17,O  43)     64.1250         0.010729   
    441. D(H  66,C  18,C  17,C  16)   -170.0045         0.010729   
    442. D(C  32,C  18,C  17,O  43)    -50.8791         0.010729   
    443. D(C  32,C  18,C  17,C  16)     74.9914         0.010729   
    444. D(C  32,C  18,C  17,H  65)   -164.5060         0.010729   
    445. D(C  19,C  18,C  17,H  65)     66.0098         0.010729   
    446. D(C  19,C  18,C  17,O  43)    179.6368         0.010729   
    447. D(C  19,C  18,C  17,C  16)    -54.4928         0.010729   
    448. D(O  31,C  19,C  18,H  66)   -132.5314         0.011524   
    449. D(O  31,C  19,C  18,C  32)    -18.8591         0.011524   
    450. D(O  31,C  19,C  18,C  17)    112.1966         0.011524   
    451. D(N  20,C  19,C  18,H  66)     49.2946         0.011524   
    452. D(N  20,C  19,C  18,C  17)    -65.9775         0.011524   
    453. D(N  20,C  19,C  18,C  32)    162.9669         0.011524   
    454. D(H  67,N  20,C  19,O  31)    174.5376         0.028125   
    455. D(H  67,N  20,C  19,C  18)     -7.2604         0.028125   
    456. D(C  21,N  20,C  19,O  31)     -5.9005         0.028125   
    457. D(C  21,N  20,C  19,C  18)    172.3016         0.028125   
    458. D(H  68,C  21,N  20,H  67)    146.6573         0.015471   
    459. D(H  68,C  21,N  20,C  19)    -32.9169         0.015471   
    460. D(C  27,C  21,N  20,H  67)    -91.9698         0.015471   
    461. D(C  27,C  21,N  20,C  19)     88.4560         0.015471   
    462. D(C  22,C  21,N  20,H  67)     28.3635         0.015471   
    463. D(C  22,C  21,N  20,C  19)   -151.2108         0.015471   
    464. D(N  23,C  22,C  21,C  27)   -117.0978         0.009721   
    465. D(N  23,C  22,C  21,N  20)    122.7683         0.009721   
    466. D(O  26,C  22,C  21,H  68)   -170.7815         0.009721   
    467. D(O  26,C  22,C  21,C  27)     65.6916         0.009721   
    468. D(O  26,C  22,C  21,N  20)    -54.4423         0.009721   
    469. D(N  23,C  22,C  21,H  68)      6.4291         0.009721   
    470. D(H  69,N  23,C  22,O  26)    177.6443         0.028680   
    471. D(H  69,N  23,C  22,C  21)      0.4282         0.028680   
    472. D(C  24,N  23,C  22,O  26)     -3.1873         0.028680   
    473. D(C  24,N  23,C  22,C  21)    179.5966         0.028680   
    474. D(H  70,C  24,N  23,H  69)   -145.8486         0.015548   
    475. D(H  70,C  24,N  23,C  22)     34.9594         0.015548   
    476. D(C  25,C  24,N  23,H  69)     93.6806         0.015548   
    477. D(C  25,C  24,N  23,C  22)    -85.5114         0.015548   
    478. D(C   7,C  24,N  23,H  69)    -26.5331         0.015548   
    479. D(C   7,C  24,N  23,C  22)    154.2749         0.015548   
    480. D(H  70,C  24,C   7,O   8)    145.2727         0.009521   
    481. D(H  70,C  24,C   7,N   6)    -35.3905         0.009521   
    482. D(C  25,C  24,C   7,O   8)    -92.6877         0.009521   
    483. D(C  25,C  24,C   7,N   6)     86.6491         0.009521   
    484. D(N  23,C  24,C   7,O   8)     27.4397         0.009521   
    485. D(N  23,C  24,C   7,N   6)   -153.2236         0.009521   
    486. D(H  73,C  25,C  24,H  70)   -177.9480         0.011608   
    487. D(H  73,C  25,C  24,N  23)    -58.9177         0.011608   
    488. D(H  73,C  25,C  24,C   7)     60.0379         0.011608   
    489. D(H  72,C  25,C  24,H  70)     62.2053         0.011608   
    490. D(H  72,C  25,C  24,N  23)   -178.7645         0.011608   
    491. D(H  72,C  25,C  24,C   7)    -59.8089         0.011608   
    492. D(H  71,C  25,C  24,H  70)    -58.4841         0.011608   
    493. D(H  71,C  25,C  24,N  23)     60.5462         0.011608   
    494. D(H  71,C  25,C  24,C   7)    179.5018         0.011608   
    495. D(H  75,C  27,C  21,H  68)     63.4603         0.010850   
    496. D(H  75,C  27,C  21,C  22)   -173.2453         0.010850   
    497. D(H  75,C  27,C  21,N  20)    -55.9289         0.010850   
    498. D(H  74,C  27,C  21,H  68)    178.5603         0.010850   
    499. D(H  74,C  27,C  21,C  22)    -58.1453         0.010850   
    500. D(H  74,C  27,C  21,N  20)     59.1711         0.010850   
    501. D(C  28,C  27,C  21,H  68)    -59.3338         0.010850   
    502. D(C  28,C  27,C  21,C  22)     63.9606         0.010850   
    503. D(C  28,C  27,C  21,N  20)   -178.7230         0.010850   
    504. D(H  76,C  28,C  27,H  75)    178.7472         0.010252   
    505. D(H  76,C  28,C  27,H  74)     63.8034         0.010252   
    506. D(H  76,C  28,C  27,C  21)    -58.4717         0.010252   
    507. D(C  30,C  28,C  27,H  75)    -61.0696         0.010252   
    508. D(C  30,C  28,C  27,H  74)   -176.0134         0.010252   
    509. D(C  30,C  28,C  27,C  21)     61.7115         0.010252   
    510. D(C  29,C  28,C  27,H  75)     61.2363         0.010252   
    511. D(C  29,C  28,C  27,H  74)    -53.7075         0.010252   
    512. D(C  29,C  28,C  27,C  21)   -175.9826         0.010252   
    513. D(H  79,C  29,C  28,C  30)     61.9968         0.011049   
    514. D(H  79,C  29,C  28,C  27)    -61.9597         0.011049   
    515. D(H  78,C  29,C  28,H  76)     59.2030         0.011049   
    516. D(H  78,C  29,C  28,C  30)    -58.2485         0.011049   
    517. D(H  78,C  29,C  28,C  27)    177.7951         0.011049   
    518. D(H  77,C  29,C  28,H  76)    -60.2550         0.011049   
    519. D(H  77,C  29,C  28,C  30)   -177.7065         0.011049   
    520. D(H  79,C  29,C  28,H  76)    179.4482         0.011049   
    521. D(H  77,C  29,C  28,C  27)     58.3370         0.011049   
    522. D(H  82,C  30,C  28,H  76)    -63.7328         0.011204   
    523. D(H  82,C  30,C  28,C  29)     53.2239         0.011204   
    524. D(H  82,C  30,C  28,C  27)    175.5367         0.011204   
    525. D(H  81,C  30,C  28,H  76)    176.2171         0.011204   
    526. D(H  81,C  30,C  28,C  29)    -66.8262         0.011204   
    527. D(H  81,C  30,C  28,C  27)     55.4866         0.011204   
    528. D(H  80,C  30,C  28,H  76)     55.3707         0.011204   
    529. D(H  80,C  30,C  28,C  29)    172.3274         0.011204   
    530. D(H  80,C  30,C  28,C  27)    -65.3598         0.011204   
    531. D(O  42,C  32,C  18,H  66)     16.1604         0.011190   
    532. D(O  42,C  32,C  18,C  19)    -99.1287         0.011190   
    533. D(O  42,C  32,C  18,C  17)    132.4605         0.011190   
    534. D(C  33,C  32,C  18,H  66)   -165.1244         0.011190   
    535. D(C  33,C  32,C  18,C  19)     79.5865         0.011190   
    536. D(C  33,C  32,C  18,C  17)    -48.8243         0.011190   
    537. D(H  84,C  33,C  32,O  42)    135.1255         0.011195   
    538. D(H  84,C  33,C  32,C  18)    -43.5766         0.011195   
    539. D(H  83,C  33,C  32,O  42)   -106.3780         0.011195   
    540. D(H  83,C  33,C  32,C  18)     74.9199         0.011195   
    541. D(C  34,C  33,C  32,O  42)     14.4415         0.011195   
    542. D(C  34,C  33,C  32,C  18)   -164.2606         0.011195   
    543. D(H  86,C  34,C  33,H  84)    179.1548         0.011224   
    544. D(H  86,C  34,C  33,H  83)     59.9120         0.011224   
    545. D(H  86,C  34,C  33,C  32)    -60.1526         0.011224   
    546. D(H  85,C  34,C  33,H  84)    -63.8931         0.011224   
    547. D(H  85,C  34,C  33,H  83)    176.8642         0.011224   
    548. D(H  85,C  34,C  33,C  32)     56.7995         0.011224   
    549. D(C  35,C  34,C  33,H  84)     57.6859         0.011224   
    550. D(C  35,C  34,C  33,H  83)    -61.5569         0.011224   
    551. D(C  35,C  34,C  33,C  32)    178.3785         0.011224   
    552. D(H  88,C  35,C  34,H  86)    179.7157         0.011201   
    553. D(H  88,C  35,C  34,H  85)     62.7842         0.011201   
    554. D(H  88,C  35,C  34,C  33)    -58.7249         0.011201   
    555. D(H  87,C  35,C  34,H  86)    -63.0024         0.011201   
    556. D(H  87,C  35,C  34,H  85)   -179.9339         0.011201   
    557. D(H  87,C  35,C  34,C  33)     58.5570         0.011201   
    558. D(C  36,C  35,C  34,H  86)     58.3689         0.011201   
    559. D(C  36,C  35,C  34,H  85)    -58.5626         0.011201   
    560. D(C  36,C  35,C  34,C  33)    179.9284         0.011201   
    561. D(H  90,C  36,C  35,H  87)     62.6779         0.011184   
    562. D(H  90,C  36,C  35,C  34)    -58.6755         0.011184   
    563. D(H  89,C  36,C  35,H  88)    -62.7409         0.011184   
    564. D(H  89,C  36,C  35,H  87)    179.9679         0.011184   
    565. D(H  89,C  36,C  35,C  34)     58.6145         0.011184   
    566. D(C  37,C  36,C  35,H  88)     58.6122         0.011184   
    567. D(C  37,C  36,C  35,H  87)    -58.6791         0.011184   
    568. D(H  90,C  36,C  35,H  88)    179.9692         0.011184   
    569. D(C  37,C  36,C  35,C  34)    179.9676         0.011184   
    570. D(H  92,C  37,C  36,H  90)   -179.9879         0.011176   
    571. D(H  92,C  37,C  36,H  89)     62.7222         0.011176   
    572. D(H  92,C  37,C  36,C  35)    -58.6296         0.011176   
    573. D(H  91,C  37,C  36,H  90)    -62.7022         0.011176   
    574. D(H  91,C  37,C  36,H  89)   -179.9922         0.011176   
    575. D(H  91,C  37,C  36,C  35)     58.6560         0.011176   
    576. D(C  38,C  37,C  36,H  90)     58.6566         0.011176   
    577. D(C  38,C  37,C  36,H  89)    -58.6334         0.011176   
    578. D(C  38,C  37,C  36,C  35)   -179.9851         0.011176   
    579. D(H  94,C  38,C  37,H  92)    179.9954         0.011175   
    580. D(H  94,C  38,C  37,H  91)     62.7075         0.011175   
    581. D(H  94,C  38,C  37,C  36)    -58.6501         0.011175   
    582. D(H  93,C  38,C  37,H  92)    -62.7179         0.011175   
    583. D(H  93,C  38,C  37,H  91)    179.9942         0.011175   
    584. D(H  93,C  38,C  37,C  36)     58.6365         0.011175   
    585. D(C  39,C  38,C  37,H  92)     58.6394         0.011175   
    586. D(C  39,C  38,C  37,H  91)    -58.6485         0.011175   
    587. D(C  39,C  38,C  37,C  36)    179.9939         0.011175   
    588. D(H  95,C  39,C  38,H  94)    -62.7120         0.011177   
    589. D(H  95,C  39,C  38,H  93)   -179.9989         0.011177   
    590. D(H  95,C  39,C  38,C  37)     58.6448         0.011177   
    591. D(C  40,C  39,C  38,H  94)     58.6517         0.011177   
    592. D(C  40,C  39,C  38,H  93)    -58.6351         0.011177   
    593. D(C  40,C  39,C  38,C  37)   -179.9914         0.011177   
    594. D(H  96,C  39,C  38,H  94)   -179.9823         0.011177   
    595. D(H  96,C  39,C  38,H  93)     62.7308         0.011177   
    596. D(H  96,C  39,C  38,C  37)    -58.6255         0.011177   
    597. D(H  98,C  40,C  39,H  95)     62.5034         0.011263   
    598. D(H  98,C  40,C  39,C  38)    -58.8638         0.011263   
    599. D(H  97,C  40,C  39,H  96)    -62.5061         0.011263   
    600. D(H  97,C  40,C  39,H  95)   -179.7679         0.011263   
    601. D(H  97,C  40,C  39,C  38)     58.8649         0.011263   
    602. D(C  41,C  40,C  39,H  96)     58.6287         0.011263   
    603. D(C  41,C  40,C  39,H  95)    -58.6331         0.011263   
    604. D(H  98,C  40,C  39,H  96)    179.7652         0.011263   
    605. D(C  41,C  40,C  39,C  38)    179.9997         0.011263   
    606. D(H 101,C  41,C  40,H  98)    -61.2982         0.011917   
    607. D(H 101,C  41,C  40,H  97)   -178.1887         0.011917   
    608. D(H 101,C  41,C  40,C  39)     60.2572         0.011917   
    609. D(H 100,C  41,C  40,H  98)    178.1817         0.011917   
    610. D(H 100,C  41,C  40,H  97)     61.2912         0.011917   
    611. D(H 100,C  41,C  40,C  39)    -60.2629         0.011917   
    612. D(H  99,C  41,C  40,H  98)     58.4431         0.011917   
    613. D(H  99,C  41,C  40,H  97)    -58.4474         0.011917   
    614. D(H  99,C  41,C  40,C  39)    179.9986         0.011917   
    615. D(H 102,O  43,C  17,H  65)    -66.4892         0.017004   
    616. D(H 102,O  43,C  17,C  18)    178.5965         0.017004   
    617. D(H 102,O  43,C  17,C  16)     49.6208         0.017004   
    618. D(H 104,C  45,C  13,H  61)    173.5435         0.010939   
    619. D(H 104,C  45,C  13,C  14)    -69.4107         0.010939   
    620. D(H 104,C  45,C  13,N  12)     52.9281         0.010939   
    621. D(H 103,C  45,C  13,H  61)    -69.2509         0.010939   
    622. D(H 103,C  45,C  13,C  14)     47.7949         0.010939   
    623. D(H 103,C  45,C  13,N  12)    170.1338         0.010939   
    624. D(C  46,C  45,C  13,H  61)     51.5967         0.010939   
    625. D(C  46,C  45,C  13,C  14)    168.6425         0.010939   
    626. D(C  46,C  45,C  13,N  12)    -69.0186         0.010939   
    627. D(H 107,C  46,C  45,H 104)    -62.6703         0.011811   
    628. D(H 107,C  46,C  45,H 103)   -178.4369         0.011811   
    629. D(H 107,C  46,C  45,C  13)     59.8900         0.011811   
    630. D(H 106,C  46,C  45,H 104)    176.7800         0.011811   
    631. D(H 106,C  46,C  45,H 103)     61.0134         0.011811   
    632. D(H 106,C  46,C  45,C  13)    -60.6597         0.011811   
    633. D(H 105,C  46,C  45,H 104)     57.1356         0.011811   
    634. D(H 105,C  46,C  45,H 103)    -58.6310         0.011811   
    635. D(H 105,C  46,C  45,C  13)    179.6959         0.011811   
    636. D(H 108,C  48,C  10,H  59)   -164.5783         0.009726   
    637. D(H 108,C  48,C  10,C  11)    -47.8230         0.009726   
    638. D(H 108,C  48,C  10,N   9)     79.7689         0.009726   
    639. D(C  50,C  48,C  10,H  59)    -45.4654         0.009726   
    640. D(C  50,C  48,C  10,C  11)     71.2899         0.009726   
    641. D(C  50,C  48,C  10,N   9)   -161.1182         0.009726   
    642. D(C  49,C  48,C  10,H  59)     75.5052         0.009726   
    643. D(C  49,C  48,C  10,C  11)   -167.7396         0.009726   
    644. D(C  49,C  48,C  10,N   9)    -40.1476         0.009726   
    645. D(H 111,C  49,C  48,C  50)     67.3216         0.010680   
    646. D(H 111,C  49,C  48,C  10)    -55.8150         0.010680   
    647. D(H 110,C  49,C  48,H 108)     63.5173         0.010680   
    648. D(H 110,C  49,C  48,C  50)    -52.6643         0.010680   
    649. D(H 110,C  49,C  48,C  10)   -175.8009         0.010680   
    650. D(H 109,C  49,C  48,H 108)    -55.4547         0.010680   
    651. D(H 109,C  49,C  48,C  50)   -171.6362         0.010680   
    652. D(H 111,C  49,C  48,H 108)   -176.4968         0.010680   
    653. D(H 109,C  49,C  48,C  10)     65.2272         0.010680   
    654. D(H 114,C  50,C  48,H 108)    -61.5041         0.010654   
    655. D(H 114,C  50,C  48,C  49)     54.8185         0.010654   
    656. D(H 114,C  50,C  48,C  10)    178.4722         0.010654   
    657. D(H 113,C  50,C  48,H 108)    178.7789         0.010654   
    658. D(H 113,C  50,C  48,C  49)    -64.8986         0.010654   
    659. D(H 113,C  50,C  48,C  10)     58.7552         0.010654   
    660. D(H 112,C  50,C  48,H 108)     57.7470         0.010654   
    661. D(H 112,C  50,C  48,C  49)    174.0696         0.010654   
    662. D(H 112,C  50,C  48,C  10)    -62.2766         0.010654   
    -----------------------------------------------------------------

Number of atoms                         .... 115
Number of degrees of freedom            .... 662

         *************************************************************
         *                GEOMETRY OPTIMIZATION CYCLE   1            *
         *************************************************************
---------------------------------
CARTESIAN COORDINATES (ANGSTROEM)
---------------------------------
  O      6.258910   -2.779500    1.012730
  C      6.000580   -1.663170    0.563300
  C      6.798290   -0.380440    0.911970
  C      7.897200   -0.636230    1.942340
  C      7.172330   -0.456250    3.271420
  C      6.207780    0.688410    2.994740
  N      5.947480    0.631840    1.559950
  C      5.122380    1.472730    0.844070
  O      4.989190    1.333390   -0.380480
  N      4.988320   -1.459670   -0.350900
  C      4.145290   -2.521730   -0.916170
  C      3.214790   -3.109280    0.186560
  N      2.868100   -2.202650    1.168320
  C      1.898910   -2.494130    2.227260
  C      0.468100   -2.103670    1.792770
  N      0.405750   -1.121290    0.829660
  C     -0.832650   -0.531440    0.341710
  C     -1.558200    0.283440    1.437310
  C     -2.256660    1.566640    0.964780
  C     -1.280930    2.460070    0.225180
  N     -0.269220    2.964670    1.007690
  C      0.869380    3.712810    0.471090
  C      2.040400    3.453460    1.437760
  N      3.159630    2.912110    0.856440
  C      4.382190    2.598400    1.597400
  C      5.266590    3.836180    1.690630
  O      1.961120    3.665120    2.649990
  C      0.544170    5.209770    0.393010
  C      1.671950    6.085000   -0.190330
  C      1.266980    7.560170   -0.122780
  C      2.014760    5.711090   -1.632960
  O     -1.354780    2.694820   -0.980430
  C     -3.558220    1.365890    0.206020
  C     -3.605040    0.362650   -0.934680
  C     -4.834040    0.551900   -1.824320
  C     -4.837070   -0.442540   -2.986090
  C     -6.067050   -0.255210   -3.875680
  C     -6.069400   -1.249450   -5.038040
  C     -7.299210   -1.062030   -5.928030
  C     -7.301490   -2.056160   -7.090470
  C     -8.530310   -1.868690   -7.979890
  C     -8.536360   -2.855140   -9.136780
  O     -4.558600    2.035620    0.506470
  O     -2.491790   -0.554250    2.146000
  O     -0.545030   -2.517500    2.361330
  C      2.253020   -1.733480    3.509880
  C      3.525370   -2.260060    4.157370
  O      2.695650   -4.224050    0.135980
  C      4.928110   -3.594590   -1.715160
  C      6.045050   -2.983110   -2.574430
  C      4.001640   -4.387750   -2.649730
  H      7.212180    0.018030   -0.021740
  H      8.676830    0.130230    1.849700
  H      8.374770   -1.616260    1.856260
  H      6.618580   -1.367760    3.521000
  H      7.851820   -0.238570    4.100220
  H      5.275260    0.591280    3.557560
  H      6.667660    1.653000    3.227310
  H      4.865470   -0.510400   -0.709790
  H      3.474040   -1.993340   -1.607020
  H      3.312300   -1.288040    1.135540
  H      1.890590   -3.575160    2.410250
  H      1.283070   -0.838860    0.399720
  H     -1.457200   -1.357290   -0.013590
  H     -0.538550    0.085290   -0.510780
  H     -0.813900    0.579730    2.188650
  H     -2.557490    2.109420    1.874370
  H     -0.287560    2.817640    2.015370
  H      1.093580    3.308760   -0.521040
  H      3.168320    2.720970   -0.143750
  H      4.094080    2.260650    2.596740
  H      4.750910    4.647390    2.215560
  H      6.199980    3.628790    2.220990
  H      5.532130    4.205490    0.693150
  H      0.299560    5.575690    1.399840
  H     -0.366190    5.349390   -0.205350
  H      2.575170    5.963410    0.419910
  H      1.056270    7.859070    0.909520
  H      2.071450    8.202320   -0.496910
  H      0.371240    7.754820   -0.722450
  H      2.436620    4.703790   -1.695680
  H      1.128220    5.751110   -2.274770
  H      2.761130    6.398860   -2.045150
  H     -3.619790   -0.642750   -0.503020
  H     -2.704930    0.478190   -1.545220
  H     -4.852120    1.577300   -2.214270
  H     -5.746180    0.423840   -1.228280
  H     -4.820160   -1.466350   -2.592980
  H     -3.927520   -0.310890   -3.584750
  H     -6.083980    0.768830   -4.268160
  H     -6.976760   -0.387350   -3.277390
  H     -6.052610   -2.273490   -4.645520
  H     -5.159560   -1.117400   -5.636160
  H     -7.316010   -0.037950   -6.320440
  H     -8.209060   -1.194160   -5.329930
  H     -7.284710   -3.080320   -6.698180
  H     -6.391540   -1.924410   -7.688540
  H     -8.549680   -0.847520   -8.378050
  H     -9.442890   -2.003510   -7.387670
  H     -9.423450   -2.703390   -9.759650
  H     -7.651620   -2.724780   -9.768110
  H     -8.549700   -3.887260   -8.772250
  H     -1.978320   -1.360100    2.393990
  H      1.433140   -1.818140    4.233650
  H      2.372740   -0.663490    3.296750
  H      3.750820   -1.692140    5.065410
  H      3.415710   -3.313430    4.434130
  H      4.380430   -2.171040    3.482110
  H      5.387620   -4.304730   -1.016380
  H      6.825570   -2.525460   -1.959780
  H      6.532600   -3.752200   -3.183760
  H      5.649130   -2.217980   -3.251060
  H      3.236460   -4.941260   -2.101020
  H      3.495330   -3.724920   -3.359990
  H      4.572650   -5.123370   -3.227250

----------------------------
CARTESIAN COORDINATES (A.U.)
----------------------------
  NO LB      ZA    FRAG     MASS         X           Y           Z
   0 O     8.0000    0    15.999   11.827626   -5.252494    1.913782
   1 C     6.0000    0    12.011   11.339453   -3.142936    1.064483
   2 C     6.0000    0    12.011   12.846906   -0.718927    1.723374
   3 C     6.0000    0    12.011   14.923545   -1.202300    3.670491
   4 C     6.0000    0    12.011   13.553739   -0.862188    6.182088
   5 C     6.0000    0    12.011   11.731004    1.300906    5.659238
   6 N     7.0000    0    14.007   11.239108    1.194005    2.947878
   7 C     6.0000    0    12.011    9.679895    2.783056    1.595061
   8 O     8.0000    0    15.999    9.428203    2.519742   -0.719003
   9 N     7.0000    0    14.007    9.426559   -2.758377   -0.663105
  10 C     6.0000    0    12.011    7.833463   -4.765379   -1.731310
  11 C     6.0000    0    12.011    6.075073   -5.875688    0.352547
  12 N     7.0000    0    14.007    5.419924   -4.162405    2.207805
  13 C     6.0000    0    12.011    3.588420   -4.713223    4.208911
  14 C     6.0000    0    12.011    0.884581   -3.975360    3.387844
  15 N     7.0000    0    14.007    0.766756   -2.118931    1.567830
  16 C     6.0000    0    12.011   -1.573480   -1.004276    0.645738
  17 C     6.0000    0    12.011   -2.944571    0.535624    2.716122
  18 C     6.0000    0    12.011   -4.264469    2.960521    1.823170
  19 C     6.0000    0    12.011   -2.420607    4.648859    0.425529
  20 N     7.0000    0    14.007   -0.508752    5.602414    1.904258
  21 C     6.0000    0    12.011    1.642890    7.016194    0.890231
  22 C     6.0000    0    12.011    3.855797    6.526094    2.716973
  23 N     7.0000    0    14.007    5.970835    5.503090    1.618437
  24 C     6.0000    0    12.011    8.281139    4.910264    3.018649
  25 C     6.0000    0    12.011    9.952413    7.249330    3.194828
  26 O     8.0000    0    15.999    3.705980    6.926073    5.007755
  27 C     6.0000    0    12.011    1.028332    9.845039    0.742681
  28 C     6.0000    0    12.011    3.159528   11.498984   -0.359672
  29 C     6.0000    0    12.011    2.394245   14.286651   -0.232021
  30 C     6.0000    0    12.011    3.807345   10.792396   -3.085847
  31 O     8.0000    0    15.999   -2.560163    5.092472   -1.852744
  32 C     6.0000    0    12.011   -6.724061    2.581158    0.389321
  33 C     6.0000    0    12.011   -6.812538    0.685309   -1.766289
  34 C     6.0000    0    12.011   -9.135012    1.042940   -3.447465
  35 C     6.0000    0    12.011   -9.140738   -0.836279   -5.642892
  36 C     6.0000    0    12.011  -11.465063   -0.482277   -7.323974
  37 C     6.0000    0    12.011  -11.469504   -2.361118   -9.520516
  38 C     6.0000    0    12.011  -13.793508   -2.006946  -11.202353
  39 C     6.0000    0    12.011  -13.797816   -3.885579  -13.399046
  40 C     6.0000    0    12.011  -16.119950   -3.531312  -15.079807
  41 C     6.0000    0    12.011  -16.131383   -5.395433  -17.266012
  42 O     8.0000    0    15.999   -8.614506    3.846764    0.957090
  43 O     8.0000    0    15.999   -4.708801   -1.047381    4.055352
  44 O     8.0000    0    15.999   -1.029957   -4.757386    4.462267
  45 C     6.0000    0    12.011    4.257591   -3.275802    6.632712
  46 C     6.0000    0    12.011    6.661984   -4.270894    7.856291
  47 O     8.0000    0    15.999    5.094040   -7.982298    0.256965
  48 C     6.0000    0    12.011    9.312778   -6.792791   -3.241183
  49 C     6.0000    0    12.011   11.423489   -5.637261   -4.864968
  50 C     6.0000    0    12.011    7.562004   -8.291646   -5.007264
  51 H     1.0000    0     1.008   13.629045    0.034072   -0.041083
  52 H     1.0000    0     1.008   16.396832    0.246099    3.495426
  53 H     1.0000    0     1.008   15.826022   -3.054289    3.507823
  54 H     1.0000    0     1.008   12.507304   -2.584692    6.653726
  55 H     1.0000    0     1.008   14.837789   -0.450832    7.748293
  56 H     1.0000    0     1.008    9.968797    1.117357    6.722814
  57 H     1.0000    0     1.008   12.600051    3.123717    6.098732
  58 H     1.0000    0     1.008    9.194406   -0.964516   -1.341309
  59 H     1.0000    0     1.008    6.564984   -3.766867   -3.036828
  60 H     1.0000    0     1.008    6.259340   -2.434043    2.145860
  61 H     1.0000    0     1.008    3.572697   -6.756073    4.554712
  62 H     1.0000    0     1.008    2.424651   -1.585216    0.755361
  63 H     1.0000    0     1.008   -2.753709   -2.564906   -0.025681
  64 H     1.0000    0     1.008   -1.017712    0.161175   -0.965234
  65 H     1.0000    0     1.008   -1.538048    1.095531    4.135949
  66 H     1.0000    0     1.008   -4.832956    3.986226    3.542046
  67 H     1.0000    0     1.008   -0.543410    5.324568    3.808497
  68 H     1.0000    0     1.008    2.066567    6.252650   -0.984623
  69 H     1.0000    0     1.008    5.987257    5.141888   -0.271648
  70 H     1.0000    0     1.008    7.736690    4.272009    4.907127
  71 H     1.0000    0     1.008    8.977919    8.782294    4.186802
  72 H     1.0000    0     1.008   11.716264    6.857419    4.197063
  73 H     1.0000    0     1.008   10.454211    7.947224    1.309864
  74 H     1.0000    0     1.008    0.566086   10.536527    2.645314
  75 H     1.0000    0     1.008   -0.691999   10.108882   -0.388055
  76 H     1.0000    0     1.008    4.866366   11.269212    0.793515
  77 H     1.0000    0     1.008    1.996061   14.851490    1.718744
  78 H     1.0000    0     1.008    3.914473   15.500138   -0.939024
  79 H     1.0000    0     1.008    0.701542   14.654486   -1.365233
  80 H     1.0000    0     1.008    4.604544    8.888875   -3.204371
  81 H     1.0000    0     1.008    2.132027   10.868023   -4.298692
  82 H     1.0000    0     1.008    5.217780   12.092093   -3.864773
  83 H     1.0000    0     1.008   -6.840412   -1.214621   -0.950570
  84 H     1.0000    0     1.008   -5.111577    0.903648   -2.920043
  85 H     1.0000    0     1.008   -9.169178    2.980665   -4.184364
  86 H     1.0000    0     1.008  -10.858707    0.800942   -2.321113
  87 H     1.0000    0     1.008   -9.108782   -2.771000   -4.900022
  88 H     1.0000    0     1.008   -7.421937   -0.587497   -6.774196
  89 H     1.0000    0     1.008  -11.497056    1.452878   -8.065653
  90 H     1.0000    0     1.008  -13.184166   -0.731985   -6.193370
  91 H     1.0000    0     1.008  -11.437775   -4.296273   -8.778761
  92 H     1.0000    0     1.008   -9.750155   -2.111580  -10.650799
  93 H     1.0000    0     1.008  -13.825255   -0.071715  -11.943901
  94 H     1.0000    0     1.008  -15.512875   -2.256635  -10.072108
  95 H     1.0000    0     1.008  -13.766107   -5.820961  -12.657726
  96 H     1.0000    0     1.008  -12.078260   -3.636608  -14.529235
  97 H     1.0000    0     1.008  -16.156554   -1.601581  -15.832220
  98 H     1.0000    0     1.008  -17.844476   -3.786085  -13.960673
  99 H     1.0000    0     1.008  -17.807740   -5.108667  -18.443066
 100 H     1.0000    0     1.008  -14.459466   -5.149088  -18.459053
 101 H     1.0000    0     1.008  -16.156592   -7.345857  -16.577150
 102 H     1.0000    0     1.008   -3.738483   -2.570217    4.523985
 103 H     1.0000    0     1.008    2.708242   -3.435787    8.000439
 104 H     1.0000    0     1.008    4.483829   -1.253814    6.229955
 105 H     1.0000    0     1.008    7.088023   -3.197681    9.572238
 106 H     1.0000    0     1.008    6.454756   -6.261475    8.379291
 107 H     1.0000    0     1.008    8.277813   -4.102671    6.580234
 108 H     1.0000    0     1.008   10.181126   -8.134761   -1.920680
 109 H     1.0000    0     1.008   12.898458   -4.772428   -3.703447
 110 H     1.0000    0     1.008   12.344825   -7.090630   -6.016434
 111 H     1.0000    0     1.008   10.675309   -4.191375   -6.143613
 112 H     1.0000    0     1.008    6.116023   -9.337628   -3.970352
 113 H     1.0000    0     1.008    6.605216   -7.039079   -6.349461
 114 H     1.0000    0     1.008    8.641056   -9.681766   -6.098619

--------------------------------
INTERNAL COORDINATES (ANGSTROEM)
--------------------------------
 O      0   0   0     0.000000000000     0.00000000     0.00000000
 C      1   0   0     1.230818582367     0.00000000     0.00000000
 C      2   1   0     1.550260709010   124.07916282     0.00000000
 C      3   2   1     1.527970565521   112.53348105   356.68259240
 C      4   3   2     1.524559924601   103.07121026   272.39340750
 C      5   4   3     1.522220430982   103.39081985   322.97510503
 N      6   5   4     1.459307575188   105.22332938    26.81861863
 C      7   6   5     1.378539145799   126.41959106   179.69918438
 O      8   7   6     1.239628135450   120.57926752   179.33300377
 N      2   1   3     1.379073673739   122.00237987   177.36898567
 C     10   2   1     1.469081753137   124.72276864   358.08273488
 C     11  10   2     1.557902020475   110.06224736    68.58679250
 N     12  11  10     1.380588501546   113.93303183    30.01322503
 C     13  12  11     1.464801614588   123.33683791   173.69665598
 C     14  13  12     1.545463628754   111.04186711   269.91477773
 N     15  14  13     1.377148815125   114.75608469   334.96588507
 C     16  15  14     1.455902738853   124.18778349   184.57720682
 C     17  16  15     1.546218476445   112.03532769    66.22152685
 C     18  17  16     1.535491195839   115.83726444   142.86717038
 C     19  18  17     1.515676204801   110.48380857   305.50720377
 N     20  19  18     1.374954611687   114.34966361   294.02251817
 C     21  20  19     1.464261923154   123.44330959   172.30159875
 C     22  21  20     1.540454852243   105.96941346   208.78923366
 N     23  22  21     1.372468053472   114.86805799   122.76832951
 C     24  23  22     1.463587591947   123.45646837   179.59660671
 C     25  24  23     1.524124181719   109.97450378   274.48858299
 O     23  22  21     1.233120775472   122.62373166   305.55773172
 C     22  21  20     1.533866771301   110.63595131    88.45596266
 C     28  22  21     1.542141639701   114.71404436   181.27697823
 C     29  28  22     1.531238137032   109.67369665   184.01738016
 C     29  28  22     1.529218330095   112.45870485    61.71150161
 O     20  19  18     1.230470177249   123.49944070   112.19655750
 C     19  18  17     1.519893329711   115.64432077    74.99136797
 C     33  19  18     1.519828641657   119.22592315   311.17572839
 C     34  33  19     1.528959087778   112.31938902   195.73941470
 C     35  34  33     1.529257868183   111.29313681   178.37848825
 C     36  35  34     1.529481512605   111.33426377   179.92837706
 C     37  36  35     1.529574931051   111.32241965   179.96757573
 C     38  37  36     1.529588537026   111.33071502   180.01485752
 C     39  38  37     1.529564123827   111.33102372   179.99387283
 C     40  39  38     1.528467052213   111.32864074   180.00860227
 C     41  40  39     1.520366625883   111.49414447   179.99967499
 O     33  19  18     1.240793544390   119.88429590   132.46050527
 O     18  17  16     1.440679124684   110.25488507   268.62380927
 O     15  14  13     1.233267261951   123.10448747   162.96095970
 C     14  13  12     1.532676214665   110.69260476   148.84038232
 C     46  14  13     1.521645267137   112.18132335   290.98143011
 O     12  11  10     1.230762702108   124.36360110   201.97576537
 C     11  10   2     1.549909917415   114.13860629   299.03922500
 C     49  11  10     1.536166555716   112.33704292   319.85235420
 C     49  11  10     1.536512457288   111.48955277   198.88177840
 H      3   2   1     1.096310921728   107.66504674   119.72941238
 H      4   3   2     1.097208292942   109.70348692   156.16919196
 H      4   3   2     1.093591181475   114.26854480    34.73120953
 H      5   4   3     1.095344566335   109.92367955    80.71890848
 H      5   4   3     1.093618161197   112.87749047   201.21269677
 H      6   5   4     1.093523726171   112.33436448   147.11606407
 H      6   5   4     1.093623466921   110.98580161   269.58117667
 H     10   2   1     1.022256175085   117.25614807   182.84253405
 H     11  10   2     1.098656578326   104.17395371   180.88508332
 H     13  12  11     1.017300162440   117.24814453   354.18516323
 H     14  13  12     1.096439885903   108.77578697    27.16172976
 H     16  15  14     1.017008107588   117.04528102     8.43697738
 H     17  16  15     1.094682152499   106.76391836   304.39411289
 H     17  16  15     1.092515401722   105.14402166   188.64331415
 H     18  17  16     1.098308722400   107.99296103    22.87097672
 H     19  18  17     1.101118878868   106.37998177   189.99545915
 H     21  20  19     1.018515173623   119.79081651   352.73963793
 H     22  21  20     1.094460588327   107.62978715   327.08307611
 H     24  23  22     1.018327084880   119.80230353     0.42817825
 H     25  24  23     1.093509428492   107.98605366    34.95938447
 H     26  25  24     1.095234692383   110.95431305    60.54616460
 H     26  25  24     1.093393448764   111.77630275   181.23553340
 H     26  25  24     1.096297276335   111.00655578   301.08226688
 H     28  22  21     1.098834904524   108.99891304    59.17113904
 H     28  22  21     1.098309502645   109.11917122   304.07113746
 H     29  28  22     1.096805978330   109.19934955   301.52829520
 H     30  29  28     1.095163551302   110.81800438    58.33703914
 H     30  29  28     1.095217722784   110.82534516   177.79508239
 H     30  29  28     1.095373397066   111.30399050   298.04031959
 H     31  29  28     1.093870626720   111.45097099   294.64016935
 H     31  29  28     1.095205390829   111.25005583    55.48657909
 H     31  29  28     1.095443447148   110.74408154   175.53671873
 H     34  33  19     1.094247265521   108.11005464    74.91986115
 H     34  33  19     1.093758014965   108.89743285   316.42341167
 H     35  34  33     1.097193259595   109.61635334    56.79952426
 H     35  34  33     1.097115502032   109.73864359   299.84739592
 H     36  35  34     1.096817366885   109.55303147    58.55702716
 H     36  35  34     1.096816630344   109.57002142   301.27511920
 H     37  36  35     1.096806772818   109.56621095    58.61451410
 H     37  36  35     1.096806358388   109.57112160   301.32454672
 H     38  37  36     1.096818934966   109.56652715    58.65601818
 H     38  37  36     1.096810632014   109.56489520   301.37040963
 H     39  38  37     1.096817074311   109.56574017    58.63653633
 H     39  38  37     1.096817655492   109.56721351   301.34987583
 H     40  39  38     1.096848539271   109.57495831    58.64483046
 H     40  39  38     1.096838543223   109.57778431   301.37454519
 H     41  40  39     1.096218386728   109.86563858    58.86485050
 H     41  40  39     1.096222248087   109.86618694   301.13618120
 H     42  41  40     1.094497038598   110.26151224   179.99856642
 H     42  41  40     1.094685418785   110.99974116   299.73713305
 H     42  41  40     1.094683411266   111.00204212    60.25722443
 H     44  18  17     0.987190307641   105.13898371    49.62078582
 H     46  14  13     1.096910909281   109.94887539   170.13376997
 H     46  14  13     1.097559053263   110.27461996    52.92814025
 H     47  46  14     1.094485025252   110.22481912   179.69589268
 H     47  46  14     1.094627685608   110.90595397   299.34034493
 H     47  46  14     1.093173468211   111.28503419    59.89002859
 H     49  11  10     1.097151652280   109.34431029    79.76888124
 H     50  49  11     1.093823393149   111.78090573    65.22717748
 H     50  49  11     1.095667595350   110.80617207   184.19912364
 H     50  49  11     1.095447269475   111.14569265   304.18500184
 H     51  49  11     1.092225442205   112.23802968   297.72335600
 H     51  49  11     1.095519371166   111.14244998    58.75516776
 H     51  49  11     1.095773039867   110.66504330   178.47221284

---------------------------
INTERNAL COORDINATES (A.U.)
---------------------------
 O      0   0   0     0.000000000000     0.00000000     0.00000000
 C      1   0   0     2.325910041215     0.00000000     0.00000000
 C      2   1   0     2.929568176207   124.07916282     0.00000000
 C      3   2   1     2.887445909528   112.53348105   356.68259240
[...]
freq.      84.57  E(vib)   ...       0.48 
freq.      88.65  E(vib)   ...       0.47 
freq.      92.16  E(vib)   ...       0.47 
freq.      96.12  E(vib)   ...       0.47 
freq.      97.12  E(vib)   ...       0.46 
freq.     100.72  E(vib)   ...       0.46 
freq.     116.18  E(vib)   ...       0.44 
freq.     118.03  E(vib)   ...       0.44 
freq.     120.54  E(vib)   ...       0.44 
freq.     122.51  E(vib)   ...       0.43 
freq.     125.11  E(vib)   ...       0.43 
freq.     130.60  E(vib)   ...       0.43 
freq.     139.75  E(vib)   ...       0.42 
freq.     142.10  E(vib)   ...       0.41 
freq.     156.03  E(vib)   ...       0.40 
freq.     160.55  E(vib)   ...       0.39 
freq.     163.34  E(vib)   ...       0.39 
freq.     169.52  E(vib)   ...       0.38 
freq.     173.08  E(vib)   ...       0.38 
freq.     174.62  E(vib)   ...       0.38 
freq.     187.83  E(vib)   ...       0.36 
freq.     190.88  E(vib)   ...       0.36 
freq.     195.43  E(vib)   ...       0.36 
freq.     205.67  E(vib)   ...       0.35 
freq.     213.53  E(vib)   ...       0.34 
freq.     219.69  E(vib)   ...       0.33 
freq.     225.12  E(vib)   ...       0.33 
freq.     229.74  E(vib)   ...       0.32 
freq.     233.16  E(vib)   ...       0.32 
freq.     237.14  E(vib)   ...       0.32 
freq.     244.18  E(vib)   ...       0.31 
freq.     246.84  E(vib)   ...       0.31 
freq.     248.07  E(vib)   ...       0.31 
freq.     250.21  E(vib)   ...       0.31 
freq.     258.57  E(vib)   ...       0.30 
freq.     262.05  E(vib)   ...       0.29 
freq.     269.41  E(vib)   ...       0.29 
freq.     282.75  E(vib)   ...       0.28 
freq.     294.64  E(vib)   ...       0.27 
freq.     305.36  E(vib)   ...       0.26 
freq.     309.29  E(vib)   ...       0.26 
freq.     313.76  E(vib)   ...       0.25 
freq.     326.26  E(vib)   ...       0.24 
freq.     329.79  E(vib)   ...       0.24 
freq.     332.86  E(vib)   ...       0.24 
freq.     343.66  E(vib)   ...       0.23 
freq.     351.11  E(vib)   ...       0.23 
freq.     360.63  E(vib)   ...       0.22 
freq.     364.61  E(vib)   ...       0.22 
freq.     374.03  E(vib)   ...       0.21 
freq.     385.70  E(vib)   ...       0.20 
freq.     394.02  E(vib)   ...       0.20 
freq.     397.65  E(vib)   ...       0.20 
freq.     405.09  E(vib)   ...       0.19 
freq.     407.90  E(vib)   ...       0.19 
freq.     433.34  E(vib)   ...       0.17 
freq.     439.14  E(vib)   ...       0.17 
freq.     459.42  E(vib)   ...       0.16 
freq.     461.66  E(vib)   ...       0.16 
freq.     464.75  E(vib)   ...       0.16 
freq.     468.23  E(vib)   ...       0.16 
freq.     482.96  E(vib)   ...       0.15 
freq.     486.78  E(vib)   ...       0.15 
freq.     501.40  E(vib)   ...       0.14 
freq.     510.32  E(vib)   ...       0.14 
freq.     513.59  E(vib)   ...       0.13 
freq.     544.55  E(vib)   ...       0.12 
freq.     552.72  E(vib)   ...       0.12 
freq.     560.85  E(vib)   ...       0.11 
freq.     571.41  E(vib)   ...       0.11 
freq.     591.76  E(vib)   ...       0.10 
freq.     619.22  E(vib)   ...       0.09 
freq.     624.84  E(vib)   ...       0.09 
freq.     635.01  E(vib)   ...       0.09 
freq.     646.18  E(vib)   ...       0.09 
freq.     658.18  E(vib)   ...       0.08 
freq.     671.12  E(vib)   ...       0.08 
freq.     693.85  E(vib)   ...       0.07 
freq.     703.01  E(vib)   ...       0.07 
freq.     715.78  E(vib)   ...       0.07 
freq.     719.33  E(vib)   ...       0.07 
freq.     719.45  E(vib)   ...       0.07 
freq.     722.99  E(vib)   ...       0.07 
freq.     726.21  E(vib)   ...       0.06 
freq.     735.98  E(vib)   ...       0.06 
freq.     743.42  E(vib)   ...       0.06 
freq.     749.42  E(vib)   ...       0.06 
freq.     756.85  E(vib)   ...       0.06 
freq.     761.97  E(vib)   ...       0.06 
freq.     766.02  E(vib)   ...       0.06 
freq.     770.17  E(vib)   ...       0.05 
freq.     775.66  E(vib)   ...       0.05 
freq.     781.14  E(vib)   ...       0.05 
freq.     804.34  E(vib)   ...       0.05 
freq.     811.29  E(vib)   ...       0.05 
freq.     818.63  E(vib)   ...       0.05 
freq.     822.35  E(vib)   ...       0.05 
freq.     842.25  E(vib)   ...       0.04 
freq.     853.45  E(vib)   ...       0.04 
freq.     855.93  E(vib)   ...       0.04 
freq.     866.39  E(vib)   ...       0.04 
freq.     872.49  E(vib)   ...       0.04 
freq.     874.19  E(vib)   ...       0.04 
freq.     880.07  E(vib)   ...       0.04 
freq.     887.38  E(vib)   ...       0.04 
freq.     892.98  E(vib)   ...       0.03 
freq.     894.44  E(vib)   ...       0.03 
freq.     899.76  E(vib)   ...       0.03 
freq.     903.60  E(vib)   ...       0.03 
freq.     916.23  E(vib)   ...       0.03 
freq.     922.70  E(vib)   ...       0.03 
freq.     924.65  E(vib)   ...       0.03 
freq.     930.42  E(vib)   ...       0.03 
freq.     933.83  E(vib)   ...       0.03 
freq.     934.40  E(vib)   ...       0.03 
freq.     940.40  E(vib)   ...       0.03 
freq.     947.21  E(vib)   ...       0.03 
freq.     951.98  E(vib)   ...       0.03 
freq.     954.64  E(vib)   ...       0.03 
freq.     969.69  E(vib)   ...       0.03 
freq.     975.82  E(vib)   ...       0.03 
freq.     981.71  E(vib)   ...       0.02 
freq.     988.33  E(vib)   ...       0.02 
freq.     997.58  E(vib)   ...       0.02 
freq.     998.29  E(vib)   ...       0.02 
freq.    1002.35  E(vib)   ...       0.02 
freq.    1028.00  E(vib)   ...       0.02 
freq.    1029.85  E(vib)   ...       0.02 
freq.    1030.72  E(vib)   ...       0.02 
freq.    1035.98  E(vib)   ...       0.02 
freq.    1048.88  E(vib)   ...       0.02 
freq.    1054.57  E(vib)   ...       0.02 
freq.    1055.80  E(vib)   ...       0.02 
freq.    1057.14  E(vib)   ...       0.02 
freq.    1058.49  E(vib)   ...       0.02 
freq.    1061.02  E(vib)   ...       0.02 
freq.    1065.12  E(vib)   ...       0.02 
freq.    1068.74  E(vib)   ...       0.02 
freq.    1073.30  E(vib)   ...       0.02 
freq.    1079.08  E(vib)   ...       0.02 
freq.    1080.92  E(vib)   ...       0.02 
freq.    1084.86  E(vib)   ...       0.02 
freq.    1093.50  E(vib)   ...       0.02 
freq.    1103.52  E(vib)   ...       0.02 
freq.    1105.78  E(vib)   ...       0.02 
freq.    1113.68  E(vib)   ...       0.01 
freq.    1117.44  E(vib)   ...       0.01 
freq.    1119.29  E(vib)   ...       0.01 
freq.    1123.20  E(vib)   ...       0.01 
freq.    1129.80  E(vib)   ...       0.01 
freq.    1131.42  E(vib)   ...       0.01 
freq.    1142.59  E(vib)   ...       0.01 
freq.    1145.87  E(vib)   ...       0.01 
freq.    1151.61  E(vib)   ...       0.01 
freq.    1154.37  E(vib)   ...       0.01 
freq.    1158.73  E(vib)   ...       0.01 
freq.    1163.15  E(vib)   ...       0.01 
freq.    1166.08  E(vib)   ...       0.01 
freq.    1168.09  E(vib)   ...       0.01 
freq.    1174.65  E(vib)   ...       0.01 
freq.    1177.25  E(vib)   ...       0.01 
freq.    1180.00  E(vib)   ...       0.01 
freq.    1191.54  E(vib)   ...       0.01 
freq.    1199.95  E(vib)   ...       0.01 
freq.    1204.88  E(vib)   ...       0.01 
freq.    1210.23  E(vib)   ...       0.01 
freq.    1216.86  E(vib)   ...       0.01 
freq.    1217.21  E(vib)   ...       0.01 
freq.    1220.15  E(vib)   ...       0.01 
freq.    1223.38  E(vib)   ...       0.01 
freq.    1228.00  E(vib)   ...       0.01 
freq.    1230.77  E(vib)   ...       0.01 
freq.    1241.02  E(vib)   ...       0.01 
freq.    1245.29  E(vib)   ...       0.01 
freq.    1250.54  E(vib)   ...       0.01 
freq.    1250.74  E(vib)   ...       0.01 
freq.    1257.63  E(vib)   ...       0.01 
freq.    1262.80  E(vib)   ...       0.01 
freq.    1263.35  E(vib)   ...       0.01 
freq.    1267.79  E(vib)   ...       0.01 
freq.    1272.81  E(vib)   ...       0.01 
freq.    1273.76  E(vib)   ...       0.01 
freq.    1277.30  E(vib)   ...       0.01 
freq.    1281.60  E(vib)   ...       0.01 
freq.    1283.15  E(vib)   ...       0.01 
freq.    1289.11  E(vib)   ...       0.01 
freq.    1292.18  E(vib)   ...       0.01 
freq.    1293.30  E(vib)   ...       0.01 
freq.    1295.08  E(vib)   ...       0.01 
freq.    1298.04  E(vib)   ...       0.01 
freq.    1301.05  E(vib)   ...       0.01 
freq.    1302.64  E(vib)   ...       0.01 
freq.    1305.16  E(vib)   ...       0.01 
freq.    1306.45  E(vib)   ...       0.01 
freq.    1313.44  E(vib)   ...       0.01 
freq.    1317.24  E(vib)   ...       0.01 
freq.    1318.52  E(vib)   ...       0.01 
freq.    1319.19  E(vib)   ...       0.01 
freq.    1320.87  E(vib)   ...       0.01 
freq.    1327.64  E(vib)   ...       0.01 
freq.    1329.20  E(vib)   ...       0.01 
freq.    1332.23  E(vib)   ...       0.01 
freq.    1333.19  E(vib)   ...       0.01 
freq.    1338.91  E(vib)   ...       0.01 
freq.    1341.56  E(vib)   ...       0.01 
freq.    1344.77  E(vib)   ...       0.01 
freq.    1347.24  E(vib)   ...       0.01 
freq.    1353.33  E(vib)   ...       0.01 
freq.    1353.56  E(vib)   ...       0.01 
freq.    1358.14  E(vib)   ...       0.01 
freq.    1358.84  E(vib)   ...       0.01 
freq.    1362.34  E(vib)   ...       0.01 
freq.    1363.25  E(vib)   ...       0.01 
freq.    1389.39  E(vib)   ...       0.00 
freq.    1397.31  E(vib)   ...       0.00 
freq.    1401.95  E(vib)   ...       0.00 
freq.    1408.94  E(vib)   ...       0.00 
freq.    1410.18  E(vib)   ...       0.00 
freq.    1410.43  E(vib)   ...       0.00 
freq.    1411.31  E(vib)   ...       0.00 
freq.    1411.60  E(vib)   ...       0.00 
freq.    1412.29  E(vib)   ...       0.00 
freq.    1413.85  E(vib)   ...       0.00 
freq.    1414.86  E(vib)   ...       0.00 
freq.    1415.88  E(vib)   ...       0.00 
freq.    1416.61  E(vib)   ...       0.00 
freq.    1419.75  E(vib)   ...       0.00 
freq.    1420.35  E(vib)   ...       0.00 
freq.    1421.56  E(vib)   ...       0.00 
freq.    1422.21  E(vib)   ...       0.00 
freq.    1424.62  E(vib)   ...       0.00 
freq.    1425.94  E(vib)   ...       0.00 
freq.    1427.03  E(vib)   ...       0.00 
freq.    1428.77  E(vib)   ...       0.00 
freq.    1429.10  E(vib)   ...       0.00 
freq.    1430.32  E(vib)   ...       0.00 
freq.    1434.70  E(vib)   ...       0.00 
freq.    1435.39  E(vib)   ...       0.00 
freq.    1439.30  E(vib)   ...       0.00 
freq.    1439.47  E(vib)   ...       0.00 
freq.    1443.88  E(vib)   ...       0.00 
freq.    1445.21  E(vib)   ...       0.00 
freq.    1445.83  E(vib)   ...       0.00 
freq.    1454.48  E(vib)   ...       0.00 
freq.    1477.37  E(vib)   ...       0.00 
freq.    1488.75  E(vib)   ...       0.00 
freq.    1507.44  E(vib)   ...       0.00 
freq.    1528.75  E(vib)   ...       0.00 
freq.    1661.97  E(vib)   ...       0.00 
freq.    1696.40  E(vib)   ...       0.00 
freq.    1706.00  E(vib)   ...       0.00 
freq.    1714.04  E(vib)   ...       0.00 
freq.    1726.31  E(vib)   ...       0.00 
freq.    1749.54  E(vib)   ...       0.00 
freq.    1755.67  E(vib)   ...       0.00 
freq.    2839.20  E(vib)   ...       0.00 
freq.    2927.62  E(vib)   ...       0.00 
freq.    2928.52  E(vib)   ...       0.00 
freq.    2929.19  E(vib)   ...       0.00 
freq.    2930.44  E(vib)   ...       0.00 
freq.    2934.84  E(vib)   ...       0.00 
freq.    2940.98  E(vib)   ...       0.00 
freq.    2941.28  E(vib)   ...       0.00 
freq.    2945.63  E(vib)   ...       0.00 
freq.    2950.08  E(vib)   ...       0.00 
freq.    2950.61  E(vib)   ...       0.00 
freq.    2953.79  E(vib)   ...       0.00 
freq.    2954.12  E(vib)   ...       0.00 
freq.    2954.66  E(vib)   ...       0.00 
freq.    2956.22  E(vib)   ...       0.00 
freq.    2957.07  E(vib)   ...       0.00 
freq.    2958.06  E(vib)   ...       0.00 
freq.    2958.86  E(vib)   ...       0.00 
freq.    2961.56  E(vib)   ...       0.00 
freq.    2961.84  E(vib)   ...       0.00 
freq.    2961.86  E(vib)   ...       0.00 
freq.    2967.71  E(vib)   ...       0.00 
freq.    2969.29  E(vib)   ...       0.00 
freq.    2971.07  E(vib)   ...       0.00 
freq.    2973.70  E(vib)   ...       0.00 
freq.    2974.09  E(vib)   ...       0.00 
freq.    2979.72  E(vib)   ...       0.00 
freq.    2989.35  E(vib)   ...       0.00 
freq.    2989.96  E(vib)   ...       0.00 
freq.    2996.75  E(vib)   ...       0.00 
freq.    2998.44  E(vib)   ...       0.00 
freq.    2998.93  E(vib)   ...       0.00 
freq.    3004.49  E(vib)   ...       0.00 
freq.    3006.45  E(vib)   ...       0.00 
freq.    3007.28  E(vib)   ...       0.00 
freq.    3012.18  E(vib)   ...       0.00 
freq.    3014.67  E(vib)   ...       0.00 
freq.    3018.93  E(vib)   ...       0.00 
freq.    3019.53  E(vib)   ...       0.00 
freq.    3023.67  E(vib)   ...       0.00 
freq.    3031.12  E(vib)   ...       0.00 
freq.    3034.29  E(vib)   ...       0.00 
freq.    3034.91  E(vib)   ...       0.00 
freq.    3037.30  E(vib)   ...       0.00 
freq.    3039.43  E(vib)   ...       0.00 
freq.    3042.16  E(vib)   ...       0.00 
freq.    3043.45  E(vib)   ...       0.00 
freq.    3045.97  E(vib)   ...       0.00 
freq.    3048.28  E(vib)   ...       0.00 
freq.    3048.29  E(vib)   ...       0.00 
freq.    3055.88  E(vib)   ...       0.00 
freq.    3057.87  E(vib)   ...       0.00 
freq.    3059.82  E(vib)   ...       0.00 
freq.    3063.88  E(vib)   ...       0.00 
freq.    3067.97  E(vib)   ...       0.00 
freq.    3079.41  E(vib)   ...       0.00 
freq.    3080.02  E(vib)   ...       0.00 
freq.    3090.71  E(vib)   ...       0.00 
freq.    3264.85  E(vib)   ...       0.00 
freq.    3364.84  E(vib)   ...       0.00 
freq.    3470.70  E(vib)   ...       0.00 
freq.    3479.71  E(vib)   ...       0.00 
freq.    3486.43  E(vib)   ...       0.00 
freq.    3502.21  E(vib)   ...       0.00 

------------
INNER ENERGY
------------

The inner energy is: U= E(el) + E(ZPE) + E(vib) + E(rot) + E(trans)
    E(el)   - is the total energy from the electronic structure calculation
              = E(kin-el) + E(nuc-el) + E(el-el) + E(nuc-nuc)
    E(ZPE)  - the the zero temperature vibrational energy from the frequency calculation
    E(vib)  - the the finite temperature correction to E(ZPE) due to population
              of excited vibrational states
    E(rot)  - is the rotational thermal energy
    E(trans)- is the translational thermal energy

Summary of contributions to the inner energy U:
Electronic energy                ...  -2377.46286283 Eh
Zero point energy                ...      0.97771048 Eh     613.52 kcal/mol
Thermal vibrational correction   ...      0.05554747 Eh      34.86 kcal/mol
Thermal rotational correction    ...      0.00141627 Eh       0.89 kcal/mol
Thermal translational correction ...      0.00141627 Eh       0.89 kcal/mol
-----------------------------------------------------------------------
Total thermal energy                  -2376.42677234 Eh


Summary of corrections to the electronic energy:
(perhaps to be used in another calculation)
Total thermal correction                  0.05838001 Eh      36.63 kcal/mol
Non-thermal (ZPE) correction              0.97771048 Eh     613.52 kcal/mol
-----------------------------------------------------------------------
Total correction                          1.03609049 Eh     650.16 kcal/mol


--------
ENTHALPY
--------

The enthalpy is H = U + kB*T
                kB is Boltzmann's constant
Total free energy                 ...  -2376.42677234 Eh 
Thermal Enthalpy correction       ...      0.00094421 Eh       0.59 kcal/mol
-----------------------------------------------------------------------
Total Enthalpy                    ...  -2376.42582813 Eh


Note: Only C1 symmetry has been detected, increase convergence thresholds 
      if your molecule has a higher symmetry. Symmetry factor of 1.0 is   
      used for the rotational entropy correction. 
 

Note: Rotational entropy computed according to Herzberg 
Infrared and Raman Spectra, Chapter V,1, Van Nostrand Reinhold, 1945 
Point Group:  C1, Symmetry Number:   1  
Rotational constants in cm-1:     0.002024     0.000828     0.000698 

Vibrational entropy computed according to the QRRHO of S. Grimme
Chem.Eur.J. 2012 18 9955


-------
ENTROPY
-------

The entropy contributions are T*S = T*(S(el)+S(vib)+S(rot)+S(trans))
     S(el)   - electronic entropy
     S(vib)  - vibrational entropy
     S(rot)  - rotational entropy
     S(trans)- translational entropy
The entropies will be listed as mutliplied by the temperature to get
units of energy

Electronic entropy                ...      0.00000000 Eh      0.00 kcal/mol
Vibrational entropy               ...      0.10273942 Eh     64.47 kcal/mol
Rotational entropy                ...      0.01921984 Eh     12.06 kcal/mol
Translational entropy             ...      0.02166895 Eh     13.60 kcal/mol
-----------------------------------------------------------------------
Final entropy term                ...      0.14362821 Eh     90.13 kcal/mol

In case the symmetry of your molecule has not been determined correctly
or in case you have a reason to use a different symmetry number we print 
out the resulting rotational entropy values for sn=1,12 :
 --------------------------------------------------------
|  sn= 1 | S(rot)=       0.01921984 Eh     12.06 kcal/mol|
|  sn= 2 | S(rot)=       0.01856538 Eh     11.65 kcal/mol|
|  sn= 3 | S(rot)=       0.01818255 Eh     11.41 kcal/mol|
|  sn= 4 | S(rot)=       0.01791093 Eh     11.24 kcal/mol|
|  sn= 5 | S(rot)=       0.01770024 Eh     11.11 kcal/mol|
|  sn= 6 | S(rot)=       0.01752809 Eh     11.00 kcal/mol|
|  sn= 7 | S(rot)=       0.01738255 Eh     10.91 kcal/mol|
|  sn= 8 | S(rot)=       0.01725647 Eh     10.83 kcal/mol|
|  sn= 9 | S(rot)=       0.01714526 Eh     10.76 kcal/mol|
|  sn=10 | S(rot)=       0.01704578 Eh     10.70 kcal/mol|
|  sn=11 | S(rot)=       0.01695579 Eh     10.64 kcal/mol|
|  sn=12 | S(rot)=       0.01687364 Eh     10.59 kcal/mol|
 --------------------------------------------------------


-------------------
GIBBS FREE ENERGY
-------------------

The Gibbs free energy is G = H - T*S

Total enthalpy                    ...  -2376.42582813 Eh 
Total entropy correction          ...     -0.14362821 Eh    -90.13 kcal/mol
-----------------------------------------------------------------------
Final Gibbs free energy         ...  -2376.56945634 Eh

For completeness - the Gibbs free energy minus the electronic energy
G-E(el)                           ...      0.89340649 Eh    560.62 kcal/mol

--------------------------------------------------------------------------
WARNING: No preset parameters were found for the device that Open MPI
detected:

  Local host:            eu-g1-038-4
  Device name:           mlx5_0
  Device vendor ID:      0x02c9
  Device vendor part ID: 4123

Default device parameters will be used, which may result in lower
performance.  You can edit any of the files specified by the
btl_openib_device_param_files MCA parameter to set values for your
device.

NOTE: You can turn off this warning by setting the MCA parameter
      btl_openib_warn_no_device_params_found to 0.
--------------------------------------------------------------------------
--------------------------------------------------------------------------
WARNING: There was an error initializing an OpenFabrics device.

  Local host:   eu-g1-038-4
  Local device: mlx5_0
--------------------------------------------------------------------------

Timings for individual modules:

Sum of individual times         ...    10586.139 sec (= 176.436 min)
GTO integral calculation        ...       56.898 sec (=   0.948 min)   0.5 %
SCF iterations                  ...     1891.423 sec (=  31.524 min)  17.9 %
SCF Gradient evaluation         ...      647.542 sec (=  10.792 min)   6.1 %
Geometry relaxation             ...       59.784 sec (=   0.996 min)   0.6 %
Analytical frequency calculation...     7930.492 sec (= 132.175 min)  74.9 %
                             ****ORCA TERMINATED NORMALLY****
TOTAL RUN TIME: 0 days 2 hours 57 minutes 22 seconds 353 msec
