
                                 *****************
                                 * O   R   C   A *
                                 *****************

           --- An Ab Initio, DFT and Semiempirical electronic structure package ---

                  #######################################################
                  #                        -***-                        #
                  #          Department of theory and spectroscopy      #
                  #               Directorship: Frank Neese             #
                  #        Max Planck Institute fuer Kohlenforschung    #
                  #                Kaiser Wilhelm Platz 1               #
                  #                 D-45470 Muelheim/Ruhr               #
                  #                      Germany                        #
                  #                                                     #
                  #                  All rights reserved                #
                  #                        -***-                        #
                  #######################################################


                         Program Version 4.2.0 -  RELEASE  -


 With contributions from (in alphabetic order):
   Daniel Aravena         : Magnetic Suceptibility
   Michael Atanasov       : Ab Initio Ligand Field Theory (pilot matlab implementation)
   Alexander A. Auer      : GIAO ZORA, VPT2
   Ute Becker             : Parallelization
   Giovanni Bistoni       : ED, misc. LED, open-shell LED, HFLED
   Martin Brehm           : Molecular dynamics
   Dmytro Bykov           : SCF Hessian
   Vijay G. Chilkuri      : MRCI spin determinant printing, contributions to CSF-ICE
   Dipayan Datta          : RHF DLPNO-CCSD density
   Achintya Kumar Dutta   : EOM-CC, STEOM-CC
   Dmitry Ganyushin       : Spin-Orbit,Spin-Spin,Magnetic field MRCI
   Miquel Garcia          : C-PCM Hessian, Gaussian charge scheme
   Yang Guo               : DLPNO-NEVPT2, CIM, IAO-localization
   Andreas Hansen         : Spin unrestricted coupled pair/coupled cluster methods
   Benjamin Helmich-Paris : CASSCF linear response (MC-RPA)
   Lee Huntington         : MR-EOM, pCC
   Robert Izsak           : Overlap fitted RIJCOSX, COSX-SCS-MP3, EOM
   Christian Kollmar      : KDIIS, OOCD, Brueckner-CCSD(T), CCSD density
   Simone Kossmann        : Meta GGA functionals, TD-DFT gradient, OOMP2, MP2 Hessian
   Martin Krupicka        : AUTO-CI
   Lucas Lang             : DCDCAS
   Dagmar Lenk            : GEPOL surface, SMD
   Dimitrios Liakos       : Extrapolation schemes; Compound Job, initial MDCI parallelization
   Dimitrios Manganas     : Further ROCIS development; embedding schemes
   Dimitrios Pantazis     : SARC Basis sets
   Taras Petrenko         : DFT Hessian,TD-DFT gradient, ASA, ECA, R-Raman, ABS, FL, XAS/XES, NRVS
   Peter Pinski           : DLPNO-MP2, DLPNO-MP2 Gradient
   Christoph Reimann      : Effective Core Potentials
   Marius Retegan         : Local ZFS, SOC
   Christoph Riplinger    : Optimizer, TS searches, QM/MM, DLPNO-CCSD(T), (RO)-DLPNO pert. Triples
   Tobias Risthaus        : Range-separated hybrids, TD-DFT gradient, RPA, STAB
   Michael Roemelt        : Original ROCIS implementation
   Masaaki Saitow         : Open-shell DLPNO-CCSD energy and density
   Barbara Sandhoefer     : DKH picture change effects
   Avijit Sen             : IP-ROCIS
   Kantharuban Sivalingam : CASSCF convergence, NEVPT2, FIC-MRCI
   Bernardo de Souza      : ESD, SOC TD-DFT
   Georgi Stoychev        : AutoAux, RI-MP2 NMR
   Willem Van den Heuvel  : Paramagnetic NMR
   Boris Wezisla          : Elementary symmetry handling
   Frank Wennmohs         : Technical directorship


 We gratefully acknowledge several colleagues who have allowed us to
 interface, adapt or use parts of their codes:
   Stefan Grimme, W. Hujo, H. Kruse,             : VdW corrections, initial TS optimization,
                  C. Bannwarth                     DFT functionals, gCP, sTDA/sTD-DF
   Ed Valeev, F. Pavosevic, A. Kumar             : LibInt (2-el integral package), F12 methods
   Garnet Chan, S. Sharma, J. Yang, R. Olivares  : DMRG
   Ulf Ekstrom                                   : XCFun DFT Library
   Mihaly Kallay                                 : mrcc  (arbitrary order and MRCC methods)
   Andreas Klamt, Michael Diedenhofen            : otool_cosmo (COSMO solvation model)
   Jiri Pittner, Ondrej Demel                    : Mk-CCSD
   Frank Weinhold                                : gennbo (NPA and NBO analysis)
   Christopher J. Cramer and Donald G. Truhlar   : smd solvation model
   Lars Goerigk                                  : TD-DFT with DH, B97 family of functionals
   V. Asgeirsson, H. Jonsson                     : NEB implementation
   FAccTs GmbH                                   : IRC, NEB, NEB-TS, Multilevel, MM, QM/MM, CI optimization
   S Lehtola, MJT Oliveira, MAL Marques          : LibXC Library


 Your calculation uses the libint2 library for the computation of 2-el integrals
 For citations please refer to: http://libint.valeyev.net

 Your ORCA version has been built with support for libXC version: 4.2.3
 For citations please refer to: https://tddft.org/programs/libxc/

 This ORCA versions uses:
   CBLAS   interface :  Fast vector & matrix operations
   LAPACKE interface :  Fast linear algebra routines
   SCALAPACK package :  Parallel linear algebra routines


Your calculation utilizes the atom-pairwise dispersion correction
with the Becke-Johnson damping scheme (D3BJ)
Cite in your paper:
S.Grimme, S.Ehrlich, L.Goerigk, J Comput Chem, (2011), 32, 1456–1465 
S.Grimme, J.Antony, S.Ehrlich and H.Krieg, J.Chem.Phys., 132, (2010), 154104 
   

----- Orbital basis set information -----
Your calculation utilizes the basis: def2-SVP
   F. Weigend and R. Ahlrichs, Phys. Chem. Chem. Phys. 7, 3297 (2005).

----- AuxJ basis set information -----
Your calculation utilizes the auxiliary basis: def2/J
   F. Weigend, Phys. Chem. Chem. Phys. 8, 1057 (2006).

================================================================================
                                        WARNINGS
                       Please study these warnings very carefully!
================================================================================


WARNING: Geometry Optimization
  ===> : Switching off AutoStart
         For restart on a previous wavefunction, please use MOREAD

INFO   : the flag for use of LIBINT has been found!

================================================================================
                                       INPUT FILE
================================================================================
NAME = 31.inp
|  1> !RI BP86 def2-SVP def2/J D3BJ TIGHTSCF TightOpt Grid5 FinalGrid6 freq
|  2> %maxcore 950
|  3> %pal nprocs 16
|  4> end
|  5> * xyz 0 1 
|  6> O 3.1627 -1.63191 2.86859 
|  7> C 4.32718 -1.43406 2.50392 
|  8> C 5.01914 -0.05712 2.61872 
|  9> C 5.89554 0.02454 3.86936 
| 10> C 4.94308 0.55738 4.93355 
| 11> C 4.06811 1.53441 4.16499 
| 12> N 4.04017 1.01777 2.80273 
| 13> C 3.25891 1.46077 1.75934 
| 14> O 3.3177 0.91929 0.64632 
| 15> N 5.03506 -2.49272 2.00364 
| 16> C 6.41321 -2.49416 1.49292 
| 17> C 6.49258 -2.24932 -0.03364 
| 18> N 5.29059 -2.26106 -0.70497 
| 19> C 5.21294 -2.22989 -2.16551 
| 20> C 3.87794 -1.67501 -2.71173 
| 21> N 3.26125 -0.73468 -1.91327 
| 22> C 1.99121 -0.10975 -2.27407 
| 23> C 0.80609 -0.76353 -1.53623 
| 24> C -0.5681 -0.15175 -1.83569 
| 25> C -0.6387 1.2887 -1.37368 
| 26> N -1.0431 1.4498 -0.0677 
| 27> C -1.23632 2.76161 0.56335 
| 28> C -0.07747 3.08874 1.53783 
| 29> N 1.12332 2.49714 1.22559 
| 30> C 2.33935 2.67311 2.01122 
| 31> C 3.06914 3.95055 1.61538 
| 32> O -0.1765 3.90453 2.45626 
| 33> C -2.58247 2.82684 1.30322 
| 34> C -3.82518 2.54238 0.43487 
| 35> C -5.08485 2.59121 1.30419 
| 36> C -3.96304 3.52345 -0.7296 
| 37> O -0.35982 2.24646 -2.09328 
| 38> C -1.00178 -0.29558 -3.28882 
| 39> C -2.40292 -0.82675 -3.5371 
| 40> C -3.45321 0.2139 -3.16835 
| 41> C -4.86831 -0.27905 -3.46793 
| 42> C -5.9082 0.76548 -3.05659 
| 43> C -7.33207 0.27421 -3.32199 
| 44> C -8.40195 1.33532 -3.04597 
| 45> C -8.4596 1.77616 -1.58178 
| 46> C -9.62304 2.73697 -1.33505 
| 47> C -9.67067 3.18975 0.11579 
| 48> O -0.29538 0.0383 -4.24676 
| 49> O 0.77119 -2.18056 -1.81383 
| 50> O 3.4657 -1.94121 -3.84366 
| 51> C 5.52892 -3.61037 -2.76902 
| 52> C 4.53983 -4.69865 -2.36382 
| 53> O 7.56846 -2.10691 -0.61892 
| 54> C 7.18247 -3.78274 1.8747 
| 55> C 7.32509 -3.91409 3.39398 
| 56> C 6.56668 -5.05956 1.29481 
| 57> H 5.58571 0.13592 1.70176 
| 58> H 6.70379 0.74842 3.7089 
| 59> H 6.34182 -0.92785 4.16757 
| 60> H 4.33209 -0.26318 5.32864 
| 61> H 5.46161 1.02851 5.77311 
| 62> H 3.06002 1.59536 4.58305 
| 63> H 4.50971 2.53586 4.1387 
| 64> H 4.50844 -3.35822 1.94073 
| 65> H 6.94325 -1.64638 1.93908 
| 66> H 4.43825 -2.40792 -0.16909 
| 67> H 5.98252 -1.52703 -2.51134 
| 68> H 3.68572 -0.47859 -1.02119 
| 69> H 1.88013 -0.19054 -3.35675 
| 70> H 2.07788 0.94909 -2.01292 
| 71> H 1.00709 -0.67564 -0.45988 
| 72> H -1.29957 -0.728 -1.25131 
| 73> H -1.17249 0.63016 0.52027 
| 74> H -1.19774 3.5386 -0.20837 
| 75> H 1.16394 1.87548 0.42229 
| 76> H 2.04303 2.72888 3.06107 
| 77> H 2.44097 4.83178 1.78175 
| 78> H 3.99023 4.07425 2.19397 
| 79> H 3.34426 3.93596 0.55445 
| 80> H -2.69088 3.81696 1.766 
| 81> H -2.56303 2.10711 2.1334 
| 82> H -3.75062 1.52834 0.02529 
| 83> H -5.01874 1.87055 2.12613 
| 84> H -5.23229 3.58694 1.73608 
| 85> H -5.97398 2.34233 0.71574 
| 86> H -3.14533 3.40786 -1.44709 
| 87> H -4.89725 3.35199 -1.27493 
| 88> H -3.96486 4.56018 -0.37666 
| 89> H -2.53532 -1.75157 -2.96498 
| 90> H -2.48394 -1.09321 -4.59747 
| 91> H -3.25918 1.1449 -3.71557 
| 92> H -3.37442 0.45644 -2.10314 
| 93> H -5.05402 -1.21526 -2.92768 
| 94> H -4.96494 -0.49637 -4.53842 
| 95> H -5.73011 1.69712 -3.60701 
| 96> H -5.78436 0.98742 -1.99083 
| 97> H -7.53406 -0.61621 -2.71419 
| 98> H -7.41794 -0.03362 -4.37144 
| 99> H -9.37583 0.92241 -3.33686 
|100> H -8.22534 2.20806 -3.6865 
|101> H -7.52406 2.27414 -1.30472 
|102> H -8.56558 0.89673 -0.93529 
|103> H -10.57065 2.24905 -1.59107 
|104> H -9.52425 3.61565 -1.983 
|105> H -10.5089 3.87604 0.27142 
|106> H -9.80051 2.33631 0.78893 
|107> H -8.74887 3.71029 0.39483 
|108> H 0.20605 -2.5815 -1.12182 
|109> H 6.53369 -3.92556 -2.46262 
|110> H 5.54437 -3.54166 -3.86353 
|111> H 4.83361 -5.65425 -2.81008 
|112> H 4.51096 -4.83198 -1.27849 
|113> H 3.52666 -4.46881 -2.70672 
|114> H 8.19738 -3.70329 1.46189 
|115> H 7.80822 -3.02728 3.81707 
|116> H 6.3533 -4.0399 3.88261 
|117> H 7.94286 -4.78153 3.65031 
|118> H 6.50903 -5.01097 0.20366 
|119> H 7.18291 -5.92934 1.54839 
|120> H 5.56135 -5.24501 1.68489 
|121> **                         ****END OF INPUT****
================================================================================

                       *****************************
                       * Geometry Optimization Run *
                       *****************************

Geometry optimization settings:
Update method            Update   .... BFGS
Choice of coordinates    CoordSys .... Z-matrix Internals
Initial Hessian          InHess   .... Almoef's Model

Convergence Tolerances:
Energy Change            TolE     ....  1.0000e-06 Eh
Max. Gradient            TolMAXG  ....  1.0000e-04 Eh/bohr
RMS Gradient             TolRMSG  ....  3.0000e-05 Eh/bohr
Max. Displacement        TolMAXD  ....  1.0000e-03 bohr
RMS Displacement         TolRMSD  ....  6.0000e-04 bohr
Strict Convergence                ....  False
------------------------------------------------------------------------------
                        ORCA OPTIMIZATION COORDINATE SETUP
------------------------------------------------------------------------------

The optimization will be done in new redundant internal coordinates
Making redundant internal coordinates   ...  (new redundants) done
Evaluating the initial hessian          ...  (Almloef) done
Evaluating the coordinates              ...  done
Calculating the B-matrix                .... done
Calculating the G-matrix                .... done
Diagonalizing the G-matrix              .... done
Small eigenvalue found = 4.027e-04
Small eigenvalue found = 1.190e-03
Small eigenvalue found = 1.929e-03
Small eigenvalue found = 2.203e-03
Small eigenvalue found = 3.032e-03
Small eigenvalue found = 4.537e-03
Small eigenvalue found = 5.240e-03
Small eigenvalue found = 6.962e-03
Small eigenvalue found = 7.684e-03
Small eigenvalue found = 9.946e-03
Small eigenvalue found = 1.066e-02
Small eigenvalue found = 1.176e-02
Small eigenvalue found = 1.375e-02
Small eigenvalue found = 1.500e-02
Small eigenvalue found = 1.604e-02
Small eigenvalue found = 2.007e-02
Small eigenvalue found = 2.199e-02
Small eigenvalue found = 2.573e-02
Small eigenvalue found = 2.740e-02
The first mode is                       ....  324
The number of degrees of freedom        ....  339

    -----------------------------------------------------------------
                    Redundant Internal Coordinates


    -----------------------------------------------------------------
         Definition                    Initial Value    Approx d2E/dq
    -----------------------------------------------------------------
      1. B(C   1,O   0)                  1.2362         0.984656   
      2. B(C   2,C   1)                  1.5453         0.353157   
      3. B(C   3,C   2)                  1.5293         0.374497   
      4. B(C   4,C   3)                  1.5243         0.381430   
      5. B(C   5,C   4)                  1.5201         0.387346   
      6. B(N   6,C   5)                  1.4572         0.437172   
      7. B(N   6,C   2)                  1.4655         0.424085   
      8. B(C   7,N   6)                  1.3767         0.587636   
      9. B(O   8,C   7)                  1.2391         0.974005   
     10. B(N   9,C   1)                  1.3683         0.606122   
     11. B(C  10,N   9)                  1.4697         0.417500   
     12. B(C  11,C  10)                  1.5481         0.349535   
     13. B(N  12,C  11)                  1.3768         0.587383   
     14. B(C  13,N  12)                  1.4629         0.428068   
     15. B(C  14,C  13)                  1.5455         0.352938   
     16. B(N  15,C  14)                  1.3792         0.582344   
     17. B(C  16,N  15)                  1.4607         0.431558   
     18. B(C  17,C  16)                  1.5415         0.358069   
     19. B(C  18,C  17)                  1.5337         0.368481   
     20. B(C  19,C  18)                  1.5144         0.395644   
     21. B(N  20,C  19)                  1.3766         0.587795   
     22. B(C  21,N  20)                  1.4685         0.419452   
     23. B(C  22,C  21)                  1.5491         0.348324   
     24. B(N  23,C  22)                  1.3745         0.592282   
     25. B(C  24,N  23)                  1.4584         0.435271   
     26. B(C  24,C   7)                  1.5423         0.357022   
     27. B(C  25,C  24)                  1.5235         0.382564   
     28. B(O  26,C  22)                  1.2324         0.998391   
     29. B(C  27,C  21)                  1.5375         0.363476   
     30. B(C  28,C  27)                  1.5425         0.356820   
     31. B(C  29,C  28)                  1.5313         0.371799   
     32. B(C  30,C  28)                  1.5289         0.375106   
     33. B(O  31,C  19)                  1.2300         1.007265   
     34. B(C  32,C  18)                  1.5233         0.382926   
     35. B(C  33,C  32)                  1.5189         0.389160   
     36. B(C  34,C  33)                  1.5238         0.382148   
     37. B(C  35,C  34)                  1.5282         0.376116   
     38. B(C  36,C  35)                  1.5302         0.373254   
     39. B(C  37,C  36)                  1.5294         0.374343   
     40. B(C  38,C  37)                  1.5319         0.370946   
     41. B(C  39,C  38)                  1.5302         0.373299   
     42. B(C  40,C  39)                  1.5289         0.375047   
     43. B(C  41,C  40)                  1.5206         0.386705   
     44. B(O  42,C  32)                  1.2362         0.984680   
     45. B(O  43,C  17)                  1.4444         0.458252   
     46. B(O  44,C  14)                  1.2337         0.993590   
     47. B(C  45,C  13)                  1.5394         0.360877   
     48. B(C  46,C  45)                  1.5254         0.379944   
     49. B(O  47,C  11)                  1.2330         0.996136   
     50. B(C  48,C  10)                  1.5485         0.348987   
     51. B(C  49,C  48)                  1.5316         0.371382   
     52. B(C  50,C  48)                  1.5316         0.371412   
     53. B(H  51,C   2)                  1.0950         0.353512   
     54. B(H  52,C   3)                  1.0968         0.351188   
     55. B(H  53,C   3)                  1.0932         0.355858   
     56. B(H  54,C   4)                  1.0967         0.351361   
     57. B(H  55,C   4)                  1.0935         0.355526   
     58. B(H  56,C   5)                  1.0930         0.356102   
     59. B(H  57,C   5)                  1.0948         0.353796   
     60. B(H  58,N   9)                  1.0151         0.424716   
     61. B(H  59,C  10)                  1.0949         0.353720   
     62. B(H  60,N  12)                  1.0175         0.421015   
     63. B(H  61,C  13)                  1.0981         0.349519   
     64. B(H  62,O   8)                  2.2068         0.005330   
     65. B(H  62,N  15)                  1.0206         0.416228   
     66. B(H  63,C  16)                  1.0914         0.358308   
     67. B(H  64,C  16)                  1.0940         0.354837   
     68. B(H  65,C  17)                  1.0985         0.349057   
     69. B(H  66,C  18)                  1.0994         0.347917   
     70. B(H  67,N  20)                  1.0170         0.421745   
     71. B(H  68,C  21)                  1.0958         0.352523   
     72. B(H  69,N  23)                  1.0166         0.422399   
     73. B(H  70,C  24)                  1.0923         0.357081   
     74. B(H  71,C  25)                  1.0949         0.353654   
     75. B(H  72,C  25)                  1.0947         0.353872   
     76. B(H  73,C  25)                  1.0961         0.352096   
     77. B(H  74,C  27)                  1.0983         0.349290   
     78. B(H  75,C  27)                  1.0989         0.348513   
     79. B(H  76,C  28)                  1.0962         0.352028   
     80. B(H  77,C  29)                  1.0951         0.353379   
     81. B(H  78,C  29)                  1.0953         0.353119   
     82. B(H  79,C  29)                  1.0949         0.353699   
     83. B(H  80,C  30)                  1.0940         0.354867   
     84. B(H  81,C  30)                  1.0952         0.353246   
     85. B(H  82,C  30)                  1.0952         0.353336   
     86. B(H  83,C  33)                  1.0955         0.352884   
     87. B(H  84,C  33)                  1.0963         0.351817   
     88. B(H  85,C  34)                  1.0972         0.350694   
     89. B(H  86,H  80)                  3.0321         0.000055   
     90. B(H  86,C  34)                  1.0953         0.353143   
     91. B(H  87,C  35)                  1.0967         0.351288   
     92. B(H  88,C  35)                  1.0966         0.351484   
     93. B(H  89,C  36)                  1.0966         0.351415   
     94. B(H  90,C  36)                  1.0956         0.352709   
     95. B(H  91,C  37)                  1.0968         0.351158   
     96. B(H  92,C  37)                  1.0970         0.350917   
     97. B(H  93,C  38)                  1.0971         0.350873   
     98. B(H  94,C  38)                  1.0969         0.351113   
     99. B(H  95,H  79)                  2.5475         0.000326   
    100. B(H  95,C  39)                  1.0954         0.352979   
    101. B(H  96,C  39)                  1.0966         0.351447   
    102. B(H  97,C  40)                  1.0962         0.352037   
    103. B(H  98,C  40)                  1.0962         0.351977   
    104. B(H  99,C  41)                  1.0945         0.354247   
    105. B(H 100,C  41)                  1.0947         0.353955   
    106. B(H 101,C  41)                  1.0948         0.353834   
    107. B(H 102,O  43)                  0.9793         0.484381   
    108. B(H 103,C  45)                  1.0967         0.351323   
    109. B(H 104,C  45)                  1.0968         0.351250   
    110. B(H 105,C  46)                  1.0948         0.353783   
    111. B(H 106,C  46)                  1.0939         0.355017   
    112. B(H 107,C  46)                  1.0940         0.354797   
    113. B(H 108,C  48)                  1.0985         0.348992   
    114. B(H 109,C  49)                  1.0949         0.353649   
    115. B(H 110,C  49)                  1.0950         0.353583   
    116. B(H 111,C  49)                  1.0954         0.353089   
    117. B(H 112,C  50)                  1.0938         0.355171   
    118. B(H 113,C  50)                  1.0957         0.352637   
    119. B(H 114,C  50)                  1.0942         0.354605   
    120. A(O   0,C   1,N   9)          118.1237         0.463947   
    121. A(C   2,C   1,N   9)          119.0078         0.388755   
    122. A(O   0,C   1,C   2)          122.8546         0.423550   
    123. A(C   1,C   2,H  51)          109.0599         0.320375   
    124. A(N   6,C   2,H  51)          108.7523         0.328177   
    125. A(C   1,C   2,N   6)          111.3314         0.365477   
    126. A(C   1,C   2,C   3)          111.4038         0.360035   
    127. A(C   3,C   2,H  51)          112.2639         0.323468   
    128. A(C   3,C   2,N   6)          103.9438         0.369173   
    129. A(C   4,C   3,H  53)          111.6638         0.324797   
    130. A(C   4,C   3,H  52)          109.3828         0.324092   
    131. A(C   2,C   3,C   4)          103.3859         0.364801   
    132. A(C   2,C   3,H  53)          114.2357         0.323820   
    133. A(C   2,C   3,H  52)          109.7487         0.323119   
    134. A(H  52,C   3,H  53)          108.3031         0.289160   
    135. A(H  54,C   4,H  55)          108.0568         0.289140   
    136. A(C   3,C   4,H  55)          112.9749         0.324747   
    137. A(C   3,C   4,C   5)          103.3764         0.366914   
    138. A(C   3,C   4,H  54)          109.7597         0.324119   
    139. A(C   5,C   4,H  55)          112.5943         0.325569   
    140. A(C   5,C   4,H  54)          110.0210         0.324939   
    141. A(H  56,C   5,H  57)          109.2802         0.289527   
    142. A(C   4,C   5,N   6)          104.8213         0.373270   
    143. A(C   4,C   5,H  56)          111.9203         0.325656   
    144. A(N   6,C   5,H  57)          108.0347         0.329871   
    145. A(N   6,C   5,H  56)          111.0781         0.330226   
    146. A(C   4,C   5,H  57)          111.5855         0.325308   
    147. A(C   5,N   6,C   7)          127.2511         0.398821   
    148. A(C   2,N   6,C   7)          121.3291         0.396697   
    149. A(C   2,N   6,C   5)          111.3842         0.376772   
    150. A(O   8,C   7,C  24)          121.2290         0.423551   
    151. A(N   6,C   7,O   8)          120.8785         0.460412   
    152. A(N   6,C   7,C  24)          117.8728         0.387395   
    153. A(C   1,N   9,C  10)          127.8016         0.397766   
    154. A(C  10,N   9,H  58)          117.6519         0.334543   
    155. A(C   1,N   9,H  58)          114.4546         0.356161   
    156. A(C  48,C  10,H  59)          107.6606         0.319785   
    157. A(C  11,C  10,H  59)          104.7468         0.319867   
    158. A(N   9,C  10,C  11)          112.9902         0.363858   
    159. A(N   9,C  10,C  48)          112.3928         0.363760   
    160. A(N   9,C  10,H  59)          108.1547         0.327363   
    161. A(C  11,C  10,C  48)          110.4413         0.355119   
    162. A(N  12,C  11,O  47)          122.0932         0.462269   
    163. A(C  10,C  11,O  47)          122.0774         0.423647   
    164. A(C  10,C  11,N  12)          115.7665         0.385938   
    165. A(C  13,N  12,H  60)          118.9754         0.335448   
    166. A(C  11,N  12,C  13)          122.2055         0.397319   
    167. A(C  11,N  12,H  60)          118.4093         0.353744   
    168. A(C  14,C  13,C  45)          111.1442         0.357734   
    169. A(N  12,C  13,H  61)          106.9091         0.328068   
    170. A(C  14,C  13,H  61)          105.3233         0.319749   
    171. A(N  12,C  13,C  14)          113.9760         0.366024   
    172. A(C  45,C  13,H  61)          107.8582         0.320913   
    173. A(N  12,C  13,C  45)          111.1859         0.367422   
    174. A(C  13,C  14,N  15)          115.2414         0.386010   
    175. A(N  15,C  14,O  44)          121.9301         0.461326   
    176. A(C  13,C  14,O  44)          122.3738         0.424188   
    177. A(C  14,N  15,H  62)          119.4175         0.352545   
    178. A(C  16,N  15,H  62)          118.0454         0.335263   
    179. A(C  14,N  15,C  16)          122.5119         0.397284   
    180. A(H  63,C  16,H  64)          108.4527         0.289941   
    181. A(C  17,C  16,H  64)          110.9237         0.321296   
    182. A(N  15,C  16,H  63)          107.5694         0.329858   
    183. A(C  17,C  16,H  63)          111.4192         0.321809   
    184. A(N  15,C  16,C  17)          111.6394         0.367442   
    185. A(N  15,C  16,H  64)          106.6322         0.329328   
    186. A(O  43,C  17,H  65)          105.7379         0.331711   
    187. A(C  18,C  17,H  65)          108.8654         0.321941   
    188. A(C  16,C  17,H  65)          107.1209         0.320434   
    189. A(C  16,C  17,C  18)          115.2262         0.359889   
    190. A(C  18,C  17,O  43)          109.3995         0.373087   
    191. A(C  16,C  17,O  43)          110.0391         0.371250   
    192. A(C  19,C  18,H  66)          107.7815         0.325546   
    193. A(C  17,C  18,H  66)          106.4558         0.321768   
    194. A(C  17,C  18,C  32)          113.8086         0.364035   
    195. A(C  17,C  18,C  19)          111.1993         0.366077   
    196. A(C  19,C  18,C  32)          111.5661         0.368499   
    197. A(C  32,C  18,H  66)          105.5549         0.323803   
    198. A(C  18,C  19,N  20)          114.4838         0.394432   
    199. A(N  20,C  19,O  31)          122.0394         0.463268   
    200. A(C  18,C  19,O  31)          123.4768         0.434032   
    201. A(C  19,N  20,H  67)          119.4419         0.353889   
    202. A(C  19,N  20,C  21)          123.4272         0.395952   
    203. A(C  21,N  20,H  67)          117.0507         0.334412   
    204. A(C  27,C  21,H  68)          109.8557         0.321741   
    205. A(C  22,C  21,H  68)          105.4832         0.319508   
    206. A(N  20,C  21,H  68)          109.0351         0.327431   
    207. A(N  20,C  21,C  22)          111.1342         0.363932   
    208. A(C  22,C  21,C  27)          110.0794         0.357370   
    209. A(N  20,C  21,C  27)          111.0945         0.366595   
    210. A(C  21,C  22,N  23)          114.8183         0.386263   
    211. A(C  21,C  22,O  26)          123.2634         0.423555   
    212. A(N  23,C  22,O  26)          121.6266         0.463163   
    213. A(C  22,N  23,C  24)          123.6495         0.399068   
    214. A(C  24,N  23,H  69)          117.7849         0.336564   
    215. A(C  22,N  23,H  69)          118.5295         0.354439   
    216. A(C  25,C  24,H  70)          109.6857         0.325138   
    217. A(N  23,C  24,H  70)          107.3210         0.330138   
    218. A(C   7,C  24,H  70)          111.0290         0.321474   
    219. A(N  23,C  24,C  25)          111.1381         0.372192   
    220. A(C   7,C  24,N  23)          108.3193         0.367797   
    221. A(C   7,C  24,C  25)          109.3326         0.362017   
    222. A(H  71,C  25,H  73)          107.5647         0.288996   
    223. A(C  24,C  25,H  73)          111.1338         0.324388   
    224. A(H  71,C  25,H  72)          108.1472         0.289224   
    225. A(C  24,C  25,H  72)          111.1280         0.324656   
    226. A(C  24,C  25,H  71)          111.1334         0.324623   
    227. A(H  72,C  25,H  73)          107.5700         0.289024   
    228. A(C  28,C  27,H  75)          108.5879         0.320170   
    229. A(C  21,C  27,C  28)          115.2563         0.358838   
    230. A(H  74,C  27,H  75)          105.8945         0.287973   
    231. A(C  21,C  27,H  75)          108.6795         0.321139   
    232. A(C  28,C  27,H  74)          108.9011         0.320286   
    233. A(C  21,C  27,H  74)          109.1137         0.321256   
    234. A(C  29,C  28,C  30)          109.7399         0.363310   
    235. A(C  27,C  28,C  30)          112.5245         0.360768   
    236. A(C  27,C  28,C  29)          109.7108         0.360224   
    237. A(C  30,C  28,H  76)          108.3703         0.323331   
    238. A(C  29,C  28,H  76)          107.3118         0.322862   
    239. A(C  27,C  28,H  76)          109.0349         0.320695   
    240. A(C  28,C  29,H  79)          110.8343         0.323113   
    241. A(H  78,C  29,H  79)          108.0140         0.289133   
    242. A(H  77,C  29,H  79)          107.6271         0.289166   
    243. A(H  77,C  29,H  78)          108.0838         0.289092   
    244. A(C  28,C  29,H  78)          111.3193         0.323026   
    245. A(C  28,C  29,H  77)          110.8205         0.323065   
    246. A(H  81,C  30,H  82)          107.8933         0.289103   
    247. A(H  80,C  30,H  82)          108.2176         0.289310   
    248. A(C  28,C  30,H  82)          111.2320         0.323528   
    249. A(H  80,C  30,H  81)          107.1258         0.289299   
    250. A(C  28,C  30,H  81)          110.8357         0.323514   
    251. A(C  28,C  30,H  80)          111.3661         0.323758   
    252. A(C  33,C  32,O  42)          119.6651         0.430984   
    253. A(C  18,C  32,O  42)          123.4389         0.429736   
    254. A(C  18,C  32,C  33)          116.8459         0.367455   
    255. A(C  32,C  33,C  34)          110.9429         0.367327   
    256. A(C  34,C  33,H  84)          110.4321         0.324288   
    257. A(H  83,C  33,H  84)          106.9178         0.288861   
    258. A(C  32,C  33,H  84)          108.1358         0.325258   
    259. A(C  34,C  33,H  83)          111.5207         0.324449   
    260. A(C  32,C  33,H  83)          108.7444         0.325420   
    261. A(C  33,C  34,C  35)          111.7477         0.365188   
    262. A(H  85,C  34,H  86)          106.5243         0.288750   
    263. A(C  35,C  34,H  86)          109.1896         0.323642   
    264. A(C  33,C  34,H  86)          109.6931         0.324488   
    265. A(C  35,C  34,H  85)          109.8585         0.323273   
    266. A(C  33,C  34,H  85)          109.6878         0.324118   
    267. A(C  34,C  35,C  36)          110.8793         0.363719   
    268. A(H  87,C  35,H  88)          107.2642         0.288614   
    269. A(C  36,C  35,H  88)          109.7431         0.322987   
    270. A(C  34,C  35,H  88)          109.6882         0.323392   
    271. A(C  36,C  35,H  87)          109.5846         0.322958   
    272. A(C  34,C  35,H  87)          109.6087         0.323362   
    273. A(C  35,C  36,C  37)          111.5156         0.363426   
    274. A(H  89,C  36,H  90)          107.3243         0.288787   
    275. A(C  37,C  36,H  90)          109.8213         0.323326   
    276. A(C  35,C  36,H  90)          108.8406         0.323171   
    277. A(C  37,C  36,H  89)          109.6923         0.323131   
    278. A(C  35,C  36,H  89)          109.5490         0.322977   
    279. A(C  36,C  37,C  38)          113.3550         0.363041   
    280. A(H  91,C  37,H  92)          106.7318         0.288524   
    281. A(C  38,C  37,H  92)          108.1835         0.322573   
    282. A(C  36,C  37,H  92)          109.2084         0.323056   
    283. A(C  38,C  37,H  91)          109.5027         0.322610   
    284. A(C  36,C  37,H  91)          109.6360         0.323092   
    285. A(C  37,C  38,C  39)          113.4701         0.362868   
    286. A(H  93,C  38,H  94)          106.7120         0.288513   
    287. A(C  39,C  38,H  94)          109.6095         0.322937   
    288. A(C  37,C  38,H  94)          109.4789         0.322603   
    289. A(C  39,C  38,H  93)          109.1900         0.322901   
    290. A(C  37,C  38,H  93)          108.1492         0.322567   
    291. A(C  38,C  39,C  40)          111.3537         0.363550   
    292. A(H  95,C  39,H  96)          107.3370         0.288826   
    293. A(C  40,C  39,H  96)          109.5898         0.323235   
    294. A(C  38,C  39,H  96)          109.6762         0.322988   
    295. A(C  40,C  39,H  95)          108.8678         0.323466   
    296. A(C  38,C  39,H  95)          109.9257         0.323218   
    297. A(C  39,C  40,C  41)          111.4032         0.365751   
    298. A(H  97,C  40,H  98)          107.2560         0.288773   
    299. A(C  41,C  40,H  98)          109.1542         0.324944   
    300. A(C  39,C  40,H  98)          109.8620         0.323315   
    301. A(C  41,C  40,H  97)          109.1660         0.324953   
    302. A(C  39,C  40,H  97)          109.9022         0.323324   
    303. A(H 100,C  41,H 101)          108.2901         0.289257   
    304. A(H  99,C  41,H 101)          108.0880         0.289295   
    305. A(C  40,C  41,H 101)          111.0017         0.325225   
    306. A(H  99,C  41,H 100)          108.0946         0.289310   
    307. A(C  40,C  41,H 100)          110.9945         0.325244   
    308. A(C  40,C  41,H  99)          110.2661         0.325288   
    309. A(C  17,O  43,H 102)          106.2480         0.347347   
    310. A(C  13,C  45,C  46)          113.7377         0.362256   
    311. A(C  46,C  45,H 104)          108.5974         0.323894   
    312. A(C  13,C  45,H 104)          109.7515         0.321173   
    313. A(C  46,C  45,H 103)          108.3488         0.323905   
    314. A(C  13,C  45,H 103)          109.6484         0.321184   
    315. A(H 103,C  45,H 104)          106.4932         0.288588   
    316. A(H 106,C  46,H 107)          108.1885         0.289517   
    317. A(H 105,C  46,H 107)          107.7050         0.289359   
    318. A(C  45,C  46,H 107)          111.5520         0.324429   
    319. A(H 105,C  46,H 106)          107.7655         0.289387   
    320. A(C  45,C  46,H 106)          111.5698         0.324462   
    321. A(C  45,C  46,H 105)          109.9042         0.324277   
    322. A(C  50,C  48,H 108)          106.8263         0.322349   
    323. A(C  49,C  48,H 108)          107.0337         0.322345   
    324. A(C  10,C  48,H 108)          107.8258         0.319083   
    325. A(C  49,C  48,C  50)          109.9695         0.362626   
    326. A(C  10,C  48,C  50)          113.6180         0.358801   
    327. A(C  10,C  48,C  49)          111.2342         0.358796   
    328. A(H 110,C  49,H 111)          107.7656         0.289114   
    329. A(H 109,C  49,H 111)          107.5850         0.289123   
    330. A(C  48,C  49,H 111)          110.6444         0.322962   
    331. A(H 109,C  49,H 110)          108.1937         0.289186   
    332. A(C  48,C  49,H 110)          111.7076         0.323036   
    333. A(C  48,C  49,H 109)          110.7892         0.323046   
    334. A(H 113,C  50,H 114)          107.4389         0.289187   
    335. A(H 112,C  50,H 114)          108.3461         0.289512   
    336. A(C  48,C  50,H 114)          112.0692         0.323193   
    337. A(H 112,C  50,H 113)          107.2049         0.289259   
    338. A(C  48,C  50,H 113)          110.3664         0.322898   
    339. A(C  48,C  50,H 112)          111.2156         0.323278   
    340. D(H  51,C   2,C   1,N   9)     43.8798         0.009409   
    341. D(C   3,C   2,C   1,N   9)    -80.5898         0.009409   
    342. D(N   6,C   2,C   1,N   9)    163.8838         0.009409   
    343. D(N   6,C   2,C   1,O   0)    -17.5044         0.009409   
    344. D(C   3,C   2,C   1,O   0)     98.0220         0.009409   
    345. D(H  51,C   2,C   1,O   0)   -137.5084         0.009409   
    346. D(C   4,C   3,C   2,N   6)     30.0524         0.011196   
    347. D(H  53,C   3,C   2,H  51)    -91.0361         0.011196   
    348. D(H  53,C   3,C   2,C   1)     31.6117         0.011196   
    349. D(C   4,C   3,C   2,H  51)    147.4118         0.011196   
    350. D(H  53,C   3,C   2,N   6)    151.6045         0.011196   
    351. D(H  52,C   3,C   2,H  51)     30.8028         0.011196   
    352. D(C   4,C   3,C   2,C   1)    -89.9404         0.011196   
    353. D(H  52,C   3,C   2,C   1)    153.4506         0.011196   
    354. D(H  52,C   3,C   2,N   6)    -86.5565         0.011196   
    355. D(H  55,C   4,C   3,H  53)     78.4198         0.011591   
    356. D(H  55,C   4,C   3,H  52)    -41.4454         0.011591   
    357. D(H  54,C   4,C   3,H  52)   -162.1109         0.011591   
    358. D(H  55,C   4,C   3,C   2)   -158.3125         0.011591   
    359. D(H  54,C   4,C   3,H  53)    -42.2457         0.011591   
    360. D(C   5,C   4,C   3,C   2)    -36.3233         0.011591   
    361. D(H  54,C   4,C   3,C   2)     81.0220         0.011591   
    362. D(C   5,C   4,C   3,H  53)   -159.5910         0.011591   
    363. D(C   5,C   4,C   3,H  52)     80.5438         0.011591   
    364. D(N   6,C   5,C   4,C   3)     28.8494         0.011935   
    365. D(H  57,C   5,C   4,C   3)    -87.8360         0.011935   
    366. D(H  56,C   5,C   4,H  55)    -88.4099         0.011935   
    367. D(H  56,C   5,C   4,C   3)    149.3462         0.011935   
    368. D(H  57,C   5,C   4,H  54)    155.0023         0.011935   
    369. D(H  56,C   5,C   4,H  54)     32.1845         0.011935   
    370. D(H  57,C   5,C   4,H  55)     34.4079         0.011935   
    371. D(N   6,C   5,C   4,H  54)    -88.3124         0.011935   
    372. D(N   6,C   5,C   4,H  55)    151.0932         0.011935   
    373. D(C   5,N   6,C   2,C   3)    -12.5077         0.015334   
    374. D(C   7,N   6,C   5,H  57)    -69.0161         0.016296   
    375. D(C   7,N   6,C   5,H  56)     50.8279         0.016296   
    376. D(C   7,N   6,C   5,C   4)    171.8818         0.016296   
    377. D(C   2,N   6,C   5,H  57)    108.8164         0.016296   
    378. D(C   2,N   6,C   5,H  56)   -131.3396         0.016296   
    379. D(C   7,N   6,C   2,H  51)     45.7003         0.015334   
    380. D(C   2,N   6,C   5,C   4)    -10.2857         0.016296   
    381. D(C   7,N   6,C   2,C   3)    165.4725         0.015334   
    382. D(C   5,N   6,C   2,C   1)    107.5342         0.015334   
    383. D(C   7,N   6,C   2,C   1)    -74.4856         0.015334   
    384. D(C   5,N   6,C   2,H  51)   -132.2800         0.015334   
    385. D(C  24,C   7,N   6,C   5)      2.6197         0.027744   
    386. D(C  24,C   7,N   6,C   2)   -175.0175         0.027744   
    387. D(O   8,C   7,N   6,C   5)   -178.9775         0.027744   
    388. D(O   8,C   7,N   6,C   2)      3.3854         0.027744   
    389. D(H  58,N   9,C   1,O   0)      2.5369         0.029647   
    390. D(C  10,N   9,C   1,C   2)     -2.3877         0.029647   
    391. D(H  58,N   9,C   1,C   2)   -178.7854         0.029647   
    392. D(C  10,N   9,C   1,O   0)    178.9346         0.029647   
    393. D(H  59,C  10,N   9,C   1)     23.4813         0.014864   
    394. D(C  48,C  10,N   9,H  58)    -41.5082         0.014864   
    395. D(C  48,C  10,N   9,C   1)    142.1939         0.014864   
    396. D(C  11,C  10,N   9,C   1)    -91.9937         0.014864   
    397. D(H  59,C  10,N   9,H  58)   -160.2207         0.014864   
    398. D(C  11,C  10,N   9,H  58)     84.3042         0.014864   
    399. D(O  47,C  11,C  10,N   9)    173.8834         0.009234   
    400. D(N  12,C  11,C  10,H  59)   -126.4390         0.009234   
    401. D(N  12,C  11,C  10,C  48)    117.9092         0.009234   
    402. D(N  12,C  11,C  10,N   9)     -8.9440         0.009234   
    403. D(O  47,C  11,C  10,H  59)     56.3883         0.009234   
    404. D(O  47,C  11,C  10,C  48)    -59.2634         0.009234   
    405. D(H  60,N  12,C  11,O  47)    178.3490         0.027719   
    406. D(H  60,N  12,C  11,C  10)      1.1768         0.027719   
    407. D(C  13,N  12,C  11,O  47)      5.7758         0.027719   
    408. D(C  13,N  12,C  11,C  10)   -171.3963         0.027719   
    409. D(H  61,C  13,N  12,C  11)    -40.1558         0.015623   
    410. D(H  61,C  13,N  12,H  60)    147.3116         0.015623   
    411. D(C  45,C  13,N  12,H  60)    -95.1994         0.015623   
    412. D(C  45,C  13,N  12,C  11)     77.3333         0.015623   
    413. D(C  14,C  13,N  12,C  11)   -156.0993         0.015623   
    414. D(C  14,C  13,N  12,H  60)     31.3680         0.015623   
    415. D(O  44,C  14,C  13,C  45)    -30.6393         0.009398   
    416. D(O  44,C  14,C  13,N  12)   -157.2285         0.009398   
    417. D(N  15,C  14,C  13,H  61)    -86.4909         0.009398   
    418. D(N  15,C  14,C  13,C  45)    156.9647         0.009398   
    419. D(O  44,C  14,C  13,H  61)     85.9051         0.009398   
    420. D(N  15,C  14,C  13,N  12)     30.3755         0.009398   
    421. D(H  62,N  15,C  14,O  44)   -174.0809         0.027214   
    422. D(H  62,N  15,C  14,C  13)     -1.6478         0.027214   
    423. D(C  16,N  15,C  14,O  44)      7.7817         0.027214   
    424. D(C  16,N  15,C  14,C  13)   -179.7851         0.027214   
    425. D(H  64,C  16,N  15,H  62)     42.9429         0.015879   
    426. D(H  64,C  16,N  15,C  14)   -138.8954         0.015879   
    427. D(H  63,C  16,N  15,H  62)    159.1165         0.015879   
    428. D(H  63,C  16,N  15,C  14)    -22.7218         0.015879   
    429. D(C  17,C  16,N  15,C  14)     99.8066         0.015879   
    430. D(C  17,C  16,N  15,H  62)    -78.3551         0.015879   
    431. D(H  65,C  17,C  16,H  64)    -61.1322         0.010294   
    432. D(H  65,C  17,C  16,H  63)    177.9376         0.010294   
    433. D(H  65,C  17,C  16,N  15)     57.6415         0.010294   
    434. D(O  43,C  17,C  16,H  64)   -175.6175         0.010294   
    435. D(O  43,C  17,C  16,H  63)     63.4523         0.010294   
    436. D(O  43,C  17,C  16,N  15)    -56.8438         0.010294   
    437. D(C  18,C  17,C  16,H  64)     60.1419         0.010294   
    438. D(C  18,C  17,C  16,H  63)    -60.7883         0.010294   
    439. D(C  18,C  17,C  16,N  15)    178.9156         0.010294   
    440. D(H  66,C  18,C  17,H  65)    -60.3637         0.010860   
    441. D(H  66,C  18,C  17,O  43)     54.7374         0.010860   
    442. D(H  66,C  18,C  17,C  16)    179.3127         0.010860   
    443. D(C  32,C  18,C  17,O  43)    -61.1085         0.010860   
    444. D(C  32,C  18,C  17,C  16)     63.4668         0.010860   
    445. D(C  32,C  18,C  17,H  65)   -176.2096         0.010860   
    446. D(C  19,C  18,C  17,H  65)     56.7726         0.010860   
    447. D(C  19,C  18,C  17,O  43)    171.8737         0.010860   
    448. D(C  19,C  18,C  17,C  16)    -63.5510         0.010860   
    449. D(O  31,C  19,C  18,H  66)   -152.0377         0.011629   
    450. D(O  31,C  19,C  18,C  32)    -36.5973         0.011629   
    451. D(O  31,C  19,C  18,C  17)     91.6368         0.011629   
    452. D(N  20,C  19,C  18,H  66)     28.0282         0.011629   
    453. D(N  20,C  19,C  18,C  17)    -88.2973         0.011629   
    454. D(N  20,C  19,C  18,C  32)    143.4686         0.011629   
    455. D(H  67,N  20,C  19,O  31)   -173.7992         0.027760   
    456. D(H  67,N  20,C  19,C  18)      6.1360         0.027760   
    457. D(C  21,N  20,C  19,O  31)      2.8461         0.027760   
    458. D(C  21,N  20,C  19,C  18)   -177.2187         0.027760   
    459. D(H  68,C  21,N  20,H  67)   -172.5490         0.015002   
    460. D(H  68,C  21,N  20,C  19)     10.7313         0.015002   
    461. D(C  27,C  21,N  20,H  67)    -51.3375         0.015002   
    462. D(C  27,C  21,N  20,C  19)    131.9427         0.015002   
    463. D(C  22,C  21,N  20,H  67)     71.5939         0.015002   
    464. D(C  22,C  21,N  20,C  19)   -105.1259         0.015002   
    465. D(N  23,C  22,C  21,C  27)    151.3855         0.009176   
    466. D(N  23,C  22,C  21,N  20)     27.8720         0.009176   
    467. D(O  26,C  22,C  21,H  68)     83.7216         0.009176   
    468. D(O  26,C  22,C  21,C  27)    -34.7362         0.009176   
    469. D(O  26,C  22,C  21,N  20)   -158.2497         0.009176   
    470. D(N  23,C  22,C  21,H  68)    -90.1567         0.009176   
    471. D(H  69,N  23,C  22,O  26)   -176.2080         0.028215   
    472. D(H  69,N  23,C  22,C  21)     -2.2191         0.028215   
    473. D(C  24,N  23,C  22,O  26)      6.0306         0.028215   
    474. D(C  24,N  23,C  22,C  21)   -179.9805         0.028215   
    475. D(H  70,C  24,N  23,H  69)   -141.6973         0.016154   
    476. D(H  70,C  24,N  23,C  22)     36.0797         0.016154   
    477. D(C  25,C  24,N  23,H  69)     98.3758         0.016154   
    478. D(C  25,C  24,N  23,C  22)    -83.8473         0.016154   
    479. D(C   7,C  24,N  23,H  69)    -21.7495         0.016154   
    480. D(C   7,C  24,N  23,C  22)    156.0275         0.016154   
    481. D(H  70,C  24,C   7,O   8)    153.2059         0.009598   
    482. D(H  70,C  24,C   7,N   6)    -28.3971         0.009598   
    483. D(C  25,C  24,C   7,O   8)    -85.6401         0.009598   
    484. D(C  25,C  24,C   7,N   6)     92.7568         0.009598   
    485. D(N  23,C  24,C   7,O   8)     35.6067         0.009598   
    486. D(N  23,C  24,C   7,N   6)   -145.9964         0.009598   
    487. D(H  73,C  25,C  24,H  70)   -177.8440         0.011656   
    488. D(H  73,C  25,C  24,N  23)    -59.3321         0.011656   
    489. D(H  73,C  25,C  24,C   7)     60.1905         0.011656   
    490. D(H  72,C  25,C  24,H  70)     62.3981         0.011656   
    491. D(H  72,C  25,C  24,N  23)   -179.0899         0.011656   
    492. D(H  72,C  25,C  24,C   7)    -59.5673         0.011656   
    493. D(H  71,C  25,C  24,H  70)    -58.0894         0.011656   
    494. D(H  71,C  25,C  24,N  23)     60.4225         0.011656   
    495. D(H  71,C  25,C  24,C   7)    179.9452         0.011656   
    496. D(H  75,C  27,C  21,H  68)   -174.5937         0.010585   
    497. D(H  75,C  27,C  21,C  22)    -58.8592         0.010585   
    498. D(H  75,C  27,C  21,N  20)     64.6775         0.010585   
    499. D(H  74,C  27,C  21,H  68)    -59.5617         0.010585   
    500. D(H  74,C  27,C  21,C  22)     56.1729         0.010585   
    501. D(H  74,C  27,C  21,N  20)    179.7096         0.010585   
    502. D(C  28,C  27,C  21,H  68)     63.2965         0.010585   
    503. D(C  28,C  27,C  21,C  22)    179.0311         0.010585   
    504. D(C  28,C  27,C  21,N  20)    -57.4322         0.010585   
    505. D(H  76,C  28,C  27,H  75)    -61.4104         0.010228   
    506. D(H  76,C  28,C  27,H  74)   -176.2800         0.010228   
    507. D(H  76,C  28,C  27,C  21)     60.7486         0.010228   
    508. D(C  30,C  28,C  27,H  75)    178.3246         0.010228   
    509. D(C  30,C  28,C  27,H  74)     63.4549         0.010228   
    510. D(C  30,C  28,C  27,C  21)    -59.5165         0.010228   
    511. D(C  29,C  28,C  27,H  75)     55.8465         0.010228   
    512. D(C  29,C  28,C  27,H  74)    -59.0232         0.010228   
    513. D(C  29,C  28,C  27,C  21)    178.0054         0.010228   
    514. D(H  79,C  29,C  28,C  30)     58.7136         0.011044   
    515. D(H  79,C  29,C  28,C  27)   -177.1694         0.011044   
    516. D(H  78,C  29,C  28,H  76)   -179.0850         0.011044   
    517. D(H  78,C  29,C  28,C  30)    -61.5321         0.011044   
    518. D(H  78,C  29,C  28,C  27)     62.5849         0.011044   
    519. D(H  77,C  29,C  28,H  76)     60.5903         0.011044   
    520. D(H  77,C  29,C  28,C  30)    178.1433         0.011044   
    521. D(H  79,C  29,C  28,H  76)    -58.8393         0.011044   
    522. D(H  77,C  29,C  28,C  27)    -57.7397         0.011044   
    523. D(H  82,C  30,C  28,H  76)   -175.6855         0.011230   
    524. D(H  82,C  30,C  28,C  29)     67.4239         0.011230   
    525. D(H  82,C  30,C  28,C  27)    -55.0379         0.011230   
    526. D(H  81,C  30,C  28,H  76)     64.2785         0.011230   
    527. D(H  81,C  30,C  28,C  29)    -52.6121         0.011230   
    528. D(H  81,C  30,C  28,C  27)   -175.0738         0.011230   
    529. D(H  80,C  30,C  28,H  76)    -54.8792         0.011230   
    530. D(H  80,C  30,C  28,C  29)   -171.7698         0.011230   
    531. D(H  80,C  30,C  28,C  27)     65.7685         0.011230   
    532. D(O  42,C  32,C  18,H  66)   -167.8595         0.010932   
    533. D(O  42,C  32,C  18,C  19)     75.3403         0.010932   
    534. D(O  42,C  32,C  18,C  17)    -51.4863         0.010932   
    535. D(C  33,C  32,C  18,H  66)     14.7300         0.010932   
    536. D(C  33,C  32,C  18,C  19)   -102.0702         0.010932   
    537. D(C  33,C  32,C  18,C  17)    131.1032         0.010932   
    538. D(H  84,C  33,C  32,O  42)     15.5128         0.011270   
    539. D(H  84,C  33,C  32,C  18)   -166.9740         0.011270   
    540. D(H  83,C  33,C  32,O  42)    131.2670         0.011270   
    541. D(H  83,C  33,C  32,C  18)    -51.2197         0.011270   
    542. D(C  34,C  33,C  32,O  42)   -105.7315         0.011270   
    543. D(C  34,C  33,C  32,C  18)     71.7817         0.011270   
    544. D(H  86,C  34,C  33,H  84)    178.8870         0.011632   
    545. D(H  86,C  34,C  33,H  83)     60.1553         0.011632   
    546. D(H  86,C  34,C  33,C  32)    -61.2293         0.011632   
    547. D(H  85,C  34,C  33,H  84)    -64.4390         0.011632   
    548. D(H  85,C  34,C  33,H  83)    176.8292         0.011632   
    549. D(H  85,C  34,C  33,C  32)     55.4446         0.011632   
    550. D(C  35,C  34,C  33,H  84)     57.6457         0.011632   
    551. D(C  35,C  34,C  33,H  83)    -61.0861         0.011632   
    552. D(C  35,C  34,C  33,C  32)    177.5293         0.011632   
    553. D(H  88,C  35,C  34,H  86)    178.3464         0.011287   
    554. D(H  88,C  35,C  34,H  85)     61.8657         0.011287   
    555. D(H  88,C  35,C  34,C  33)    -60.1210         0.011287   
    556. D(H  87,C  35,C  34,H  86)    -64.1318         0.011287   
    557. D(H  87,C  35,C  34,H  85)    179.3874         0.011287   
    558. D(H  87,C  35,C  34,C  33)     57.4008         0.011287   
    559. D(C  36,C  35,C  34,H  86)     56.9817         0.011287   
    560. D(C  36,C  35,C  34,H  85)    -59.4990         0.011287   
    561. D(C  36,C  35,C  34,C  33)    178.5144         0.011287   
    562. D(H  90,C  36,C  35,H  87)     63.6800         0.011126   
    563. D(H  90,C  36,C  35,C  34)    -57.4478         0.011126   
    564. D(H  89,C  36,C  35,H  88)    -61.7123         0.011126   
    565. D(H  89,C  36,C  35,H  87)   -179.2522         0.011126   
    566. D(H  89,C  36,C  35,C  34)     59.6200         0.011126   
    567. D(C  37,C  36,C  35,H  88)     59.9119         0.011126   
    568. D(C  37,C  36,C  35,H  87)    -57.6279         0.011126   
    569. D(H  90,C  36,C  35,H  88)   -178.7801         0.011126   
    570. D(C  37,C  36,C  35,C  34)   -178.7557         0.011126   
    571. D(H  92,C  37,C  36,H  90)   -174.7540         0.011187   
    572. D(H  92,C  37,C  36,H  89)     67.5230         0.011187   
    573. D(H  92,C  37,C  36,C  35)    -54.0182         0.011187   
    574. D(H  91,C  37,C  36,H  90)    -58.1389         0.011187   
    575. D(H  91,C  37,C  36,H  89)   -175.8619         0.011187   
    576. D(H  91,C  37,C  36,C  35)     62.5970         0.011187   
    577. D(C  38,C  37,C  36,H  90)     64.5560         0.011187   
    578. D(C  38,C  37,C  36,H  89)    -53.1670         0.011187   
    579. D(C  38,C  37,C  36,C  35)   -174.7082         0.011187   
    580. D(H  94,C  38,C  37,H  92)    -61.5409         0.010997   
    581. D(H  94,C  38,C  37,H  91)   -177.5046         0.010997   
    582. D(H  94,C  38,C  37,C  36)     59.7268         0.010997   
    583. D(H  93,C  38,C  37,H  92)     54.3674         0.010997   
    584. D(H  93,C  38,C  37,H  91)    -61.5962         0.010997   
    585. D(H  93,C  38,C  37,C  36)    175.6351         0.010997   
    586. D(C  39,C  38,C  37,H  92)    175.6620         0.010997   
    587. D(C  39,C  38,C  37,H  91)     59.6983         0.010997   
    588. D(C  39,C  38,C  37,C  36)    -63.0703         0.010997   
    589. D(H  95,C  39,C  38,H  94)    -58.2598         0.011128   
    590. D(H  95,C  39,C  38,H  93)   -174.8255         0.011128   
    591. D(H  95,C  39,C  38,C  37)     64.4652         0.011128   
    592. D(C  40,C  39,C  38,H  94)     62.4746         0.011128   
    593. D(C  40,C  39,C  38,H  93)    -54.0911         0.011128   
    594. D(C  40,C  39,C  38,C  37)   -174.8004         0.011128   
    595. D(H  96,C  39,C  38,H  94)   -176.0507         0.011128   
    596. D(H  96,C  39,C  38,H  93)     67.3837         0.011128   
    597. D(H  96,C  39,C  38,C  37)    -53.3257         0.011128   
    598. D(H  98,C  40,C  39,H  95)     63.1672         0.011227   
    599. D(H  98,C  40,C  39,C  38)    -58.1860         0.011227   
    600. D(H  97,C  40,C  39,H  96)    -61.9218         0.011227   
    601. D(H  97,C  40,C  39,H  95)   -179.0435         0.011227   
    602. D(H  97,C  40,C  39,C  38)     59.6033         0.011227   
    603. D(C  41,C  40,C  39,H  96)     59.2046         0.011227   
    604. D(C  41,C  40,C  39,H  95)    -57.9172         0.011227   
    605. D(H  98,C  40,C  39,H  96)   -179.7110         0.011227   
    606. D(C  41,C  40,C  39,C  38)   -179.2703         0.011227   
    607. D(H 101,C  41,C  40,H  98)    -61.2676         0.011898   
    608. D(H 101,C  41,C  40,H  97)   -178.2154         0.011898   
    609. D(H 101,C  41,C  40,C  39)     60.2293         0.011898   
    610. D(H 100,C  41,C  40,H  98)    178.2427         0.011898   
    611. D(H 100,C  41,C  40,H  97)     61.2948         0.011898   
    612. D(H 100,C  41,C  40,C  39)    -60.2604         0.011898   
    613. D(H  99,C  41,C  40,H  98)     58.4858         0.011898   
    614. D(H  99,C  41,C  40,H  97)    -58.4621         0.011898   
    615. D(H  99,C  41,C  40,C  39)    179.9827         0.011898   
    616. D(H 102,O  43,C  17,H  65)     47.0228         0.016542   
    617. D(H 102,O  43,C  17,C  18)    -70.0676         0.016542   
    618. D(H 102,O  43,C  17,C  16)    162.3857         0.016542   
    619. D(H 104,C  45,C  13,H  61)    -58.5135         0.010445   
    620. D(H 104,C  45,C  13,C  14)     56.4658         0.010445   
    621. D(H 104,C  45,C  13,N  12)   -175.4244         0.010445   
    622. D(H 103,C  45,C  13,H  61)     58.1338         0.010445   
    623. D(H 103,C  45,C  13,C  14)    173.1131         0.010445   
    624. D(H 103,C  45,C  13,N  12)    -58.7771         0.010445   
    625. D(C  46,C  45,C  13,H  61)    179.6113         0.010445   
    626. D(C  46,C  45,C  13,C  14)    -65.4094         0.010445   
    627. D(C  46,C  45,C  13,N  12)     62.7005         0.010445   
    628. D(H 107,C  46,C  45,H 104)    -60.8007         0.011505   
    629. D(H 107,C  46,C  45,H 103)   -176.0900         0.011505   
    630. D(H 107,C  46,C  45,C  13)     61.7119         0.011505   
    631. D(H 106,C  46,C  45,H 104)    178.0670         0.011505   
    632. D(H 106,C  46,C  45,H 103)     62.7777         0.011505   
    633. D(H 106,C  46,C  45,C  13)    -59.4204         0.011505   
    634. D(H 105,C  46,C  45,H 104)     58.5896         0.011505   
    635. D(H 105,C  46,C  45,H 103)    -56.6997         0.011505   
    636. D(H 105,C  46,C  45,C  13)   -178.8978         0.011505   
    637. D(H 108,C  48,C  10,H  59)    -60.7671         0.009817   
    638. D(H 108,C  48,C  10,C  11)     53.0462         0.009817   
    639. D(H 108,C  48,C  10,N   9)   -179.7694         0.009817   
    640. D(C  50,C  48,C  10,H  59)   -178.9621         0.009817   
    641. D(C  50,C  48,C  10,C  11)    -65.1488         0.009817   
    642. D(C  50,C  48,C  10,N   9)     62.0356         0.009817   
    643. D(C  49,C  48,C  10,H  59)     56.3020         0.009817   
    644. D(C  49,C  48,C  10,C  11)    170.1152         0.009817   
    645. D(C  49,C  48,C  10,N   9)    -62.7003         0.009817   
    646. D(H 111,C  49,C  48,C  50)     58.0638         0.011021   
    647. D(H 111,C  49,C  48,C  10)   -175.1733         0.011021   
    648. D(H 110,C  49,C  48,H 108)   -177.6847         0.011021   
    649. D(H 110,C  49,C  48,C  50)    -61.9983         0.011021   
    650. D(H 110,C  49,C  48,C  10)     64.7646         0.011021   
    651. D(H 109,C  49,C  48,H 108)     61.6110         0.011021   
    652. D(H 109,C  49,C  48,C  50)    177.2974         0.011021   
    653. D(H 111,C  49,C  48,H 108)    -57.6227         0.011021   
    654. D(H 109,C  49,C  48,C  10)    -55.9397         0.011021   
    655. D(H 114,C  50,C  48,H 108)    177.6669         0.011022   
    656. D(H 114,C  50,C  48,C  49)     61.8496         0.011022   
    657. D(H 114,C  50,C  48,C  10)    -63.5634         0.011022   
    658. D(H 113,C  50,C  48,H 108)     57.9671         0.011022   
    659. D(H 113,C  50,C  48,C  49)    -57.8502         0.011022   
    660. D(H 113,C  50,C  48,C  10)    176.7368         0.011022   
    661. D(H 112,C  50,C  48,H 108)    -60.8856         0.011022   
    662. D(H 112,C  50,C  48,C  49)   -176.7029         0.011022   
    663. D(H 112,C  50,C  48,C  10)     57.8841         0.011022   
    -----------------------------------------------------------------

Number of atoms                         .... 115
Number of degrees of freedom            .... 663

         *************************************************************
         *                GEOMETRY OPTIMIZATION CYCLE   1            *
         *************************************************************
---------------------------------
CARTESIAN COORDINATES (ANGSTROEM)
---------------------------------
  O      3.162700   -1.631910    2.868590
  C      4.327180   -1.434060    2.503920
  C      5.019140   -0.057120    2.618720
  C      5.895540    0.024540    3.869360
  C      4.943080    0.557380    4.933550
  C      4.068110    1.534410    4.164990
  N      4.040170    1.017770    2.802730
  C      3.258910    1.460770    1.759340
  O      3.317700    0.919290    0.646320
  N      5.035060   -2.492720    2.003640
  C      6.413210   -2.494160    1.492920
  C      6.492580   -2.249320   -0.033640
  N      5.290590   -2.261060   -0.704970
  C      5.212940   -2.229890   -2.165510
  C      3.877940   -1.675010   -2.711730
  N      3.261250   -0.734680   -1.913270
  C      1.991210   -0.109750   -2.274070
  C      0.806090   -0.763530   -1.536230
  C     -0.568100   -0.151750   -1.835690
  C     -0.638700    1.288700   -1.373680
  N     -1.043100    1.449800   -0.067700
  C     -1.236320    2.761610    0.563350
  C     -0.077470    3.088740    1.537830
  N      1.123320    2.497140    1.225590
  C      2.339350    2.673110    2.011220
  C      3.069140    3.950550    1.615380
  O     -0.176500    3.904530    2.456260
  C     -2.582470    2.826840    1.303220
  C     -3.825180    2.542380    0.434870
  C     -5.084850    2.591210    1.304190
  C     -3.963040    3.523450   -0.729600
  O     -0.359820    2.246460   -2.093280
  C     -1.001780   -0.295580   -3.288820
  C     -2.402920   -0.826750   -3.537100
  C     -3.453210    0.213900   -3.168350
  C     -4.868310   -0.279050   -3.467930
  C     -5.908200    0.765480   -3.056590
  C     -7.332070    0.274210   -3.321990
  C     -8.401950    1.335320   -3.045970
  C     -8.459600    1.776160   -1.581780
  C     -9.623040    2.736970   -1.335050
  C     -9.670670    3.189750    0.115790
  O     -0.295380    0.038300   -4.246760
  O      0.771190   -2.180560   -1.813830
  O      3.465700   -1.941210   -3.843660
  C      5.528920   -3.610370   -2.769020
  C      4.539830   -4.698650   -2.363820
  O      7.568460   -2.106910   -0.618920
  C      7.182470   -3.782740    1.874700
  C      7.325090   -3.914090    3.393980
  C      6.566680   -5.059560    1.294810
  H      5.585710    0.135920    1.701760
  H      6.703790    0.748420    3.708900
  H      6.341820   -0.927850    4.167570
  H      4.332090   -0.263180    5.328640
  H      5.461610    1.028510    5.773110
  H      3.060020    1.595360    4.583050
  H      4.509710    2.535860    4.138700
  H      4.508440   -3.358220    1.940730
  H      6.943250   -1.646380    1.939080
  H      4.438250   -2.407920   -0.169090
  H      5.982520   -1.527030   -2.511340
  H      3.685720   -0.478590   -1.021190
  H      1.880130   -0.190540   -3.356750
  H      2.077880    0.949090   -2.012920
  H      1.007090   -0.675640   -0.459880
  H     -1.299570   -0.728000   -1.251310
  H     -1.172490    0.630160    0.520270
  H     -1.197740    3.538600   -0.208370
  H      1.163940    1.875480    0.422290
  H      2.043030    2.728880    3.061070
  H      2.440970    4.831780    1.781750
  H      3.990230    4.074250    2.193970
  H      3.344260    3.935960    0.554450
  H     -2.690880    3.816960    1.766000
  H     -2.563030    2.107110    2.133400
  H     -3.750620    1.528340    0.025290
  H     -5.018740    1.870550    2.126130
  H     -5.232290    3.586940    1.736080
  H     -5.973980    2.342330    0.715740
  H     -3.145330    3.407860   -1.447090
  H     -4.897250    3.351990   -1.274930
  H     -3.964860    4.560180   -0.376660
  H     -2.535320   -1.751570   -2.964980
  H     -2.483940   -1.093210   -4.597470
  H     -3.259180    1.144900   -3.715570
  H     -3.374420    0.456440   -2.103140
  H     -5.054020   -1.215260   -2.927680
  H     -4.964940   -0.496370   -4.538420
  H     -5.730110    1.697120   -3.607010
  H     -5.784360    0.987420   -1.990830
  H     -7.534060   -0.616210   -2.714190
  H     -7.417940   -0.033620   -4.371440
  H     -9.375830    0.922410   -3.336860
  H     -8.225340    2.208060   -3.686500
  H     -7.524060    2.274140   -1.304720
  H     -8.565580    0.896730   -0.935290
  H    -10.570650    2.249050   -1.591070
  H     -9.524250    3.615650   -1.983000
  H    -10.508900    3.876040    0.271420
  H     -9.800510    2.336310    0.788930
  H     -8.748870    3.710290    0.394830
  H      0.206050   -2.581500   -1.121820
  H      6.533690   -3.925560   -2.462620
  H      5.544370   -3.541660   -3.863530
  H      4.833610   -5.654250   -2.810080
  H      4.510960   -4.831980   -1.278490
  H      3.526660   -4.468810   -2.706720
  H      8.197380   -3.703290    1.461890
  H      7.808220   -3.027280    3.817070
  H      6.353300   -4.039900    3.882610
  H      7.942860   -4.781530    3.650310
  H      6.509030   -5.010970    0.203660
  H      7.182910   -5.929340    1.548390
  H      5.561350   -5.245010    1.684890

----------------------------
CARTESIAN COORDINATES (A.U.)
----------------------------
  NO LB      ZA    FRAG     MASS         X           Y           Z
   0 O     8.0000    0    15.999    5.976637   -3.083863    5.420849
   1 C     6.0000    0    12.011    8.177185   -2.709981    4.731723
   2 C     6.0000    0    12.011    9.484800   -0.107941    4.948664
   3 C     6.0000    0    12.011   11.140956    0.046374    7.312031
   4 C     6.0000    0    12.011    9.341067    1.053296    9.323058
   5 C     6.0000    0    12.011    7.687614    2.899615    7.870690
   6 N     7.0000    0    14.007    7.634815    1.923307    5.296392
   7 C     6.0000    0    12.011    6.158447    2.760455    3.324671
   8 O     8.0000    0    15.999    6.269544    1.737206    1.221368
   9 N     7.0000    0    14.007    9.514884   -4.710558    3.786331
  10 C     6.0000    0    12.011   12.119211   -4.713279    2.821210
  11 C     6.0000    0    12.011   12.269198   -4.250599   -0.063570
  12 N     7.0000    0    14.007    9.997766   -4.272784   -1.332200
  13 C     6.0000    0    12.011    9.851029   -4.213881   -4.092221
  14 C     6.0000    0    12.011    7.328245   -3.165310   -5.124427
  15 N     7.0000    0    14.007    6.162869   -1.388344   -3.615556
  16 C     6.0000    0    12.011    3.762842   -0.207397   -4.297370
  17 C     6.0000    0    12.011    1.523289   -1.442863   -2.903054
  18 C     6.0000    0    12.011   -1.073553   -0.286766   -3.468951
  19 C     6.0000    0    12.011   -1.206968    2.435290   -2.595879
  20 N     7.0000    0    14.007   -1.971173    2.739725   -0.127934
  21 C     6.0000    0    12.011   -2.336306    5.218687    1.064577
  22 C     6.0000    0    12.011   -0.146397    5.836873    2.906078
  23 N     7.0000    0    14.007    2.122767    4.718911    2.316029
  24 C     6.0000    0    12.011    4.420731    5.051446    3.800655
  25 C     6.0000    0    12.011    5.799834    7.465458    3.052626
  26 O     8.0000    0    15.999   -0.333537    7.378492    4.641659
  27 C     6.0000    0    12.011   -4.880161    5.341953    2.462729
  28 C     6.0000    0    12.011   -7.228543    4.804402    0.821785
  29 C     6.0000    0    12.011   -9.608974    4.896677    2.464562
  30 C     6.0000    0    12.011   -7.489060    6.658356   -1.378744
  31 O     8.0000    0    15.999   -0.679961    4.245194   -3.955726
  32 C     6.0000    0    12.011   -1.893090   -0.558565   -6.214969
  33 C     6.0000    0    12.011   -4.540861   -1.562331   -6.684150
  34 C     6.0000    0    12.011   -6.525621    0.404212   -5.987314
  35 C     6.0000    0    12.011   -9.199773   -0.527328   -6.553438
  36 C     6.0000    0    12.011  -11.164880    1.446548   -5.776118
  37 C     6.0000    0    12.011  -13.855604    0.518182   -6.277651
  38 C     6.0000    0    12.011  -15.877384    2.523389   -5.756049
  39 C     6.0000    0    12.011  -15.986327    3.356456   -2.989131
  40 C     6.0000    0    12.011  -18.184910    5.172124   -2.522879
  41 C     6.0000    0    12.011  -18.274918    6.027754    0.218811
  42 O     8.0000    0    15.999   -0.558187    0.072377   -8.025213
  43 O     8.0000    0    15.999    1.457338   -4.120661   -3.427642
  44 O     8.0000    0    15.999    6.549224   -3.668355   -7.263465
  45 C     6.0000    0    12.011   10.448145   -6.822611   -5.232689
  46 C     6.0000    0    12.011    8.579035   -8.879162   -4.466972
  47 O     8.0000    0    15.999   14.302317   -3.981483   -1.169589
  48 C     6.0000    0    12.011   13.572901   -7.148343    3.542670
  49 C     6.0000    0    12.011   13.842414   -7.396558    6.413693
  50 C     6.0000    0    12.011   12.409227   -9.561183    2.446836
  51 H     1.0000    0     1.008   10.555462    0.256852    3.215860
  52 H     1.0000    0     1.008   12.668327    1.414309    7.008805
  53 H     1.0000    0     1.008   11.984303   -1.753382    7.875566
  54 H     1.0000    0     1.008    8.186464   -0.497338   10.069670
  55 H     1.0000    0     1.008   10.320947    1.943602   10.909597
  56 H     1.0000    0     1.008    5.782600    3.014793    8.660709
  57 H     1.0000    0     1.008    8.522117    4.792081    7.821010
  58 H     1.0000    0     1.008    8.519717   -6.346116    3.667448
  59 H     1.0000    0     1.008   13.120841   -3.111207    3.664330
  60 H     1.0000    0     1.008    8.387077   -4.550309   -0.319534
  61 H     1.0000    0     1.008   11.305324   -2.885668   -4.745745
  62 H     1.0000    0     1.008    6.965001   -0.904404   -1.929769
  63 H     1.0000    0     1.008    3.552931   -0.360068   -6.343338
  64 H     1.0000    0     1.008    3.926624    1.793520   -3.803868
  65 H     1.0000    0     1.008    1.903124   -1.276775   -0.869047
  66 H     1.0000    0     1.008   -2.455831   -1.375721   -2.364633
  67 H     1.0000    0     1.008   -2.215685    1.190830    0.983168
  68 H     1.0000    0     1.008   -2.263401    6.686985   -0.393762
  69 H     1.0000    0     1.008    2.199528    3.544144    0.798012
  70 H     1.0000    0     1.008    3.860767    5.156836    5.784584
  71 H     1.0000    0     1.008    4.612765    9.130741    3.367020
  72 H     1.0000    0     1.008    7.540442    7.699217    4.146002
  73 H     1.0000    0     1.008    6.319736    7.437886    1.047759
  74 H     1.0000    0     1.008   -5.085026    7.213009    3.337256
  75 H     1.0000    0     1.008   -4.843425    3.981861    4.031542
  76 H     1.0000    0     1.008   -7.087645    2.888144    0.047791
  77 H     1.0000    0     1.008   -9.484044    3.534827    4.017803
  78 H     1.0000    0     1.008   -9.887595    6.778334    3.280716
  79 H     1.0000    0     1.008  -11.289186    4.426362    1.352553
  80 H     1.0000    0     1.008   -5.943812    6.439922   -2.734604
  81 H     1.0000    0     1.008   -9.254461    6.334343   -2.409269
  82 H     1.0000    0     1.008   -7.492500    8.617491   -0.711784
  83 H     1.0000    0     1.008   -4.791060   -3.309988   -5.603000
  84 H     1.0000    0     1.008   -4.693966   -2.065868   -8.687959
  85 H     1.0000    0     1.008   -6.158958    2.163547   -7.021410
  86 H     1.0000    0     1.008   -6.376730    0.862547   -3.974359
  87 H     1.0000    0     1.008   -9.550714   -2.296509   -5.532513
  88 H     1.0000    0     1.008   -9.382377   -0.938003   -8.576371
  89 H     1.0000    0     1.008  -10.828339    3.207092   -6.816261
  90 H     1.0000    0     1.008  -10.930856    1.865953   -3.762123
  91 H     1.0000    0     1.008  -14.237310   -1.164468   -5.129076
  92 H     1.0000    0     1.008  -14.017875   -0.063533   -8.260824
  93 H     1.0000    0     1.008  -17.717751    1.743102   -6.305752
  94 H     1.0000    0     1.008  -15.543640    4.172629   -6.966475
  95 H     1.0000    0     1.008  -14.218413    4.297502   -2.465563
  96 H     1.0000    0     1.008  -16.186600    1.694574   -1.767442
  97 H     1.0000    0     1.008  -19.975634    4.250089   -3.006687
  98 H     1.0000    0     1.008  -17.998224    6.832588   -3.747327
  99 H     1.0000    0     1.008  -19.858943    7.324654    0.512909
 100 H     1.0000    0     1.008  -18.520280    4.414986    1.490862
 101 H     1.0000    0     1.008  -16.532968    7.011432    0.746121
 102 H     1.0000    0     1.008    0.389378   -4.878328   -2.119933
 103 H     1.0000    0     1.008   12.346885   -7.418233   -4.653677
 104 H     1.0000    0     1.008   10.477341   -6.692767   -7.301014
 105 H     1.0000    0     1.008    9.134199  -10.684984   -5.310282
 106 H     1.0000    0     1.008    8.524479   -9.131119   -2.415996
 107 H     1.0000    0     1.008    6.664422   -8.444827   -5.114960
 108 H     1.0000    0     1.008   15.490803   -6.998204    2.762572
 109 H     1.0000    0     1.008   14.755397   -5.720730    7.213217
 110 H     1.0000    0     1.008   12.005997   -7.634305    7.337070
 111 H     1.0000    0     1.008   15.009830   -9.035782    6.898086
 112 H     1.0000    0     1.008   12.300284   -9.469361    0.384862
 113 H     1.0000    0     1.008   13.573733  -11.204829    2.926033
 114 H     1.0000    0     1.008   10.509428   -9.911632    3.183981

--------------------------------
INTERNAL COORDINATES (ANGSTROEM)
--------------------------------
 O      0   0   0     0.000000000000     0.00000000     0.00000000
 C      1   0   0     1.236180610510     0.00000000     0.00000000
 C      2   1   0     1.545299791367   122.85455024     0.00000000
 C      3   2   1     1.529328521018   111.40378613    98.02204410
 C      4   3   2     1.524335551412   103.38588608   270.05957828
 C      5   4   3     1.520146241452   103.37639989   323.67667400
 N      6   5   4     1.457206176490   104.82133760    28.84938988
 C      7   6   5     1.376691279736   127.25111705   171.88176910
 O      8   7   6     1.239140982657   120.87849419   181.02251544
 N      2   1   3     1.368259905281   118.12366234   178.62341491
 C     10   2   1     1.469739573700   127.80162102   178.93459538
 C     11  10   2     1.548105828456   112.99016683   268.00625422
 N     12  11  10     1.376808540284   115.76650067   351.05604848
 C     13  12  11     1.462934784261   122.20549916   188.60368229
 C     14  13  12     1.545468570628   113.97602421   203.90068619
 N     15  14  13     1.379153884307   115.24142279    30.37546326
 C     16  15  14     1.460724391013   122.51189552   180.21485180
 C     17  16  15     1.541539998962   111.63942385    99.80655172
 C     18  17  16     1.533737010084   115.22624333   178.91559886
 C     19  18  17     1.514375713817   111.19931253   296.44899072
 N     20  19  18     1.376617713964   114.48384647   271.70269769
 C     21  20  19     1.468469797783   123.42719011   182.78125156
 C     22  21  20     1.549050880313   111.13423412   254.87411324
 N     23  22  21     1.374547562546   114.81831674    27.87199769
 C     24  23  22     1.458392573589   123.64951101   180.01946414
 C     25  24  23     1.523527388431   111.13805390   276.15273266
 O     23  22  21     1.232409805990   123.26336737   201.75030484
 C     22  21  20     1.537459720546   111.09450266   131.94272745
 C     28  22  21     1.542490634720   115.25634468   302.56778425
 C     29  28  22     1.531296881797   109.71075889   178.00540137
 C     29  28  22     1.528886557401   112.52452742   300.48353470
 O     20  19  18     1.230000988617   123.47676719    91.63679145
 C     19  18  17     1.523270234791   113.80856338    63.46678552
 C     33  19  18     1.518873868002   116.84585556   131.10317442
 C     34  33  19     1.523823503264   110.94291957    71.78174551
 C     35  34  33     1.528154406106   111.74769147   177.52933718
 C     36  35  34     1.530233553612   110.87928375   178.51440454
 C     37  36  35     1.529440796435   111.51558331   181.24428555
 C     38  37  36     1.531921893211   113.35502248   185.29183298
 C     39  38  37     1.530201223434   113.47006998   296.92971348
 C     40  39  38     1.528929096656   111.35373757   185.19955828
 C     41  40  39     1.520596939001   111.40316114   180.72965872
 O     33  19  18     1.236173878546   123.43892701   308.51368263
 O     18  17  16     1.444386994853   110.03907799   303.15619167
 O     15  14  13     1.233721922679   122.37383560   202.77148132
 C     14  13  12     1.539413105992   111.18593366    77.33325953
 C     46  14  13     1.525398120656   113.73765547    62.70045522
 O     12  11  10     1.233025166369   122.07744232   173.88343289
 C     11  10   2     1.548533284240   112.39278401   142.19392578
 C     49  11  10     1.531602104105   111.23418742   297.29965176
 C     49  11  10     1.531580572024   113.61799390    62.03561296
 H      3   2   1     1.095025866407   109.05993372   222.49156983
 H      4   3   2     1.096821648446   109.74865468   153.45063699
 H      4   3   2     1.093225390576   114.23571095    31.61168097
 H      5   4   3     1.096687558879   109.75965380    81.02197535
 H      5   4   3     1.093479689523   112.97486432   201.68749820
 H      6   5   4     1.093039118330   111.92027517   149.34623454
 H      6   5   4     1.094807666488   111.58546975   272.16402383
 H     10   2   1     1.015074648733   114.45455828     2.53688467
 H     11  10   2     1.094866236396   108.15471235    23.48134383
 H     13  12  11     1.017456981695   118.40934206     1.17682375
 H     14  13  12     1.098118365615   106.90905214   319.84419625
 H     16  15  14     1.020570230508   119.41749427   358.35224316
 H     17  16  15     1.091357765767   107.56942341   337.27824108
 H     17  16  15     1.094007841380   106.63221642   221.10461253
 H     18  17  16     1.098478481628   107.12094040    57.64146389
 H     19  18  17     1.099369095345   106.45576181   179.31270982
 H     21  20  19     1.016985851721   119.44194610     6.13597540
 H     22  21  20     1.095789046715   109.03511698    10.73126958
 H     24  23  22     1.016563834690   118.52945871   357.78088179
 H     25  24  23     1.092291562633   107.32103409    36.07966554
 H     26  25  24     1.094916818165   111.13338871    60.42253934
 H     26  25  24     1.094748768531   111.12802923   180.91008906
 H     26  25  24     1.096118765189   111.13375356   300.66792300
 H     28  22  21     1.098296713507   109.11374654   179.70956327
 H     28  22  21     1.098903098048   108.67946184    64.67754371
 H     29  28  22     1.096171561207   109.03492230    60.74855279
 H     30  29  28     1.095128636873   110.82045340   302.26030500
 H     30  29  28     1.095329064072   111.31928750    62.58492750
 H     30  29  28     1.094882100411   110.83427938   182.83061363
 H     31  29  28     1.093984731292   111.36612220    65.76846228
 H     31  29  28     1.095231329263   110.83570136   184.92618283
 H     31  29  28     1.095161654232   111.23198523   304.96213306
 H     34  33  19     1.095510422954   108.74436177   308.78027333
 H     34  33  19     1.096334670117   108.13576961   193.02602482
 H     35  34  33     1.097204798249   109.68779877    55.44463462
 H     35  34  33     1.095310850763   109.69309917   298.77069855
 H     36  35  34     1.096744013296   109.60870815    57.40082023
 H     36  35  34     1.096592075204   109.68819660   299.87903591
 H     37  36  35     1.096645482414   109.54901169    59.62001879
 H     37  36  35     1.095645055116   108.84059476   302.55218802
 H     38  37  36     1.096844827904   109.63604649    62.59696867
 H     38  37  36     1.097031571241   109.20839596   305.98183815
 H     39  38  37     1.097066048422   108.14919770   175.63514161
 H     39  38  37     1.096879610805   109.47886084    59.72679947
 H     40  39  38     1.095436632398   109.92569573    64.46520577
 H     40  39  38     1.096621267986   109.67617129   306.67432353
 H     41  40  39     1.096164622171   109.90215688    59.60327924
 H     41  40  39     1.096210385373   109.86197394   301.81400833
 H     42  41  40     1.094460686320   110.26606939   179.98265433
 H     42  41  40     1.094685214479   110.99453710   299.73957394
 H     42  41  40     1.094778723396   111.00169144    60.22933200
 H     44  18  17     0.979292572881   106.24804171   162.38570363
 H     46  14  13     1.096717123510   109.64835645   301.22293883
 H     46  14  13     1.096773407181   109.75153333   184.57561196
 H     47  46  14     1.094817809501   109.90422759   181.10221730
 H     47  46  14     1.093869998994   111.56983707   300.57961366
 H     47  46  14     1.094038520574   111.55201927    61.71190559
 H     49  11  10     1.098529338115   107.82576446   180.23058326
 H     50  49  11     1.094920874356   110.78922978   304.06033589
 H     50  49  11     1.094971797399   111.70758712    64.76456786
 H     50  49  11     1.095352452592   110.64439356   184.82666108
 H     51  49  11     1.093751723701   111.21556853    57.88409335
 H     51  49  11     1.095700450716   110.36642955   176.73677915
 H     51  49  11     1.094185778467   112.06921527   296.43658997

---------------------------
INTERNAL COORDINATES (A.U.)
---------------------------
 O      0   0   0     0.000000000000     0.00000000     0.00000000
 C      1   0   0     2.336042805927     0.00000000     0.00000000
 C      2   1   0     2.920193400490   122.85455024     0.00000000
 C      3   2   1     2.890012073519   111.40378613    98.02204410
[...]
freq.      78.15  E(vib)   ...       0.49 
freq.      80.12  E(vib)   ...       0.49 
freq.      85.43  E(vib)   ...       0.48 
freq.      87.90  E(vib)   ...       0.48 
freq.      94.72  E(vib)   ...       0.47 
freq.     100.89  E(vib)   ...       0.46 
freq.     106.90  E(vib)   ...       0.45 
freq.     112.76  E(vib)   ...       0.45 
freq.     117.79  E(vib)   ...       0.44 
freq.     123.04  E(vib)   ...       0.43 
freq.     125.72  E(vib)   ...       0.43 
freq.     128.98  E(vib)   ...       0.43 
freq.     135.60  E(vib)   ...       0.42 
freq.     138.33  E(vib)   ...       0.42 
freq.     140.10  E(vib)   ...       0.41 
freq.     147.68  E(vib)   ...       0.41 
freq.     150.84  E(vib)   ...       0.40 
freq.     153.72  E(vib)   ...       0.40 
freq.     174.29  E(vib)   ...       0.38 
freq.     182.28  E(vib)   ...       0.37 
freq.     186.81  E(vib)   ...       0.37 
freq.     195.37  E(vib)   ...       0.36 
freq.     200.39  E(vib)   ...       0.35 
freq.     207.42  E(vib)   ...       0.34 
freq.     214.13  E(vib)   ...       0.34 
freq.     225.04  E(vib)   ...       0.33 
freq.     229.56  E(vib)   ...       0.32 
freq.     233.58  E(vib)   ...       0.32 
freq.     238.24  E(vib)   ...       0.32 
freq.     240.97  E(vib)   ...       0.31 
freq.     244.41  E(vib)   ...       0.31 
freq.     245.73  E(vib)   ...       0.31 
freq.     252.65  E(vib)   ...       0.30 
freq.     252.81  E(vib)   ...       0.30 
freq.     253.35  E(vib)   ...       0.30 
freq.     256.67  E(vib)   ...       0.30 
freq.     263.79  E(vib)   ...       0.29 
freq.     272.46  E(vib)   ...       0.29 
freq.     275.46  E(vib)   ...       0.28 
freq.     281.83  E(vib)   ...       0.28 
freq.     297.25  E(vib)   ...       0.27 
freq.     304.06  E(vib)   ...       0.26 
freq.     309.44  E(vib)   ...       0.26 
freq.     317.14  E(vib)   ...       0.25 
freq.     334.01  E(vib)   ...       0.24 
freq.     338.47  E(vib)   ...       0.23 
freq.     345.44  E(vib)   ...       0.23 
freq.     350.03  E(vib)   ...       0.23 
freq.     358.63  E(vib)   ...       0.22 
freq.     365.82  E(vib)   ...       0.22 
freq.     372.62  E(vib)   ...       0.21 
freq.     375.89  E(vib)   ...       0.21 
freq.     390.25  E(vib)   ...       0.20 
freq.     398.69  E(vib)   ...       0.19 
freq.     404.74  E(vib)   ...       0.19 
freq.     405.95  E(vib)   ...       0.19 
freq.     422.10  E(vib)   ...       0.18 
freq.     429.71  E(vib)   ...       0.18 
freq.     442.27  E(vib)   ...       0.17 
freq.     461.89  E(vib)   ...       0.16 
freq.     467.37  E(vib)   ...       0.16 
freq.     479.79  E(vib)   ...       0.15 
freq.     489.69  E(vib)   ...       0.15 
freq.     504.63  E(vib)   ...       0.14 
freq.     513.38  E(vib)   ...       0.13 
freq.     520.03  E(vib)   ...       0.13 
freq.     530.30  E(vib)   ...       0.13 
freq.     538.04  E(vib)   ...       0.12 
freq.     546.03  E(vib)   ...       0.12 
freq.     556.36  E(vib)   ...       0.12 
freq.     585.03  E(vib)   ...       0.11 
freq.     591.16  E(vib)   ...       0.10 
freq.     592.30  E(vib)   ...       0.10 
freq.     605.85  E(vib)   ...       0.10 
freq.     618.82  E(vib)   ...       0.09 
freq.     641.62  E(vib)   ...       0.09 
freq.     652.31  E(vib)   ...       0.08 
freq.     657.29  E(vib)   ...       0.08 
freq.     681.69  E(vib)   ...       0.08 
freq.     699.43  E(vib)   ...       0.07 
freq.     712.27  E(vib)   ...       0.07 
freq.     717.70  E(vib)   ...       0.07 
freq.     721.08  E(vib)   ...       0.07 
freq.     723.83  E(vib)   ...       0.06 
freq.     725.28  E(vib)   ...       0.06 
freq.     733.30  E(vib)   ...       0.06 
freq.     742.39  E(vib)   ...       0.06 
freq.     747.37  E(vib)   ...       0.06 
freq.     753.10  E(vib)   ...       0.06 
freq.     757.67  E(vib)   ...       0.06 
freq.     769.32  E(vib)   ...       0.06 
freq.     777.90  E(vib)   ...       0.05 
freq.     783.58  E(vib)   ...       0.05 
freq.     786.63  E(vib)   ...       0.05 
freq.     795.03  E(vib)   ...       0.05 
freq.     815.18  E(vib)   ...       0.05 
freq.     827.92  E(vib)   ...       0.04 
freq.     836.27  E(vib)   ...       0.04 
freq.     839.77  E(vib)   ...       0.04 
freq.     844.72  E(vib)   ...       0.04 
freq.     852.68  E(vib)   ...       0.04 
freq.     862.93  E(vib)   ...       0.04 
freq.     869.31  E(vib)   ...       0.04 
freq.     876.77  E(vib)   ...       0.04 
freq.     879.72  E(vib)   ...       0.04 
freq.     886.45  E(vib)   ...       0.04 
freq.     896.02  E(vib)   ...       0.03 
freq.     899.44  E(vib)   ...       0.03 
freq.     899.90  E(vib)   ...       0.03 
freq.     902.77  E(vib)   ...       0.03 
freq.     913.02  E(vib)   ...       0.03 
freq.     915.75  E(vib)   ...       0.03 
freq.     928.46  E(vib)   ...       0.03 
freq.     932.80  E(vib)   ...       0.03 
freq.     939.06  E(vib)   ...       0.03 
freq.     946.42  E(vib)   ...       0.03 
freq.     948.39  E(vib)   ...       0.03 
freq.     951.72  E(vib)   ...       0.03 
freq.     956.07  E(vib)   ...       0.03 
freq.     967.49  E(vib)   ...       0.03 
freq.     975.35  E(vib)   ...       0.03 
freq.     984.00  E(vib)   ...       0.02 
freq.     985.21  E(vib)   ...       0.02 
freq.     988.54  E(vib)   ...       0.02 
freq.     999.90  E(vib)   ...       0.02 
freq.    1004.18  E(vib)   ...       0.02 
freq.    1012.05  E(vib)   ...       0.02 
freq.    1015.08  E(vib)   ...       0.02 
freq.    1021.07  E(vib)   ...       0.02 
freq.    1024.88  E(vib)   ...       0.02 
freq.    1029.08  E(vib)   ...       0.02 
freq.    1031.56  E(vib)   ...       0.02 
freq.    1041.65  E(vib)   ...       0.02 
freq.    1048.64  E(vib)   ...       0.02 
freq.    1050.29  E(vib)   ...       0.02 
freq.    1052.60  E(vib)   ...       0.02 
freq.    1056.11  E(vib)   ...       0.02 
freq.    1063.53  E(vib)   ...       0.02 
freq.    1066.71  E(vib)   ...       0.02 
freq.    1077.57  E(vib)   ...       0.02 
freq.    1077.63  E(vib)   ...       0.02 
freq.    1085.50  E(vib)   ...       0.02 
freq.    1099.84  E(vib)   ...       0.02 
freq.    1104.17  E(vib)   ...       0.02 
freq.    1105.16  E(vib)   ...       0.02 
freq.    1106.26  E(vib)   ...       0.02 
freq.    1113.05  E(vib)   ...       0.01 
freq.    1130.26  E(vib)   ...       0.01 
freq.    1131.63  E(vib)   ...       0.01 
freq.    1133.87  E(vib)   ...       0.01 
freq.    1136.17  E(vib)   ...       0.01 
freq.    1144.56  E(vib)   ...       0.01 
freq.    1149.51  E(vib)   ...       0.01 
freq.    1151.95  E(vib)   ...       0.01 
freq.    1157.28  E(vib)   ...       0.01 
freq.    1157.53  E(vib)   ...       0.01 
freq.    1160.43  E(vib)   ...       0.01 
freq.    1165.69  E(vib)   ...       0.01 
freq.    1173.42  E(vib)   ...       0.01 
freq.    1178.99  E(vib)   ...       0.01 
freq.    1181.09  E(vib)   ...       0.01 
freq.    1182.39  E(vib)   ...       0.01 
freq.    1189.53  E(vib)   ...       0.01 
freq.    1195.13  E(vib)   ...       0.01 
freq.    1202.03  E(vib)   ...       0.01 
freq.    1211.36  E(vib)   ...       0.01 
freq.    1213.53  E(vib)   ...       0.01 
freq.    1216.67  E(vib)   ...       0.01 
freq.    1220.75  E(vib)   ...       0.01 
freq.    1226.37  E(vib)   ...       0.01 
freq.    1227.31  E(vib)   ...       0.01 
freq.    1232.30  E(vib)   ...       0.01 
freq.    1236.20  E(vib)   ...       0.01 
freq.    1238.60  E(vib)   ...       0.01 
freq.    1244.70  E(vib)   ...       0.01 
freq.    1252.17  E(vib)   ...       0.01 
freq.    1255.97  E(vib)   ...       0.01 
freq.    1259.30  E(vib)   ...       0.01 
freq.    1268.72  E(vib)   ...       0.01 
freq.    1269.89  E(vib)   ...       0.01 
freq.    1271.01  E(vib)   ...       0.01 
freq.    1272.51  E(vib)   ...       0.01 
freq.    1275.09  E(vib)   ...       0.01 
freq.    1277.40  E(vib)   ...       0.01 
freq.    1279.26  E(vib)   ...       0.01 
freq.    1279.41  E(vib)   ...       0.01 
freq.    1280.87  E(vib)   ...       0.01 
freq.    1285.88  E(vib)   ...       0.01 
freq.    1292.37  E(vib)   ...       0.01 
freq.    1298.55  E(vib)   ...       0.01 
freq.    1303.14  E(vib)   ...       0.01 
freq.    1305.77  E(vib)   ...       0.01 
freq.    1308.34  E(vib)   ...       0.01 
freq.    1313.45  E(vib)   ...       0.01 
freq.    1314.65  E(vib)   ...       0.01 
freq.    1315.83  E(vib)   ...       0.01 
freq.    1318.53  E(vib)   ...       0.01 
freq.    1319.28  E(vib)   ...       0.01 
freq.    1319.99  E(vib)   ...       0.01 
freq.    1321.15  E(vib)   ...       0.01 
freq.    1330.48  E(vib)   ...       0.01 
freq.    1335.33  E(vib)   ...       0.01 
freq.    1343.29  E(vib)   ...       0.01 
freq.    1345.00  E(vib)   ...       0.01 
freq.    1346.63  E(vib)   ...       0.01 
freq.    1351.63  E(vib)   ...       0.01 
freq.    1351.86  E(vib)   ...       0.01 
freq.    1353.47  E(vib)   ...       0.01 
freq.    1356.59  E(vib)   ...       0.01 
freq.    1358.90  E(vib)   ...       0.01 
freq.    1359.22  E(vib)   ...       0.01 
freq.    1359.94  E(vib)   ...       0.01 
freq.    1361.32  E(vib)   ...       0.01 
freq.    1389.47  E(vib)   ...       0.00 
freq.    1396.76  E(vib)   ...       0.00 
freq.    1400.47  E(vib)   ...       0.00 
freq.    1402.11  E(vib)   ...       0.00 
freq.    1406.65  E(vib)   ...       0.00 
freq.    1406.99  E(vib)   ...       0.00 
freq.    1408.64  E(vib)   ...       0.00 
freq.    1410.39  E(vib)   ...       0.00 
freq.    1412.25  E(vib)   ...       0.00 
freq.    1412.49  E(vib)   ...       0.00 
freq.    1413.68  E(vib)   ...       0.00 
freq.    1414.11  E(vib)   ...       0.00 
freq.    1415.37  E(vib)   ...       0.00 
freq.    1416.16  E(vib)   ...       0.00 
freq.    1419.64  E(vib)   ...       0.00 
freq.    1419.69  E(vib)   ...       0.00 
freq.    1420.98  E(vib)   ...       0.00 
freq.    1421.75  E(vib)   ...       0.00 
freq.    1423.47  E(vib)   ...       0.00 
freq.    1425.02  E(vib)   ...       0.00 
freq.    1425.18  E(vib)   ...       0.00 
freq.    1426.86  E(vib)   ...       0.00 
freq.    1429.92  E(vib)   ...       0.00 
freq.    1432.72  E(vib)   ...       0.00 
freq.    1434.32  E(vib)   ...       0.00 
freq.    1436.11  E(vib)   ...       0.00 
freq.    1436.59  E(vib)   ...       0.00 
freq.    1437.66  E(vib)   ...       0.00 
freq.    1442.35  E(vib)   ...       0.00 
freq.    1443.39  E(vib)   ...       0.00 
freq.    1449.91  E(vib)   ...       0.00 
freq.    1470.53  E(vib)   ...       0.00 
freq.    1471.33  E(vib)   ...       0.00 
freq.    1483.66  E(vib)   ...       0.00 
freq.    1498.95  E(vib)   ...       0.00 
freq.    1678.94  E(vib)   ...       0.00 
freq.    1718.82  E(vib)   ...       0.00 
freq.    1727.72  E(vib)   ...       0.00 
freq.    1733.89  E(vib)   ...       0.00 
freq.    1738.15  E(vib)   ...       0.00 
freq.    1747.41  E(vib)   ...       0.00 
freq.    1778.66  E(vib)   ...       0.00 
freq.    2889.34  E(vib)   ...       0.00 
freq.    2925.28  E(vib)   ...       0.00 
freq.    2930.91  E(vib)   ...       0.00 
freq.    2934.68  E(vib)   ...       0.00 
freq.    2936.20  E(vib)   ...       0.00 
freq.    2938.71  E(vib)   ...       0.00 
freq.    2939.10  E(vib)   ...       0.00 
freq.    2945.61  E(vib)   ...       0.00 
freq.    2946.23  E(vib)   ...       0.00 
freq.    2946.69  E(vib)   ...       0.00 
freq.    2949.75  E(vib)   ...       0.00 
freq.    2949.96  E(vib)   ...       0.00 
freq.    2952.06  E(vib)   ...       0.00 
freq.    2953.63  E(vib)   ...       0.00 
freq.    2955.06  E(vib)   ...       0.00 
freq.    2956.38  E(vib)   ...       0.00 
freq.    2957.08  E(vib)   ...       0.00 
freq.    2957.53  E(vib)   ...       0.00 
freq.    2960.78  E(vib)   ...       0.00 
freq.    2970.34  E(vib)   ...       0.00 
freq.    2971.03  E(vib)   ...       0.00 
freq.    2972.94  E(vib)   ...       0.00 
freq.    2979.91  E(vib)   ...       0.00 
freq.    2983.35  E(vib)   ...       0.00 
freq.    2984.14  E(vib)   ...       0.00 
freq.    2988.36  E(vib)   ...       0.00 
freq.    2988.51  E(vib)   ...       0.00 
freq.    2991.72  E(vib)   ...       0.00 
freq.    2995.61  E(vib)   ...       0.00 
freq.    2996.54  E(vib)   ...       0.00 
freq.    2998.90  E(vib)   ...       0.00 
freq.    3000.51  E(vib)   ...       0.00 
freq.    3001.98  E(vib)   ...       0.00 
freq.    3002.30  E(vib)   ...       0.00 
freq.    3009.56  E(vib)   ...       0.00 
freq.    3011.77  E(vib)   ...       0.00 
freq.    3019.13  E(vib)   ...       0.00 
freq.    3023.07  E(vib)   ...       0.00 
freq.    3034.18  E(vib)   ...       0.00 
freq.    3034.34  E(vib)   ...       0.00 
freq.    3034.83  E(vib)   ...       0.00 
freq.    3035.42  E(vib)   ...       0.00 
freq.    3036.33  E(vib)   ...       0.00 
freq.    3038.21  E(vib)   ...       0.00 
freq.    3038.84  E(vib)   ...       0.00 
freq.    3040.95  E(vib)   ...       0.00 
freq.    3045.47  E(vib)   ...       0.00 
freq.    3051.75  E(vib)   ...       0.00 
freq.    3052.20  E(vib)   ...       0.00 
freq.    3053.22  E(vib)   ...       0.00 
freq.    3053.47  E(vib)   ...       0.00 
freq.    3053.73  E(vib)   ...       0.00 
freq.    3064.64  E(vib)   ...       0.00 
freq.    3064.80  E(vib)   ...       0.00 
freq.    3065.65  E(vib)   ...       0.00 
freq.    3066.26  E(vib)   ...       0.00 
freq.    3081.37  E(vib)   ...       0.00 
freq.    3086.59  E(vib)   ...       0.00 
freq.    3451.58  E(vib)   ...       0.00 
freq.    3478.49  E(vib)   ...       0.00 
freq.    3481.90  E(vib)   ...       0.00 
freq.    3492.74  E(vib)   ...       0.00 
freq.    3511.60  E(vib)   ...       0.00 
freq.    3706.91  E(vib)   ...       0.00 

------------
INNER ENERGY
------------

The inner energy is: U= E(el) + E(ZPE) + E(vib) + E(rot) + E(trans)
    E(el)   - is the total energy from the electronic structure calculation
              = E(kin-el) + E(nuc-el) + E(el-el) + E(nuc-nuc)
    E(ZPE)  - the the zero temperature vibrational energy from the frequency calculation
    E(vib)  - the the finite temperature correction to E(ZPE) due to population
              of excited vibrational states
    E(rot)  - is the rotational thermal energy
    E(trans)- is the translational thermal energy

Summary of contributions to the inner energy U:
Electronic energy                ...  -2377.45320586 Eh
Zero point energy                ...      0.97707884 Eh     613.12 kcal/mol
Thermal vibrational correction   ...      0.05524238 Eh      34.67 kcal/mol
Thermal rotational correction    ...      0.00141627 Eh       0.89 kcal/mol
Thermal translational correction ...      0.00141627 Eh       0.89 kcal/mol
-----------------------------------------------------------------------
Total thermal energy                  -2376.41805210 Eh


Summary of corrections to the electronic energy:
(perhaps to be used in another calculation)
Total thermal correction                  0.05807492 Eh      36.44 kcal/mol
Non-thermal (ZPE) correction              0.97707884 Eh     613.12 kcal/mol
-----------------------------------------------------------------------
Total correction                          1.03515376 Eh     649.57 kcal/mol


--------
ENTHALPY
--------

The enthalpy is H = U + kB*T
                kB is Boltzmann's constant
Total free energy                 ...  -2376.41805210 Eh 
Thermal Enthalpy correction       ...      0.00094421 Eh       0.59 kcal/mol
-----------------------------------------------------------------------
Total Enthalpy                    ...  -2376.41710789 Eh


Note: Only C1 symmetry has been detected, increase convergence thresholds 
      if your molecule has a higher symmetry. Symmetry factor of 1.0 is   
      used for the rotational entropy correction. 
 

Note: Rotational entropy computed according to Herzberg 
Infrared and Raman Spectra, Chapter V,1, Van Nostrand Reinhold, 1945 
Point Group:  C1, Symmetry Number:   1  
Rotational constants in cm-1:     0.002928     0.000902     0.000768 

Vibrational entropy computed according to the QRRHO of S. Grimme
Chem.Eur.J. 2012 18 9955


-------
ENTROPY
-------

The entropy contributions are T*S = T*(S(el)+S(vib)+S(rot)+S(trans))
     S(el)   - electronic entropy
     S(vib)  - vibrational entropy
     S(rot)  - rotational entropy
     S(trans)- translational entropy
The entropies will be listed as mutliplied by the temperature to get
units of energy

Electronic entropy                ...      0.00000000 Eh      0.00 kcal/mol
Vibrational entropy               ...      0.10125432 Eh     63.54 kcal/mol
Rotational entropy                ...      0.01896014 Eh     11.90 kcal/mol
Translational entropy             ...      0.02166895 Eh     13.60 kcal/mol
-----------------------------------------------------------------------
Final entropy term                ...      0.14188340 Eh     89.03 kcal/mol

In case the symmetry of your molecule has not been determined correctly
or in case you have a reason to use a different symmetry number we print 
out the resulting rotational entropy values for sn=1,12 :
 --------------------------------------------------------
|  sn= 1 | S(rot)=       0.01896014 Eh     11.90 kcal/mol|
|  sn= 2 | S(rot)=       0.01830568 Eh     11.49 kcal/mol|
|  sn= 3 | S(rot)=       0.01792285 Eh     11.25 kcal/mol|
|  sn= 4 | S(rot)=       0.01765122 Eh     11.08 kcal/mol|
|  sn= 5 | S(rot)=       0.01744054 Eh     10.94 kcal/mol|
|  sn= 6 | S(rot)=       0.01726839 Eh     10.84 kcal/mol|
|  sn= 7 | S(rot)=       0.01712284 Eh     10.74 kcal/mol|
|  sn= 8 | S(rot)=       0.01699677 Eh     10.67 kcal/mol|
|  sn= 9 | S(rot)=       0.01688556 Eh     10.60 kcal/mol|
|  sn=10 | S(rot)=       0.01678608 Eh     10.53 kcal/mol|
|  sn=11 | S(rot)=       0.01669609 Eh     10.48 kcal/mol|
|  sn=12 | S(rot)=       0.01661393 Eh     10.43 kcal/mol|
 --------------------------------------------------------


-------------------
GIBBS FREE ENERGY
-------------------

The Gibbs free energy is G = H - T*S

Total enthalpy                    ...  -2376.41710789 Eh 
Total entropy correction          ...     -0.14188340 Eh    -89.03 kcal/mol
-----------------------------------------------------------------------
Final Gibbs free energy         ...  -2376.55899129 Eh

For completeness - the Gibbs free energy minus the electronic energy
G-E(el)                           ...      0.89421456 Eh    561.13 kcal/mol

--------------------------------------------------------------------------
WARNING: No preset parameters were found for the device that Open MPI
detected:

  Local host:            eu-g1-020-2
  Device name:           mlx5_0
  Device vendor ID:      0x02c9
  Device vendor part ID: 4123

Default device parameters will be used, which may result in lower
performance.  You can edit any of the files specified by the
btl_openib_device_param_files MCA parameter to set values for your
device.

NOTE: You can turn off this warning by setting the MCA parameter
      btl_openib_warn_no_device_params_found to 0.
--------------------------------------------------------------------------
--------------------------------------------------------------------------
WARNING: There was an error initializing an OpenFabrics device.

  Local host:   eu-g1-020-2
  Local device: mlx5_0
--------------------------------------------------------------------------

Timings for individual modules:

Sum of individual times         ...    10630.669 sec (= 177.178 min)
GTO integral calculation        ...       50.740 sec (=   0.846 min)   0.5 %
SCF iterations                  ...     1618.688 sec (=  26.978 min)  15.2 %
SCF Gradient evaluation         ...      586.300 sec (=   9.772 min)   5.5 %
Geometry relaxation             ...       53.082 sec (=   0.885 min)   0.5 %
Analytical frequency calculation...     8321.859 sec (= 138.698 min)  78.3 %
                             ****ORCA TERMINATED NORMALLY****
TOTAL RUN TIME: 0 days 2 hours 58 minutes 2 seconds 223 msec
