
                                 *****************
                                 * O   R   C   A *
                                 *****************

           --- An Ab Initio, DFT and Semiempirical electronic structure package ---

                  #######################################################
                  #                        -***-                        #
                  #          Department of theory and spectroscopy      #
                  #               Directorship: Frank Neese             #
                  #        Max Planck Institute fuer Kohlenforschung    #
                  #                Kaiser Wilhelm Platz 1               #
                  #                 D-45470 Muelheim/Ruhr               #
                  #                      Germany                        #
                  #                                                     #
                  #                  All rights reserved                #
                  #                        -***-                        #
                  #######################################################


                         Program Version 4.2.0 -  RELEASE  -


 With contributions from (in alphabetic order):
   Daniel Aravena         : Magnetic Suceptibility
   Michael Atanasov       : Ab Initio Ligand Field Theory (pilot matlab implementation)
   Alexander A. Auer      : GIAO ZORA, VPT2
   Ute Becker             : Parallelization
   Giovanni Bistoni       : ED, misc. LED, open-shell LED, HFLED
   Martin Brehm           : Molecular dynamics
   Dmytro Bykov           : SCF Hessian
   Vijay G. Chilkuri      : MRCI spin determinant printing, contributions to CSF-ICE
   Dipayan Datta          : RHF DLPNO-CCSD density
   Achintya Kumar Dutta   : EOM-CC, STEOM-CC
   Dmitry Ganyushin       : Spin-Orbit,Spin-Spin,Magnetic field MRCI
   Miquel Garcia          : C-PCM Hessian, Gaussian charge scheme
   Yang Guo               : DLPNO-NEVPT2, CIM, IAO-localization
   Andreas Hansen         : Spin unrestricted coupled pair/coupled cluster methods
   Benjamin Helmich-Paris : CASSCF linear response (MC-RPA)
   Lee Huntington         : MR-EOM, pCC
   Robert Izsak           : Overlap fitted RIJCOSX, COSX-SCS-MP3, EOM
   Christian Kollmar      : KDIIS, OOCD, Brueckner-CCSD(T), CCSD density
   Simone Kossmann        : Meta GGA functionals, TD-DFT gradient, OOMP2, MP2 Hessian
   Martin Krupicka        : AUTO-CI
   Lucas Lang             : DCDCAS
   Dagmar Lenk            : GEPOL surface, SMD
   Dimitrios Liakos       : Extrapolation schemes; Compound Job, initial MDCI parallelization
   Dimitrios Manganas     : Further ROCIS development; embedding schemes
   Dimitrios Pantazis     : SARC Basis sets
   Taras Petrenko         : DFT Hessian,TD-DFT gradient, ASA, ECA, R-Raman, ABS, FL, XAS/XES, NRVS
   Peter Pinski           : DLPNO-MP2, DLPNO-MP2 Gradient
   Christoph Reimann      : Effective Core Potentials
   Marius Retegan         : Local ZFS, SOC
   Christoph Riplinger    : Optimizer, TS searches, QM/MM, DLPNO-CCSD(T), (RO)-DLPNO pert. Triples
   Tobias Risthaus        : Range-separated hybrids, TD-DFT gradient, RPA, STAB
   Michael Roemelt        : Original ROCIS implementation
   Masaaki Saitow         : Open-shell DLPNO-CCSD energy and density
   Barbara Sandhoefer     : DKH picture change effects
   Avijit Sen             : IP-ROCIS
   Kantharuban Sivalingam : CASSCF convergence, NEVPT2, FIC-MRCI
   Bernardo de Souza      : ESD, SOC TD-DFT
   Georgi Stoychev        : AutoAux, RI-MP2 NMR
   Willem Van den Heuvel  : Paramagnetic NMR
   Boris Wezisla          : Elementary symmetry handling
   Frank Wennmohs         : Technical directorship


 We gratefully acknowledge several colleagues who have allowed us to
 interface, adapt or use parts of their codes:
   Stefan Grimme, W. Hujo, H. Kruse,             : VdW corrections, initial TS optimization,
                  C. Bannwarth                     DFT functionals, gCP, sTDA/sTD-DF
   Ed Valeev, F. Pavosevic, A. Kumar             : LibInt (2-el integral package), F12 methods
   Garnet Chan, S. Sharma, J. Yang, R. Olivares  : DMRG
   Ulf Ekstrom                                   : XCFun DFT Library
   Mihaly Kallay                                 : mrcc  (arbitrary order and MRCC methods)
   Andreas Klamt, Michael Diedenhofen            : otool_cosmo (COSMO solvation model)
   Jiri Pittner, Ondrej Demel                    : Mk-CCSD
   Frank Weinhold                                : gennbo (NPA and NBO analysis)
   Christopher J. Cramer and Donald G. Truhlar   : smd solvation model
   Lars Goerigk                                  : TD-DFT with DH, B97 family of functionals
   V. Asgeirsson, H. Jonsson                     : NEB implementation
   FAccTs GmbH                                   : IRC, NEB, NEB-TS, Multilevel, MM, QM/MM, CI optimization
   S Lehtola, MJT Oliveira, MAL Marques          : LibXC Library


 Your calculation uses the libint2 library for the computation of 2-el integrals
 For citations please refer to: http://libint.valeyev.net

 Your ORCA version has been built with support for libXC version: 4.2.3
 For citations please refer to: https://tddft.org/programs/libxc/

 This ORCA versions uses:
   CBLAS   interface :  Fast vector & matrix operations
   LAPACKE interface :  Fast linear algebra routines
   SCALAPACK package :  Parallel linear algebra routines


Your calculation utilizes the atom-pairwise dispersion correction
with the Becke-Johnson damping scheme (D3BJ)
Cite in your paper:
S.Grimme, S.Ehrlich, L.Goerigk, J Comput Chem, (2011), 32, 1456–1465 
S.Grimme, J.Antony, S.Ehrlich and H.Krieg, J.Chem.Phys., 132, (2010), 154104 
   

----- Orbital basis set information -----
Your calculation utilizes the basis: def2-SVP
   F. Weigend and R. Ahlrichs, Phys. Chem. Chem. Phys. 7, 3297 (2005).

----- AuxJ basis set information -----
Your calculation utilizes the auxiliary basis: def2/J
   F. Weigend, Phys. Chem. Chem. Phys. 8, 1057 (2006).

================================================================================
                                        WARNINGS
                       Please study these warnings very carefully!
================================================================================


WARNING: Geometry Optimization
  ===> : Switching off AutoStart
         For restart on a previous wavefunction, please use MOREAD

INFO   : the flag for use of LIBINT has been found!

================================================================================
                                       INPUT FILE
================================================================================
NAME = 75.inp
|  1> !RI BP86 def2-SVP def2/J D3BJ TIGHTSCF TightOpt Grid5 FinalGrid6 freq
|  2> %maxcore 950
|  3> %pal nprocs 16
|  4> end
|  5> * xyz 0 1 
|  6> O 6.54095 0.05465 2.34675 
|  7> C 6.2156 -0.49734 1.28724 
|  8> C 5.92083 0.30689 0.00124 
|  9> C 7.20276 0.91984 -0.55981 
| 10> C 7.30287 2.26455 0.15724 
| 11> C 5.85253 2.70414 0.30273 
| 12> N 5.08486 1.46668 0.32341 
| 13> C 3.73663 1.31455 0.53985 
| 14> O 3.21745 0.194 0.45577 
| 15> N 6.14464 -1.85957 1.28972 
| 16> C 5.62729 -2.77486 0.25404 
| 17> C 4.11919 -3.0835 0.47549 
| 18> N 3.64376 -2.78998 1.73406 
| 19> C 2.29014 -3.11492 2.17921 
| 20> C 1.35308 -1.96 1.76826 
| 21> N 0.80448 -2.09547 0.51032 
| 22> C -0.07445 -1.08901 -0.06563 
| 23> C -1.46048 -1.08087 0.60997 
| 24> C -2.20896 0.24768 0.47737 
| 25> C -1.67714 1.43504 1.27564 
| 26> N -0.77693 1.20625 2.28826 
| 27> C -0.23417 2.30128 3.11136 
| 28> C 0.93526 2.98106 2.36321 
| 29> N 1.73764 2.12825 1.64384 
| 30> C 2.88662 2.56039 0.84926 
| 31> C 2.42536 3.20217 -0.45444 
| 32> O 1.20908 4.17518 2.49841 
| 33> C 0.22584 1.74812 4.46843 
| 34> C 0.68986 2.80624 5.48954 
| 35> C 1.18786 2.11061 6.76003 
| 36> C -0.41531 3.80042 5.84715 
| 37> O -2.09085 2.57891 1.05308 
| 38> C -2.35314 0.61905 -0.99228 
| 39> C -3.72888 0.41186 -1.60769 
| 40> C -3.76234 0.75492 -3.09526 
| 41> C -5.15461 0.53129 -3.6865 
| 42> C -5.18808 0.87525 -5.17648 
| 43> C -6.58081 0.6515 -5.76793 
| 44> C -6.61432 0.99554 -7.25795 
| 45> C -8.00705 0.77193 -7.84944 
| 46> C -8.04047 1.11582 -9.33834 
| 47> C -9.42337 0.89493 -9.93021 
| 48> O -1.40335 1.06451 -1.64776 
| 49> O -2.24882 -2.15769 0.05408 
| 50> O 1.14552 -0.95862 2.45886 
| 51> C 2.28208 -3.33404 3.69572 
| 52> C 0.94953 -3.87176 4.19868 
| 53> O 3.41886 -3.64506 -0.36917 
| 54> C 6.49051 -4.06087 0.21279 
| 55> C 6.29006 -4.83829 -1.09178 
| 56> C 6.27012 -4.99058 1.41082 
| 57> H 5.40667 -0.29763 -0.74621 
| 58> H 7.08946 1.09323 -1.63699 
| 59> H 8.09045 0.2994 -0.40424 
| 60> H 7.7567 2.12978 1.14582 
| 61> H 7.90726 2.99293 -0.39083 
| 62> H 5.68152 3.28483 1.21286 
| 63> H 5.52968 3.29097 -0.56247 
| 64> H 6.37932 -2.27645 2.18528 
| 65> H 5.70638 -2.27377 -0.71373 
| 66> H 4.21214 -2.18188 2.31753 
| 67> H 1.97026 -4.03338 1.67234 
| 68> H 1.10372 -2.87965 -0.06783 
| 69> H -0.15785 -1.32907 -1.13077 
| 70> H 0.42926 -0.1245 0.04145 
| 71> H -1.36025 -1.33029 1.672 
| 72> H -3.22568 0.0928 0.86601 
| 73> H -0.34625 0.29118 2.41829 
| 74> H -1.02849 3.0441 3.23553 
| 75> H 1.52351 1.12985 1.65972 
| 76> H 3.45556 3.27622 1.44875 
| 77> H 1.81098 4.08807 -0.2631 
| 78> H 3.27304 3.50721 -1.0746 
| 79> H 1.82094 2.50316 -1.0445 
| 80> H 1.0486 1.03874 4.30778 
| 81> H -0.59413 1.16359 4.90783 
| 82> H 1.53463 3.3659 5.071 
| 83> H 2.00824 1.42221 6.53079 
| 84> H 1.56107 2.84277 7.48402 
| 85> H 0.38725 1.53728 7.23979 
| 86> H -0.69428 4.4143 4.98574 
| 87> H -1.31264 3.28477 6.20539 
| 88> H -0.08207 4.48451 6.6352 
| 89> H -4.43827 1.0451 -1.06334 
| 90> H -4.01306 -0.6359 -1.46341 
| 91> H -3.02956 0.13966 -3.63218 
| 92> H -3.46337 1.80058 -3.23996 
| 93> H -5.88494 1.14939 -3.15025 
| 94> H -5.45023 -0.51533 -3.54442 
| 95> H -4.45765 0.2572 -5.71265 
| 96> H -4.89244 1.92186 -5.3186 
| 97> H -7.31122 1.26954 -5.23172 
| 98> H -6.87643 -0.39511 -5.62584 
| 99> H -5.88394 0.37747 -7.79417 
|100> H -6.31862 2.04215 -7.40003 
|101> H -8.73761 1.38981 -7.31319 
|102> H -8.30298 -0.27465 -7.70737 
|103> H -7.31477 0.49785 -9.8798 
|104> H -7.74938 2.16239 -9.48556 
|105> H -9.42449 1.14698 -10.99528 
|106> H -9.73137 -0.15056 -9.82818 
|107> H -10.16842 1.52316 -9.43164 
|108> H -3.01198 -2.27716 0.65667 
|109> H 2.51749 -2.40123 4.22311 
|110> H 3.06963 -4.0496 3.9641 
|111> H 0.99976 -4.05234 5.27715 
|112> H 0.13596 -3.16337 4.01513 
|113> H 0.69917 -4.81806 3.70865 
|114> H 7.54468 -3.75062 0.23392 
|115> H 6.45168 -4.19231 -1.96099 
|116> H 7.00467 -5.66607 -1.15784 
|117> H 5.285 -5.26461 -1.16337 
|118> H 6.43674 -4.47106 2.35908 
|119> H 5.25711 -5.40585 1.42176 
|120> H 6.96957 -5.83309 1.37281 
|121> **                         ****END OF INPUT****
================================================================================

                       *****************************
                       * Geometry Optimization Run *
                       *****************************

Geometry optimization settings:
Update method            Update   .... BFGS
Choice of coordinates    CoordSys .... Z-matrix Internals
Initial Hessian          InHess   .... Almoef's Model

Convergence Tolerances:
Energy Change            TolE     ....  1.0000e-06 Eh
Max. Gradient            TolMAXG  ....  1.0000e-04 Eh/bohr
RMS Gradient             TolRMSG  ....  3.0000e-05 Eh/bohr
Max. Displacement        TolMAXD  ....  1.0000e-03 bohr
RMS Displacement         TolRMSD  ....  6.0000e-04 bohr
Strict Convergence                ....  False
------------------------------------------------------------------------------
                        ORCA OPTIMIZATION COORDINATE SETUP
------------------------------------------------------------------------------

The optimization will be done in new redundant internal coordinates
Making redundant internal coordinates   ...  (new redundants) done
Evaluating the initial hessian          ...  (Almloef) done
Evaluating the coordinates              ...  done
Calculating the B-matrix                .... done
Calculating the G-matrix                .... done
Diagonalizing the G-matrix              .... done
Small eigenvalue found = 2.291e-04
Small eigenvalue found = 5.349e-04
Small eigenvalue found = 1.660e-03
Small eigenvalue found = 1.852e-03
Small eigenvalue found = 3.207e-03
Small eigenvalue found = 4.620e-03
Small eigenvalue found = 4.754e-03
Small eigenvalue found = 6.291e-03
Small eigenvalue found = 6.913e-03
Small eigenvalue found = 7.728e-03
Small eigenvalue found = 8.517e-03
Small eigenvalue found = 1.027e-02
Small eigenvalue found = 1.223e-02
Small eigenvalue found = 1.368e-02
Small eigenvalue found = 1.725e-02
Small eigenvalue found = 1.848e-02
Small eigenvalue found = 2.243e-02
Small eigenvalue found = 2.355e-02
Small eigenvalue found = 2.473e-02
Small eigenvalue found = 2.797e-02
Small eigenvalue found = 2.918e-02
The first mode is                       ....  323
The number of degrees of freedom        ....  339

    -----------------------------------------------------------------
                    Redundant Internal Coordinates


    -----------------------------------------------------------------
         Definition                    Initial Value    Approx d2E/dq
    -----------------------------------------------------------------
      1. B(C   1,O   0)                  1.2382         0.977425   
      2. B(C   2,C   1)                  1.5451         0.353359   
      3. B(C   3,C   2)                  1.5277         0.376762   
      4. B(C   4,C   3)                  1.5272         0.377397   
      5. B(C   5,C   4)                  1.5225         0.384063   
      6. B(N   6,C   5)                  1.4564         0.438496   
      7. B(N   6,C   2)                  1.4655         0.424020   
      8. B(C   7,N   6)                  1.3739         0.593604   
      9. B(O   8,C   7)                  1.2378         0.978669   
     10. B(N   9,C   1)                  1.3641         0.615503   
     11. B(C  10,N   9)                  1.4758         0.408280   
     12. B(C  11,C  10)                  1.5552         0.340536   
     13. B(N  12,C  11)                  1.3770         0.586926   
     14. B(C  13,N  12)                  1.4615         0.430303   
     15. B(C  14,C  13)                  1.5430         0.356173   
     16. B(N  15,C  14)                  1.3790         0.582607   
     17. B(C  16,N  15)                  1.4551         0.440633   
     18. B(C  17,C  16)                  1.5419         0.357542   
     19. B(C  18,C  17)                  1.5306         0.372701   
     20. B(C  19,C  18)                  1.5264         0.378551   
     21. B(N  20,C  19)                  1.3741         0.593280   
     22. B(C  21,N  20)                  1.4735         0.411787   
     23. B(C  22,C  21)                  1.5458         0.352551   
     24. B(N  23,C  22)                  1.3743         0.592907   
     25. B(C  24,N  23)                  1.4623         0.429102   
     26. B(C  24,C   7)                  1.5396         0.360629   
     27. B(C  25,C  24)                  1.5246         0.381119   
     28. B(O  26,C  22)                  1.2325         0.997877   
     29. B(C  27,C  21)                  1.5360         0.365458   
     30. B(C  28,C  27)                  1.5419         0.357535   
     31. B(C  29,C  28)                  1.5317         0.371273   
     32. B(C  30,C  28)                  1.5289         0.375022   
     33. B(O  31,C  19)                  1.2366         0.983216   
     34. B(C  32,C  18)                  1.5227         0.383747   
     35. B(C  33,C  32)                  1.5213         0.385724   
     36. B(C  34,C  33)                  1.5270         0.377739   
     37. B(C  35,C  34)                  1.5290         0.374882   
     38. B(C  36,C  35)                  1.5295         0.374217   
     39. B(C  37,C  36)                  1.5296         0.374170   
     40. B(C  38,C  37)                  1.5296         0.374138   
     41. B(C  39,C  38)                  1.5296         0.374177   
     42. B(C  40,C  39)                  1.5285         0.375689   
     43. B(C  41,C  40)                  1.5204         0.387032   
     44. B(O  42,C  32)                  1.2370         0.981666   
     45. B(O  43,C  17)                  1.4457         0.456055   
     46. B(O  44,C  14)                  1.2340         0.992553   
     47. B(C  45,C  13)                  1.5323         0.370459   
     48. B(C  46,C  45)                  1.5224         0.384106   
     49. B(O  47,C  11)                  1.2326         0.997754   
     50. B(C  48,C  10)                  1.5494         0.347864   
     51. B(C  49,C  48)                  1.5318         0.371089   
     52. B(C  50,C  48)                  1.5324         0.370314   
     53. B(H  51,C   2)                  1.0902         0.359866   
     54. B(H  52,C   3)                  1.0969         0.351070   
     55. B(H  53,C   3)                  1.0941         0.354665   
     56. B(H  54,C   4)                  1.0961         0.352132   
     57. B(H  55,C   4)                  1.0937         0.355223   
     58. B(H  56,C   5)                  1.0931         0.356074   
     59. B(H  57,C   5)                  1.0942         0.354647   
     60. B(H  58,N   9)                  1.0153         0.424321   
     61. B(H  59,C  10)                  1.0927         0.356587   
     62. B(H  60,N  12)                  1.0165         0.422493   
     63. B(H  61,C  13)                  1.0967         0.351311   
     64. B(H  62,N  15)                  1.0192         0.418349   
     65. B(H  63,C  16)                  1.0950         0.353497   
     66. B(H  64,C  16)                  1.0934         0.355663   
     67. B(H  65,C  17)                  1.0955         0.352871   
     68. B(H  66,C  18)                  1.0994         0.347838   
     69. B(H  67,N  20)                  1.0197         0.417592   
     70. B(H  68,C  21)                  1.0946         0.354069   
     71. B(H  69,O  44)                  2.2679         0.004259   
     72. B(H  69,N  23)                  1.0212         0.415223   
     73. B(H  70,C  24)                  1.0934         0.355648   
     74. B(H  71,C  25)                  1.0949         0.353625   
     75. B(H  72,C  25)                  1.0937         0.355221   
     76. B(H  73,C  25)                  1.0964         0.351723   
     77. B(H  74,C  27)                  1.0982         0.349461   
     78. B(H  75,C  27)                  1.0987         0.348798   
     79. B(H  76,C  28)                  1.0964         0.351769   
     80. B(H  77,C  29)                  1.0952         0.353283   
     81. B(H  78,C  29)                  1.0952         0.353261   
     82. B(H  79,C  29)                  1.0954         0.353055   
     83. B(H  80,C  30)                  1.0939         0.354928   
     84. B(H  81,C  30)                  1.0952         0.353305   
     85. B(H  82,C  30)                  1.0955         0.352938   
     86. B(H  83,C  33)                  1.0957         0.352647   
     87. B(H  84,C  33)                  1.0952         0.353338   
     88. B(H  85,C  34)                  1.0972         0.350732   
     89. B(H  86,C  34)                  1.0971         0.350772   
     90. B(H  87,C  35)                  1.0968         0.351202   
     91. B(H  88,C  35)                  1.0968         0.351203   
     92. B(H  89,C  36)                  1.0968         0.351203   
     93. B(H  90,C  36)                  1.0968         0.351202   
     94. B(H  91,C  37)                  1.0968         0.351202   
     95. B(H  92,C  37)                  1.0968         0.351214   
     96. B(H  93,C  38)                  1.0968         0.351200   
     97. B(H  94,C  38)                  1.0968         0.351188   
     98. B(H  95,C  39)                  1.0968         0.351164   
     99. B(H  96,C  39)                  1.0969         0.351147   
    100. B(H  97,C  40)                  1.0962         0.351960   
    101. B(H  98,C  40)                  1.0962         0.351955   
    102. B(H  99,C  41)                  1.0945         0.354211   
    103. B(H 100,C  41)                  1.0947         0.353962   
    104. B(H 101,C  41)                  1.0947         0.353950   
    105. B(H 102,O  43)                  0.9797         0.483666   
    106. B(H 103,C  45)                  1.0971         0.350791   
    107. B(H 104,C  45)                  1.0974         0.350441   
    108. B(H 105,C  46)                  1.0946         0.354018   
    109. B(H 106,H  67)                  3.8362         0.000003   
    110. B(H 106,C  46)                  1.0943         0.354510   
    111. B(H 107,C  46)                  1.0947         0.353980   
    112. B(H 108,C  48)                  1.0991         0.348287   
    113. B(H 109,C  49)                  1.0950         0.353598   
    114. B(H 110,C  49)                  1.0956         0.352820   
    115. B(H 111,C  49)                  1.0941         0.354738   
    116. B(H 112,C  50)                  1.0940         0.354833   
    117. B(H 113,C  50)                  1.0949         0.353704   
    118. B(H 114,C  50)                  1.0957         0.352674   
    119. A(O   0,C   1,N   9)          117.2139         0.464625   
    120. A(C   2,C   1,N   9)          120.7553         0.389838   
    121. A(O   0,C   1,C   2)          122.0239         0.423036   
    122. A(C   1,C   2,H  51)          111.8383         0.321340   
    123. A(N   6,C   2,H  51)          108.6948         0.329135   
    124. A(C   1,C   2,N   6)          109.7407         0.365504   
    125. A(C   1,C   2,C   3)          110.7574         0.360440   
    126. A(C   3,C   2,H  51)          111.4967         0.324737   
    127. A(C   3,C   2,N   6)          103.9970         0.369546   
    128. A(C   4,C   3,H  53)          112.2934         0.324051   
    129. A(C   4,C   3,H  52)          109.1872         0.323510   
    130. A(C   2,C   3,C   4)          103.6419         0.364514   
    131. A(C   2,C   3,H  53)          113.6445         0.323962   
    132. A(C   2,C   3,H  52)          109.7183         0.323420   
    133. A(H  52,C   3,H  53)          108.2439         0.288993   
    134. A(H  54,C   4,H  55)          107.7606         0.289201   
    135. A(C   3,C   4,H  55)          112.7883         0.324135   
    136. A(C   3,C   4,C   5)          103.6890         0.365713   
    137. A(C   3,C   4,H  54)          110.0194         0.323670   
    138. A(C   5,C   4,H  55)          112.4591         0.325069   
    139. A(C   5,C   4,H  54)          110.1051         0.324602   
    140. A(H  56,C   5,H  57)          109.1062         0.289632   
    141. A(C   4,C   5,N   6)          104.9609         0.372917   
    142. A(C   4,C   5,H  56)          112.4576         0.325196   
    143. A(N   6,C   5,H  57)          108.1440         0.330167   
    144. A(N   6,C   5,H  56)          110.9225         0.330387   
    145. A(C   4,C   5,H  57)          111.1237         0.324982   
    146. A(C   5,N   6,C   7)          127.8474         0.399743   
    147. A(C   2,N   6,C   7)          120.4479         0.397391   
    148. A(C   2,N   6,C   5)          111.6309         0.376959   
    149. A(O   8,C   7,C  24)          120.9714         0.424676   
    150. A(N   6,C   7,O   8)          120.0734         0.461665   
    151. A(N   6,C   7,C  24)          118.9356         0.388760   
    152. A(C   1,N   9,C  10)          129.5173         0.397279   
    153. A(C  10,N   9,H  58)          116.4470         0.333254   
    154. A(C   1,N   9,H  58)          113.5538         0.357035   
    155. A(C  48,C  10,H  59)          108.4650         0.320038   
    156. A(C  11,C  10,H  59)          106.6974         0.318928   
    157. A(N   9,C  10,C  11)          111.2899         0.360862   
    158. A(N   9,C  10,C  48)          109.7636         0.362176   
    159. A(N   9,C  10,H  59)          108.1654         0.326595   
    160. A(C  11,C  10,C  48)          112.2919         0.353360   
    161. A(N  12,C  11,O  47)          121.8213         0.462341   
    162. A(C  10,C  11,O  47)          122.9433         0.421800   
    163. A(C  10,C  11,N  12)          115.0017         0.384138   
    164. A(C  13,N  12,H  60)          118.4276         0.335934   
    165. A(C  11,N  12,C  13)          123.4192         0.397628   
    166. A(C  11,N  12,H  60)          117.3281         0.353907   
    167. A(C  14,C  13,C  45)          111.5576         0.359891   
    168. A(N  12,C  13,H  61)          108.3947         0.328627   
    169. A(C  14,C  13,H  61)          109.0632         0.320493   
    170. A(N  12,C  13,C  14)          108.3569         0.366924   
    171. A(C  45,C  13,H  61)          109.6405         0.322563   
    172. A(N  12,C  13,C  45)          109.7619         0.369409   
    173. A(C  13,C  14,N  15)          114.2685         0.386655   
    174. A(N  15,C  14,O  44)          121.5541         0.461276   
    175. A(C  13,C  14,O  44)          124.0899         0.424801   
    176. A(C  14,N  15,H  62)          118.4400         0.352875   
    177. A(C  16,N  15,H  62)          119.0137         0.336710   
    178. A(C  14,N  15,C  16)          122.2368         0.398772   
    179. A(H  63,C  16,H  64)          108.8890         0.289432   
    180. A(C  17,C  16,H  64)          111.5026         0.321341   
    181. A(N  15,C  16,H  63)          106.2236         0.330256   
    182. A(C  17,C  16,H  63)          111.0316         0.321020   
    183. A(N  15,C  16,C  17)          111.9127         0.368663   
    184. A(N  15,C  16,H  64)          107.0452         0.330589   
    185. A(O  43,C  17,H  65)          104.6592         0.332044   
    186. A(C  18,C  17,H  65)          109.0465         0.323117   
    187. A(C  16,C  17,H  65)          109.9569         0.320927   
    188. A(C  16,C  17,C  18)          113.9651         0.360497   
    189. A(C  18,C  17,O  43)          110.2760         0.373511   
    190. A(C  16,C  17,O  43)          108.5274         0.370849   
    191. A(C  19,C  18,H  66)          104.2952         0.323181   
    192. A(C  17,C  18,H  66)          107.4164         0.322357   
    193. A(C  17,C  18,C  32)          109.9748         0.364879   
    194. A(C  17,C  18,C  19)          117.3549         0.364029   
    195. A(C  19,C  18,C  32)          110.3670         0.365853   
    196. A(C  32,C  18,H  66)          106.7366         0.323905   
    197. A(C  18,C  19,N  20)          118.9561         0.392031   
    198. A(N  20,C  19,O  31)          120.3868         0.462010   
    199. A(C  18,C  19,O  31)          120.5888         0.428737   
    200. A(C  19,N  20,H  67)          121.3392         0.353853   
    201. A(C  19,N  20,C  21)          121.9540         0.395317   
    202. A(C  21,N  20,H  67)          116.1103         0.332843   
    203. A(C  27,C  21,H  68)          111.1925         0.322258   
    204. A(C  22,C  21,H  68)          107.7862         0.320368   
    205. A(N  20,C  21,H  68)          107.4809         0.326674   
    206. A(N  20,C  21,C  22)          109.5799         0.363535   
    207. A(C  22,C  21,C  27)          111.0649         0.358435   
    208. A(N  20,C  21,C  27)          109.6468         0.365779   
    209. A(C  21,C  22,N  23)          114.9714         0.387147   
    210. A(C  21,C  22,O  26)          122.7543         0.424431   
    211. A(N  23,C  22,O  26)          121.9325         0.463209   
    212. A(C  22,N  23,C  24)          124.0432         0.398142   
    213. A(C  24,N  23,H  69)          117.5242         0.334810   
    214. A(C  22,N  23,H  69)          118.4326         0.353475   
    215. A(C  25,C  24,H  70)          110.5296         0.324721   
    216. A(N  23,C  24,H  70)          107.7225         0.329141   
    217. A(C   7,C  24,H  70)          110.6513         0.321791   
    218. A(N  23,C  24,C  25)          110.5694         0.371037   
    219. A(C   7,C  24,N  23)          107.6904         0.367531   
    220. A(C   7,C  24,C  25)          109.6228         0.362405   
    221. A(H  71,C  25,H  73)          107.4907         0.288944   
    222. A(C  24,C  25,H  73)          111.0154         0.324130   
    223. A(H  71,C  25,H  72)          107.9578         0.289392   
    224. A(C  24,C  25,H  72)          111.5796         0.324657   
    225. A(C  24,C  25,H  71)          111.1570         0.324417   
    226. A(H  72,C  25,H  73)          107.4527         0.289148   
    227. A(C  28,C  27,H  75)          108.9557         0.320317   
    228. A(C  21,C  27,C  28)          115.3457         0.359293   
    229. A(H  74,C  27,H  75)          105.9017         0.288032   
    230. A(C  21,C  27,H  75)          108.7498         0.321468   
    231. A(C  28,C  27,H  74)          108.3423         0.320417   
    232. A(C  21,C  27,H  74)          109.1334         0.321568   
    233. A(C  29,C  28,C  30)          109.6529         0.363208   
    234. A(C  27,C  28,C  30)          112.5553         0.360878   
    235. A(C  27,C  28,C  29)          109.6019         0.360260   
    236. A(C  30,C  28,H  76)          108.3195         0.323280   
    237. A(C  29,C  28,H  76)          107.3355         0.322748   
    238. A(C  27,C  28,H  76)          109.2301         0.320762   
    239. A(C  28,C  29,H  79)          111.3073         0.322941   
    240. A(H  78,C  29,H  79)          108.0252         0.289069   
    241. A(H  77,C  29,H  79)          108.0697         0.289071   
    242. A(H  77,C  29,H  78)          107.6563         0.289098   
    243. A(C  28,C  29,H  78)          110.8243         0.322972   
    244. A(C  28,C  29,H  77)          110.8176         0.322976   
    245. A(H  81,C  30,H  82)          107.9360         0.289059   
    246. A(H  80,C  30,H  82)          107.0739         0.289267   
    247. A(C  28,C  30,H  82)          110.7584         0.323456   
    248. A(H  80,C  30,H  81)          108.2309         0.289314   
    249. A(C  28,C  30,H  81)          111.2598         0.323512   
    250. A(C  28,C  30,H  80)          111.4105         0.323755   
    251. A(C  33,C  32,O  42)          121.9405         0.430062   
    252. A(C  18,C  32,O  42)          121.7733         0.429665   
    253. A(C  18,C  32,C  33)          116.2861         0.367032   
    254. A(C  32,C  33,C  34)          112.5388         0.366040   
    255. A(C  34,C  33,H  84)          109.7306         0.323900   
    256. A(H  83,C  33,H  84)          108.6308         0.289026   
    257. A(C  32,C  33,H  84)          108.1596         0.325015   
    258. A(C  34,C  33,H  83)          109.8742         0.323796   
    259. A(C  32,C  33,H  83)          107.8066         0.324910   
    260. A(C  33,C  34,C  35)          111.3329         0.364258   
    261. A(H  85,C  34,H  86)          106.7332         0.288450   
    262. A(C  35,C  34,H  86)          109.6648         0.323110   
    263. A(C  33,C  34,H  86)          109.6720         0.323513   
    264. A(C  35,C  34,H  85)          109.6879         0.323104   
    265. A(C  33,C  34,H  85)          109.6404         0.323507   
    266. A(C  34,C  35,C  36)          111.3281         0.363675   
    267. A(H  87,C  35,H  88)          107.1547         0.288566   
    268. A(C  36,C  35,H  88)          109.5653         0.323081   
    269. A(C  34,C  35,H  88)          109.5658         0.323175   
    270. A(C  36,C  35,H  87)          109.5710         0.323081   
    271. A(C  34,C  35,H  87)          109.5623         0.323175   
    272. A(C  35,C  36,C  37)          111.3281         0.363557   
    273. A(H  89,C  36,H  90)          107.1490         0.288566   
    274. A(C  37,C  36,H  90)          109.5674         0.323074   
    275. A(C  35,C  36,H  90)          109.5673         0.323081   
    276. A(C  37,C  36,H  89)          109.5680         0.323074   
    277. A(C  35,C  36,H  89)          109.5672         0.323081   
    278. A(C  36,C  37,C  38)          111.3289         0.363544   
    279. A(H  91,C  37,H  92)          107.1502         0.288568   
    280. A(C  38,C  37,H  92)          109.5679         0.323072   
    281. A(C  36,C  37,H  92)          109.5672         0.323076   
    282. A(C  38,C  37,H  91)          109.5666         0.323070   
    283. A(C  36,C  37,H  91)          109.5662         0.323074   
    284. A(C  37,C  38,C  39)          111.3318         0.363545   
    285. A(H  93,C  38,H  94)          107.1491         0.288564   
    286. A(C  39,C  38,H  94)          109.5656         0.323073   
    287. A(C  37,C  38,H  94)          109.5669         0.323068   
    288. A(C  39,C  38,H  93)          109.5666         0.323075   
    289. A(C  37,C  38,H  93)          109.5668         0.323069   
    290. A(C  38,C  39,C  40)          111.3284         0.363802   
    291. A(H  95,C  39,H  96)          107.1264         0.288554   
    292. A(C  40,C  39,H  96)          109.5696         0.323281   
    293. A(C  38,C  39,H  96)          109.5766         0.323067   
    294. A(C  40,C  39,H  95)          109.5691         0.323283   
    295. A(C  38,C  39,H  95)          109.5761         0.323070   
    296. A(C  39,C  40,C  41)          111.4948         0.365911   
    297. A(H  97,C  40,H  98)          107.2217         0.288760   
    298. A(C  41,C  40,H  98)          109.1446         0.324986   
    299. A(C  39,C  40,H  98)          109.8655         0.323403   
    300. A(C  41,C  40,H  97)          109.1448         0.324987   
    301. A(C  39,C  40,H  97)          109.8671         0.323404   
    302. A(H 100,C  41,H 101)          108.3099         0.289273   
    303. A(H  99,C  41,H 101)          108.0800         0.289305   
    304. A(C  40,C  41,H 101)          111.0011         0.325288   
    305. A(H  99,C  41,H 100)          108.0806         0.289307   
    306. A(C  40,C  41,H 100)          111.0017         0.325290   
    307. A(C  40,C  41,H  99)          110.2614         0.325328   
    308. A(C  17,O  43,H 102)          106.2066         0.346980   
    309. A(C  13,C  45,C  46)          112.4625         0.364560   
    310. A(C  46,C  45,H 104)          108.4844         0.324351   
    311. A(C  13,C  45,H 104)          109.3606         0.322432   
    312. A(C  46,C  45,H 103)          109.2262         0.324405   
    313. A(C  13,C  45,H 103)          110.6733         0.322485   
    314. A(H 103,C  45,H 104)          106.4301         0.288416   
    315. A(H 106,C  46,H 107)          108.3304         0.289347   
    316. A(H 105,C  46,H 107)          107.9946         0.289284   
    317. A(C  45,C  46,H 107)          110.9542         0.324887   
    318. A(H 105,C  46,H 106)          107.8288         0.289352   
    319. A(C  45,C  46,H 106)          111.5119         0.324967   
    320. A(C  45,C  46,H 105)          110.0957         0.324893   
    321. A(C  50,C  48,H 108)          107.1082         0.322086   
    322. A(C  49,C  48,H 108)          106.5676         0.322196   
    323. A(C  10,C  48,H 108)          107.4310         0.318810   
    324. A(C  49,C  48,C  50)          109.8215         0.362394   
    325. A(C  10,C  48,C  50)          113.7424         0.358424   
    326. A(C  10,C  48,C  49)          111.7777         0.358552   
    327. A(H 110,C  49,H 111)          107.5081         0.289227   
    328. A(H 109,C  49,H 111)          108.2723         0.289327   
    329. A(C  48,C  49,H 111)          111.9436         0.323167   
    330. A(H 109,C  49,H 110)          107.5546         0.289082   
    331. A(C  48,C  49,H 110)          110.4545         0.322880   
    332. A(C  48,C  49,H 109)          110.9366         0.322996   
    333. A(H 113,C  50,H 114)          107.4180         0.289077   
    334. A(H 112,C  50,H 114)          107.3373         0.289221   
    335. A(C  48,C  50,H 114)          110.3400         0.322747   
    336. A(H 112,C  50,H 113)          108.2019         0.289353   
    337. A(C  48,C  50,H 113)          111.7769         0.322902   
    338. A(C  48,C  50,H 112)          111.5698         0.323070   
    339. D(H  51,C   2,C   1,N   9)     15.8726         0.009419   
    340. D(C   3,C   2,C   1,N   9)   -109.1620         0.009419   
    341. D(N   6,C   2,C   1,N   9)    136.5815         0.009419   
    342. D(N   6,C   2,C   1,O   0)    -44.4017         0.009419   
    343. D(C   3,C   2,C   1,O   0)     69.8547         0.009419   
    344. D(H  51,C   2,C   1,O   0)   -165.1107         0.009419   
    345. D(C   4,C   3,C   2,N   6)     29.6250         0.011324   
    346. D(H  53,C   3,C   2,H  51)    -91.2581         0.011324   
    347. D(H  53,C   3,C   2,C   1)     33.9693         0.011324   
    348. D(C   4,C   3,C   2,H  51)    146.5746         0.011324   
    349. D(H  53,C   3,C   2,N   6)    151.7922         0.011324   
    350. D(H  52,C   3,C   2,H  51)     30.0713         0.011324   
    351. D(C   4,C   3,C   2,C   1)    -88.1980         0.011324   
    352. D(H  52,C   3,C   2,C   1)    155.2988         0.011324   
    353. D(H  52,C   3,C   2,N   6)    -86.8783         0.011324   
    354. D(H  55,C   4,C   3,H  53)     80.1195         0.011360   
    355. D(H  55,C   4,C   3,H  52)    -39.9418         0.011360   
    356. D(H  54,C   4,C   3,H  52)   -160.2876         0.011360   
    357. D(H  55,C   4,C   3,C   2)   -156.8182         0.011360   
    358. D(H  54,C   4,C   3,H  53)    -40.2262         0.011360   
    359. D(C   5,C   4,C   3,C   2)    -34.8930         0.011360   
    360. D(H  54,C   4,C   3,C   2)     82.8360         0.011360   
    361. D(C   5,C   4,C   3,H  53)   -157.9552         0.011360   
    362. D(C   5,C   4,C   3,H  52)     81.9834         0.011360   
    363. D(N   6,C   5,C   4,C   3)     26.8973         0.011743   
    364. D(H  57,C   5,C   4,C   3)    -89.7689         0.011743   
    365. D(H  56,C   5,C   4,H  55)    -90.2664         0.011743   
    366. D(H  56,C   5,C   4,C   3)    147.5891         0.011743   
    367. D(H  57,C   5,C   4,H  54)    152.5617         0.011743   
    368. D(H  56,C   5,C   4,H  54)     29.9197         0.011743   
    369. D(H  57,C   5,C   4,H  55)     32.3756         0.011743   
    370. D(N   6,C   5,C   4,H  54)    -90.7721         0.011743   
    371. D(N   6,C   5,C   4,H  55)    149.0418         0.011743   
    372. D(C   5,N   6,C   2,C   3)    -13.3504         0.015329   
    373. D(C   7,N   6,C   5,H  57)    -66.7126         0.016395   
    374. D(C   7,N   6,C   5,H  56)     52.8943         0.016395   
    375. D(C   7,N   6,C   5,C   4)    174.5946         0.016395   
    376. D(C   2,N   6,C   5,H  57)    110.1387         0.016395   
    377. D(C   2,N   6,C   5,H  56)   -130.2545         0.016395   
    378. D(C   7,N   6,C   2,H  51)     44.8811         0.015329   
    379. D(C   2,N   6,C   5,C   4)     -8.5542         0.016395   
    380. D(C   7,N   6,C   2,C   3)    163.7656         0.015329   
    381. D(C   5,N   6,C   2,C   1)    105.1728         0.015329   
    382. D(C   7,N   6,C   2,C   1)    -77.7111         0.015329   
    383. D(C   5,N   6,C   2,H  51)   -132.2350         0.015329   
    384. D(C  24,C   7,N   6,C   5)     -2.2295         0.028350   
    385. D(C  24,C   7,N   6,C   2)   -178.8340         0.028350   
    386. D(O   8,C   7,N   6,C   5)    176.1741         0.028350   
    387. D(O   8,C   7,N   6,C   2)     -0.4304         0.028350   
    388. D(H  58,N   9,C   1,O   0)     -0.3638         0.030642   
    389. D(C  10,N   9,C   1,C   2)     -9.6623         0.030642   
    390. D(H  58,N   9,C   1,C   2)    178.6988         0.030642   
    391. D(C  10,N   9,C   1,O   0)    171.2751         0.030642   
    392. D(H  59,C  10,N   9,C   1)     25.4742         0.014222   
    393. D(C  48,C  10,N   9,H  58)    -44.9172         0.014222   
    394. D(C  48,C  10,N   9,C   1)    143.6446         0.014222   
    395. D(C  11,C  10,N   9,C   1)    -91.4233         0.014222   
    396. D(H  59,C  10,N   9,H  58)   -163.0876         0.014222   
    397. D(C  11,C  10,N   9,H  58)     80.0149         0.014222   
    398. D(O  47,C  11,C  10,N   9)    168.1192         0.008809   
    399. D(N  12,C  11,C  10,H  59)   -135.1389         0.008809   
    400. D(N  12,C  11,C  10,C  48)    106.1527         0.008809   
    401. D(N  12,C  11,C  10,N   9)    -17.3500         0.008809   
    402. D(O  47,C  11,C  10,H  59)     50.3302         0.008809   
    403. D(O  47,C  11,C  10,C  48)    -68.3782         0.008809   
    404. D(H  60,N  12,C  11,O  47)   -169.2162         0.027673   
    405. D(H  60,N  12,C  11,C  10)     16.1852         0.027673   
    406. D(C  13,N  12,C  11,O  47)      0.2005         0.027673   
    407. D(C  13,N  12,C  11,C  10)   -174.3981         0.027673   
    408. D(H  61,C  13,N  12,C  11)     31.6779         0.015786   
    409. D(H  61,C  13,N  12,H  60)   -159.0146         0.015786   
    410. D(C  45,C  13,N  12,H  60)    -39.2883         0.015786   
    411. D(C  45,C  13,N  12,C  11)    151.4043         0.015786   
    412. D(C  14,C  13,N  12,C  11)    -86.5513         0.015786   
    413. D(C  14,C  13,N  12,H  60)     82.7561         0.015786   
    414. D(O  44,C  14,C  13,C  45)     33.1774         0.009556   
    415. D(O  44,C  14,C  13,N  12)    -87.7617         0.009556   
    416. D(N  15,C  14,C  13,H  61)    -28.9284         0.009556   
    417. D(N  15,C  14,C  13,C  45)   -150.1861         0.009556   
    418. D(O  44,C  14,C  13,H  61)    154.4351         0.009556   
    419. D(N  15,C  14,C  13,N  12)     88.8748         0.009556   
    420. D(H  62,N  15,C  14,O  44)    171.9953         0.027240   
    421. D(H  62,N  15,C  14,C  13)     -4.7360         0.027240   
    422. D(C  16,N  15,C  14,O  44)     -1.5490         0.027240   
    423. D(C  16,N  15,C  14,C  13)   -178.2803         0.027240   
    424. D(H  64,C  16,N  15,H  62)   -123.1217         0.016556   
    425. D(H  64,C  16,N  15,C  14)     50.3870         0.016556   
    426. D(H  63,C  16,N  15,H  62)     -6.8988         0.016556   
    427. D(H  63,C  16,N  15,C  14)    166.6098         0.016556   
    428. D(C  17,C  16,N  15,C  14)    -72.0634         0.016556   
    429. D(C  17,C  16,N  15,H  62)    114.4280         0.016556   
    430. D(H  65,C  17,C  16,H  64)    -85.9768         0.010266   
    431. D(H  65,C  17,C  16,H  63)    152.4044         0.010266   
    432. D(H  65,C  17,C  16,N  15)     33.8951         0.010266   
    433. D(O  43,C  17,C  16,H  64)    160.0917         0.010266   
    434. D(O  43,C  17,C  16,H  63)     38.4730         0.010266   
    435. D(O  43,C  17,C  16,N  15)    -80.0364         0.010266   
    436. D(C  18,C  17,C  16,H  64)     36.7982         0.010266   
    437. D(C  18,C  17,C  16,H  63)    -84.8205         0.010266   
    438. D(C  18,C  17,C  16,N  15)    156.6701         0.010266   
    439. D(H  66,C  18,C  17,H  65)    -64.5323         0.011095   
    440. D(H  66,C  18,C  17,O  43)     49.8582         0.011095   
    441. D(H  66,C  18,C  17,C  16)    172.1966         0.011095   
    442. D(C  32,C  18,C  17,O  43)    -65.9365         0.011095   
    443. D(C  32,C  18,C  17,C  16)     56.4020         0.011095   
    444. D(C  32,C  18,C  17,H  65)    179.6731         0.011095   
    445. D(C  19,C  18,C  17,H  65)     52.4461         0.011095   
    446. D(C  19,C  18,C  17,O  43)    166.8366         0.011095   
    447. D(C  19,C  18,C  17,C  16)    -70.8250         0.011095   
    448. D(O  31,C  19,C  18,H  66)    -73.1999         0.010698   
    449. D(O  31,C  19,C  18,C  32)     41.1047         0.010698   
    450. D(O  31,C  19,C  18,C  17)    168.1413         0.010698   
    451. D(N  20,C  19,C  18,H  66)    103.8065         0.010698   
    452. D(N  20,C  19,C  18,C  17)    -14.8523         0.010698   
    453. D(N  20,C  19,C  18,C  32)   -141.8889         0.010698   
    454. D(H  67,N  20,C  19,O  31)   -173.0111         0.028317   
    455. D(H  67,N  20,C  19,C  18)      9.9763         0.028317   
    456. D(C  21,N  20,C  19,O  31)     -2.2123         0.028317   
    457. D(C  21,N  20,C  19,C  18)   -179.2249         0.028317   
    458. D(H  68,C  21,N  20,H  67)   -153.8539         0.014464   
    459. D(H  68,C  21,N  20,C  19)     34.8945         0.014464   
    460. D(C  27,C  21,N  20,H  67)    -32.8653         0.014464   
    461. D(C  27,C  21,N  20,C  19)    155.8830         0.014464   
    462. D(C  22,C  21,N  20,H  67)     89.2786         0.014464   
    463. D(C  22,C  21,N  20,C  19)    -81.9731         0.014464   
    464. D(N  23,C  22,C  21,C  27)     84.0565         0.009379   
    465. D(N  23,C  22,C  21,N  20)    -37.2362         0.009379   
    466. D(O  26,C  22,C  21,H  68)     32.6895         0.009379   
    467. D(O  26,C  22,C  21,C  27)    -89.3426         0.009379   
    468. D(O  26,C  22,C  21,N  20)    149.3647         0.009379   
    469. D(N  23,C  22,C  21,H  68)   -153.9114         0.009379   
    470. D(H  69,N  23,C  22,O  26)    172.6728         0.028279   
    471. D(H  69,N  23,C  22,C  21)     -0.7863         0.028279   
    472. D(C  24,N  23,C  22,O  26)     -7.4006         0.028279   
    473. D(C  24,N  23,C  22,C  21)    179.1403         0.028279   
    474. D(H  70,C  24,N  23,H  69)   -135.2547         0.015698   
    475. D(H  70,C  24,N  23,C  22)     44.8181         0.015698   
    476. D(C  25,C  24,N  23,H  69)    103.8709         0.015698   
    477. D(C  25,C  24,N  23,C  22)    -76.0563         0.015698   
    478. D(C   7,C  24,N  23,H  69)    -15.8774         0.015698   
    479. D(C   7,C  24,N  23,C  22)    164.1954         0.015698   
    480. D(H  70,C  24,C   7,O   8)    146.1908         0.009777   
    481. D(H  70,C  24,C   7,N   6)    -35.4204         0.009777   
    482. D(C  25,C  24,C   7,O   8)    -91.6512         0.009777   
    483. D(C  25,C  24,C   7,N   6)     86.7376         0.009777   
    484. D(N  23,C  24,C   7,O   8)     28.6958         0.009777   
    485. D(N  23,C  24,C   7,N   6)   -152.9154         0.009777   
    486. D(H  73,C  25,C  24,H  70)   -177.8068         0.011573   
    487. D(H  73,C  25,C  24,N  23)    -58.6165         0.011573   
    488. D(H  73,C  25,C  24,C   7)     59.9626         0.011573   
    489. D(H  72,C  25,C  24,H  70)     62.3615         0.011573   
    490. D(H  72,C  25,C  24,N  23)   -178.4482         0.011573   
    491. D(H  72,C  25,C  24,C   7)    -59.8691         0.011573   
    492. D(H  71,C  25,C  24,H  70)    -58.2084         0.011573   
    493. D(H  71,C  25,C  24,N  23)     60.9819         0.011573   
    494. D(H  71,C  25,C  24,C   7)    179.5609         0.011573   
    495. D(H  75,C  27,C  21,H  68)     67.2019         0.010693   
    496. D(H  75,C  27,C  21,C  22)   -172.7703         0.010693   
    497. D(H  75,C  27,C  21,N  20)    -51.5168         0.010693   
    498. D(H  74,C  27,C  21,H  68)   -177.7089         0.010693   
    499. D(H  74,C  27,C  21,C  22)    -57.6811         0.010693   
    500. D(H  74,C  27,C  21,N  20)     63.5723         0.010693   
    501. D(C  28,C  27,C  21,H  68)    -55.5069         0.010693   
    502. D(C  28,C  27,C  21,C  22)     64.5209         0.010693   
    503. D(C  28,C  27,C  21,N  20)   -174.2257         0.010693   
    504. D(H  76,C  28,C  27,H  75)    177.7656         0.010266   
    505. D(H  76,C  28,C  27,H  74)     62.9893         0.010266   
    506. D(H  76,C  28,C  27,C  21)    -59.6353         0.010266   
    507. D(C  30,C  28,C  27,H  75)    -61.8802         0.010266   
    508. D(C  30,C  28,C  27,H  74)   -176.6565         0.010266   
    509. D(C  30,C  28,C  27,C  21)     60.7189         0.010266   
    510. D(C  29,C  28,C  27,H  75)     60.4293         0.010266   
    511. D(C  29,C  28,C  27,H  74)    -54.3469         0.010266   
    512. D(C  29,C  28,C  27,C  21)   -176.9715         0.010266   
    513. D(H  79,C  29,C  28,C  30)     61.9464         0.011015   
    514. D(H  79,C  29,C  28,C  27)    -62.0774         0.011015   
    515. D(H  78,C  29,C  28,H  76)     59.1603         0.011015   
    516. D(H  78,C  29,C  28,C  30)    -58.2987         0.011015   
    517. D(H  78,C  29,C  28,C  27)    177.6774         0.011015   
    518. D(H  77,C  29,C  28,H  76)    -60.2977         0.011015   
    519. D(H  77,C  29,C  28,C  30)   -177.7567         0.011015   
    520. D(H  79,C  29,C  28,H  76)    179.4054         0.011015   
    521. D(H  77,C  29,C  28,C  27)     58.2195         0.011015   
    522. D(H  82,C  30,C  28,H  76)    -63.9422         0.011225   
    523. D(H  82,C  30,C  28,C  29)     52.8997         0.011225   
    524. D(H  82,C  30,C  28,C  27)    175.1805         0.011225   
    525. D(H  81,C  30,C  28,H  76)    176.0011         0.011225   
    526. D(H  81,C  30,C  28,C  29)    -67.1570         0.011225   
    527. D(H  81,C  30,C  28,C  27)     55.1238         0.011225   
    528. D(H  80,C  30,C  28,H  76)     55.1282         0.011225   
    529. D(H  80,C  30,C  28,C  29)    171.9701         0.011225   
    530. D(H  80,C  30,C  28,C  27)    -65.7491         0.011225   
    531. D(O  42,C  32,C  18,H  66)    168.0414         0.010976   
    532. D(O  42,C  32,C  18,C  19)     55.2938         0.010976   
    533. D(O  42,C  32,C  18,C  17)    -75.7360         0.010976   
    534. D(C  33,C  32,C  18,H  66)    -11.9486         0.010976   
    535. D(C  33,C  32,C  18,C  19)   -124.6962         0.010976   
    536. D(C  33,C  32,C  18,C  17)    104.2740         0.010976   
    537. D(H  84,C  33,C  32,O  42)    123.8111         0.011083   
    538. D(H  84,C  33,C  32,C  18)    -56.1989         0.011083   
    539. D(H  83,C  33,C  32,O  42)   -118.8995         0.011083   
    540. D(H  83,C  33,C  32,C  18)     61.0905         0.011083   
    541. D(C  34,C  33,C  32,O  42)      2.4252         0.011083   
    542. D(C  34,C  33,C  32,C  18)   -177.5848         0.011083   
    543. D(H  86,C  34,C  33,H  84)   -179.1800         0.011379   
    544. D(H  86,C  34,C  33,H  83)     61.4440         0.011379   
    545. D(H  86,C  34,C  33,C  32)    -58.6938         0.011379   
    546. D(H  85,C  34,C  33,H  84)    -62.2929         0.011379   
    547. D(H  85,C  34,C  33,H  83)    178.3311         0.011379   
    548. D(H  85,C  34,C  33,C  32)     58.1932         0.011379   
    549. D(C  35,C  34,C  33,H  84)     59.2674         0.011379   
    550. D(C  35,C  34,C  33,H  83)    -60.1086         0.011379   
    551. D(C  35,C  34,C  33,C  32)    179.7535         0.011379   
    552. D(H  88,C  35,C  34,H  86)    179.7831         0.011217   
    553. D(H  88,C  35,C  34,H  85)     62.8726         0.011217   
    554. D(H  88,C  35,C  34,C  33)    -58.6601         0.011217   
    555. D(H  87,C  35,C  34,H  86)    -62.9269         0.011217   
    556. D(H  87,C  35,C  34,H  85)   -179.8374         0.011217   
    557. D(H  87,C  35,C  34,C  33)     58.6300         0.011217   
    558. D(C  36,C  35,C  34,H  86)     58.4305         0.011217   
    559. D(C  36,C  35,C  34,H  85)    -58.4800         0.011217   
    560. D(C  36,C  35,C  34,C  33)    179.9874         0.011217   
    561. D(H  90,C  36,C  35,H  87)     62.7066         0.011180   
    562. D(H  90,C  36,C  35,C  34)    -58.6457         0.011180   
    563. D(H  89,C  36,C  35,H  88)    -62.7116         0.011180   
    564. D(H  89,C  36,C  35,H  87)    179.9935         0.011180   
    565. D(H  89,C  36,C  35,C  34)     58.6412         0.011180   
    566. D(C  37,C  36,C  35,H  88)     58.6452         0.011180   
    567. D(C  37,C  36,C  35,H  87)    -58.6496         0.011180   
    568. D(H  90,C  36,C  35,H  88)   -179.9986         0.011180   
    569. D(C  37,C  36,C  35,C  34)    179.9981         0.011180   
    570. D(H  92,C  37,C  36,H  90)    179.9981         0.011177   
    571. D(H  92,C  37,C  36,H  89)     62.7106         0.011177   
    572. D(H  92,C  37,C  36,C  35)    -58.6458         0.011177   
    573. D(H  91,C  37,C  36,H  90)    -62.7142         0.011177   
    574. D(H  91,C  37,C  36,H  89)    179.9983         0.011177   
    575. D(H  91,C  37,C  36,C  35)     58.6419         0.011177   
    576. D(C  38,C  37,C  36,H  90)     58.6408         0.011177   
    577. D(C  38,C  37,C  36,H  89)    -58.6467         0.011177   
    578. D(C  38,C  37,C  36,C  35)    179.9969         0.011177   
    579. D(H  94,C  38,C  37,H  92)   -179.9958         0.011175   
    580. D(H  94,C  38,C  37,H  91)     62.7158         0.011175   
    581. D(H  94,C  38,C  37,C  36)    -58.6390         0.011175   
    582. D(H  93,C  38,C  37,H  92)    -62.7092         0.011175   
    583. D(H  93,C  38,C  37,H  91)   -179.9976         0.011175   
    584. D(H  93,C  38,C  37,C  36)     58.6476         0.011175   
    585. D(C  39,C  38,C  37,H  92)     58.6481         0.011175   
    586. D(C  39,C  38,C  37,H  91)    -58.6403         0.011175   
    587. D(C  39,C  38,C  37,C  36)   -179.9950         0.011175   
    588. D(H  95,C  39,C  38,H  94)    -62.7247         0.011177   
    589. D(H  95,C  39,C  38,H  93)    179.9895         0.011177   
    590. D(H  95,C  39,C  38,C  37)     58.6321         0.011177   
    591. D(C  40,C  39,C  38,H  94)     58.6397         0.011177   
    592. D(C  40,C  39,C  38,H  93)    -58.6461         0.011177   
    593. D(C  40,C  39,C  38,C  37)    179.9965         0.011177   
    594. D(H  96,C  39,C  38,H  94)   -179.9948         0.011177   
    595. D(H  96,C  39,C  38,H  93)     62.7194         0.011177   
    596. D(H  96,C  39,C  38,C  37)    -58.6380         0.011177   
    597. D(H  98,C  40,C  39,H  95)     62.5060         0.011263   
    598. D(H  98,C  40,C  39,C  38)    -58.8626         0.011263   
    599. D(H  97,C  40,C  39,H  96)    -62.5035         0.011263   
    600. D(H  97,C  40,C  39,H  95)   -179.7654         0.011263   
    601. D(H  97,C  40,C  39,C  38)     58.8661         0.011263   
    602. D(C  41,C  40,C  39,H  96)     58.6329         0.011263   
    603. D(C  41,C  40,C  39,H  95)    -58.6291         0.011263   
    604. D(H  98,C  40,C  39,H  96)    179.7679         0.011263   
    605. D(C  41,C  40,C  39,C  38)   -179.9976         0.011263   
    606. D(H 101,C  41,C  40,H  98)    -61.2995         0.011917   
    607. D(H 101,C  41,C  40,H  97)   -178.1889         0.011917   
    608. D(H 101,C  41,C  40,C  39)     60.2548         0.011917   
    609. D(H 100,C  41,C  40,H  98)    178.1813         0.011917   
    610. D(H 100,C  41,C  40,H  97)     61.2919         0.011917   
    611. D(H 100,C  41,C  40,C  39)    -60.2644         0.011917   
    612. D(H  99,C  41,C  40,H  98)     58.4403         0.011917   
    613. D(H  99,C  41,C  40,H  97)    -58.4490         0.011917   
    614. D(H  99,C  41,C  40,C  39)    179.9946         0.011917   
    615. D(H 102,O  43,C  17,H  65)     47.8522         0.016383   
    616. D(H 102,O  43,C  17,C  18)    -69.2922         0.016383   
    617. D(H 102,O  43,C  17,C  16)    165.2229         0.016383   
    618. D(H 104,C  45,C  13,H  61)     67.8409         0.010969   
    619. D(H 104,C  45,C  13,C  14)   -171.2375         0.010969   
    620. D(H 104,C  45,C  13,N  12)    -51.1217         0.010969   
    621. D(H 103,C  45,C  13,H  61)   -175.2214         0.010969   
    622. D(H 103,C  45,C  13,C  14)    -54.2998         0.010969   
    623. D(H 103,C  45,C  13,N  12)     65.8161         0.010969   
    624. D(C  46,C  45,C  13,H  61)    -52.7508         0.010969   
    625. D(C  46,C  45,C  13,C  14)     68.1708         0.010969   
    626. D(C  46,C  45,C  13,N  12)   -171.7133         0.010969   
    627. D(H 107,C  46,C  45,H 104)    -62.9018         0.011746   
    628. D(H 107,C  46,C  45,H 103)   -178.5238         0.011746   
    629. D(H 107,C  46,C  45,C  13)     58.1929         0.011746   
    630. D(H 106,C  46,C  45,H 104)    176.2395         0.011746   
    631. D(H 106,C  46,C  45,H 103)     60.6175         0.011746   
    632. D(H 106,C  46,C  45,C  13)    -62.6658         0.011746   
    633. D(H 105,C  46,C  45,H 104)     56.5937         0.011746   
    634. D(H 105,C  46,C  45,H 103)    -59.0283         0.011746   
    635. D(H 105,C  46,C  45,C  13)    177.6884         0.011746   
    636. D(H 108,C  48,C  10,H  59)     72.1943         0.009759   
    637. D(H 108,C  48,C  10,C  11)   -170.1425         0.009759   
    638. D(H 108,C  48,C  10,N   9)    -45.7902         0.009759   
    639. D(C  50,C  48,C  10,H  59)   -169.4497         0.009759   
    640. D(C  50,C  48,C  10,C  11)    -51.7865         0.009759   
    641. D(C  50,C  48,C  10,N   9)     72.5658         0.009759   
    642. D(C  49,C  48,C  10,H  59)    -44.3750         0.009759   
    643. D(C  49,C  48,C  10,C  11)     73.2882         0.009759   
    644. D(C  49,C  48,C  10,N   9)   -162.3595         0.009759   
    645. D(H 111,C  49,C  48,C  50)     59.4076         0.011004   
    646. D(H 111,C  49,C  48,C  10)    -67.8126         0.011004   
    647. D(H 110,C  49,C  48,H 108)     55.3321         0.011004   
    648. D(H 110,C  49,C  48,C  50)    -60.3565         0.011004   
    649. D(H 110,C  49,C  48,C  10)    172.4233         0.011004   
    650. D(H 109,C  49,C  48,H 108)    -63.8356         0.011004   
    651. D(H 109,C  49,C  48,C  50)   -179.5242         0.011004   
    652. D(H 111,C  49,C  48,H 108)    175.0962         0.011004   
    653. D(H 109,C  49,C  48,C  10)     53.2556         0.011004   
    654. D(H 114,C  50,C  48,H 108)    -56.3315         0.010961   
    655. D(H 114,C  50,C  48,C  49)     59.0143         0.010961   
    656. D(H 114,C  50,C  48,C  10)   -174.8727         0.010961   
    657. D(H 113,C  50,C  48,H 108)   -175.7956         0.010961   
    658. D(H 113,C  50,C  48,C  49)    -60.4497         0.010961   
    659. D(H 113,C  50,C  48,C  10)     65.6632         0.010961   
    660. D(H 112,C  50,C  48,H 108)     62.8969         0.010961   
    661. D(H 112,C  50,C  48,C  49)    178.2427         0.010961   
    662. D(H 112,C  50,C  48,C  10)    -55.6444         0.010961   
    -----------------------------------------------------------------

Number of atoms                         .... 115
Number of degrees of freedom            .... 662

         *************************************************************
         *                GEOMETRY OPTIMIZATION CYCLE   1            *
         *************************************************************
---------------------------------
CARTESIAN COORDINATES (ANGSTROEM)
---------------------------------
  O      6.540950    0.054650    2.346750
  C      6.215600   -0.497340    1.287240
  C      5.920830    0.306890    0.001240
  C      7.202760    0.919840   -0.559810
  C      7.302870    2.264550    0.157240
  C      5.852530    2.704140    0.302730
  N      5.084860    1.466680    0.323410
  C      3.736630    1.314550    0.539850
  O      3.217450    0.194000    0.455770
  N      6.144640   -1.859570    1.289720
  C      5.627290   -2.774860    0.254040
  C      4.119190   -3.083500    0.475490
  N      3.643760   -2.789980    1.734060
  C      2.290140   -3.114920    2.179210
  C      1.353080   -1.960000    1.768260
  N      0.804480   -2.095470    0.510320
  C     -0.074450   -1.089010   -0.065630
  C     -1.460480   -1.080870    0.609970
  C     -2.208960    0.247680    0.477370
  C     -1.677140    1.435040    1.275640
  N     -0.776930    1.206250    2.288260
  C     -0.234170    2.301280    3.111360
  C      0.935260    2.981060    2.363210
  N      1.737640    2.128250    1.643840
  C      2.886620    2.560390    0.849260
  C      2.425360    3.202170   -0.454440
  O      1.209080    4.175180    2.498410
  C      0.225840    1.748120    4.468430
  C      0.689860    2.806240    5.489540
  C      1.187860    2.110610    6.760030
  C     -0.415310    3.800420    5.847150
  O     -2.090850    2.578910    1.053080
  C     -2.353140    0.619050   -0.992280
  C     -3.728880    0.411860   -1.607690
  C     -3.762340    0.754920   -3.095260
  C     -5.154610    0.531290   -3.686500
  C     -5.188080    0.875250   -5.176480
  C     -6.580810    0.651500   -5.767930
  C     -6.614320    0.995540   -7.257950
  C     -8.007050    0.771930   -7.849440
  C     -8.040470    1.115820   -9.338340
  C     -9.423370    0.894930   -9.930210
  O     -1.403350    1.064510   -1.647760
  O     -2.248820   -2.157690    0.054080
  O      1.145520   -0.958620    2.458860
  C      2.282080   -3.334040    3.695720
  C      0.949530   -3.871760    4.198680
  O      3.418860   -3.645060   -0.369170
  C      6.490510   -4.060870    0.212790
  C      6.290060   -4.838290   -1.091780
  C      6.270120   -4.990580    1.410820
  H      5.406670   -0.297630   -0.746210
  H      7.089460    1.093230   -1.636990
  H      8.090450    0.299400   -0.404240
  H      7.756700    2.129780    1.145820
  H      7.907260    2.992930   -0.390830
  H      5.681520    3.284830    1.212860
  H      5.529680    3.290970   -0.562470
  H      6.379320   -2.276450    2.185280
  H      5.706380   -2.273770   -0.713730
  H      4.212140   -2.181880    2.317530
  H      1.970260   -4.033380    1.672340
  H      1.103720   -2.879650   -0.067830
  H     -0.157850   -1.329070   -1.130770
  H      0.429260   -0.124500    0.041450
  H     -1.360250   -1.330290    1.672000
  H     -3.225680    0.092800    0.866010
  H     -0.346250    0.291180    2.418290
  H     -1.028490    3.044100    3.235530
  H      1.523510    1.129850    1.659720
  H      3.455560    3.276220    1.448750
  H      1.810980    4.088070   -0.263100
  H      3.273040    3.507210   -1.074600
  H      1.820940    2.503160   -1.044500
  H      1.048600    1.038740    4.307780
  H     -0.594130    1.163590    4.907830
  H      1.534630    3.365900    5.071000
  H      2.008240    1.422210    6.530790
  H      1.561070    2.842770    7.484020
  H      0.387250    1.537280    7.239790
  H     -0.694280    4.414300    4.985740
  H     -1.312640    3.284770    6.205390
  H     -0.082070    4.484510    6.635200
  H     -4.438270    1.045100   -1.063340
  H     -4.013060   -0.635900   -1.463410
  H     -3.029560    0.139660   -3.632180
  H     -3.463370    1.800580   -3.239960
  H     -5.884940    1.149390   -3.150250
  H     -5.450230   -0.515330   -3.544420
  H     -4.457650    0.257200   -5.712650
  H     -4.892440    1.921860   -5.318600
  H     -7.311220    1.269540   -5.231720
  H     -6.876430   -0.395110   -5.625840
  H     -5.883940    0.377470   -7.794170
  H     -6.318620    2.042150   -7.400030
  H     -8.737610    1.389810   -7.313190
  H     -8.302980   -0.274650   -7.707370
  H     -7.314770    0.497850   -9.879800
  H     -7.749380    2.162390   -9.485560
  H     -9.424490    1.146980  -10.995280
  H     -9.731370   -0.150560   -9.828180
  H    -10.168420    1.523160   -9.431640
  H     -3.011980   -2.277160    0.656670
  H      2.517490   -2.401230    4.223110
  H      3.069630   -4.049600    3.964100
  H      0.999760   -4.052340    5.277150
  H      0.135960   -3.163370    4.015130
  H      0.699170   -4.818060    3.708650
  H      7.544680   -3.750620    0.233920
  H      6.451680   -4.192310   -1.960990
  H      7.004670   -5.666070   -1.157840
  H      5.285000   -5.264610   -1.163370
  H      6.436740   -4.471060    2.359080
  H      5.257110   -5.405850    1.421760
  H      6.969570   -5.833090    1.372810

----------------------------
CARTESIAN COORDINATES (A.U.)
----------------------------
  NO LB      ZA    FRAG     MASS         X           Y           Z
   0 O     8.0000    0    15.999   12.360604    0.103274    4.434715
   1 C     6.0000    0    12.011   11.745782   -0.939836    2.432531
   2 C     6.0000    0    12.011   11.188747    0.579938    0.002343
   3 C     6.0000    0    12.011   13.611244    1.738246   -1.057888
   4 C     6.0000    0    12.011   13.800424    4.279379    0.297141
   5 C     6.0000    0    12.011   11.059679    5.110084    0.572077
   6 N     7.0000    0    14.007    9.608993    2.771624    0.611156
   7 C     6.0000    0    12.011    7.061207    2.484139    1.020169
   8 O     8.0000    0    15.999    6.080099    0.366607    0.861280
   9 N     7.0000    0    14.007   11.611687   -3.514078    2.437218
  10 C     6.0000    0    12.011   10.634037   -5.243725    0.480066
  11 C     6.0000    0    12.011    7.784141   -5.826971    0.898546
  12 N     7.0000    0    14.007    6.885708   -5.272298    3.276898
  13 C     6.0000    0    12.011    4.327737   -5.886346    4.118110
  14 C     6.0000    0    12.011    2.556951   -3.703863    3.341527
  15 N     7.0000    0    14.007    1.520247   -3.959864    0.964365
  16 C     6.0000    0    12.011   -0.140690   -2.057931   -0.124023
  17 C     6.0000    0    12.011   -2.759907   -2.042548    1.152676
  18 C     6.0000    0    12.011   -4.174329    0.468047    0.902099
  19 C     6.0000    0    12.011   -3.169335    2.711833    2.410610
  20 N     7.0000    0    14.007   -1.468185    2.279482    4.324185
  21 C     6.0000    0    12.011   -0.442517    4.348789    5.879618
  22 C     6.0000    0    12.011    1.767385    5.633387    4.465820
  23 N     7.0000    0    14.007    3.283664    4.021810    3.106407
  24 C     6.0000    0    12.011    5.454921    4.838436    1.604869
  25 C     6.0000    0    12.011    4.583266    6.051224   -0.858767
  26 O     8.0000    0    15.999    2.284830    7.889947    4.721311
  27 C     6.0000    0    12.011    0.426776    3.303468    8.444109
  28 C     6.0000    0    12.011    1.303646    5.303025   10.373727
  29 C     6.0000    0    12.011    2.244730    3.988475   12.774605
  30 C     6.0000    0    12.011   -0.784822    7.181753   11.049512
  31 O     8.0000    0    15.999   -3.951134    4.873434    1.990033
  32 C     6.0000    0    12.011   -4.446790    1.169835   -1.875137
  33 C     6.0000    0    12.011   -7.046562    0.778303   -3.038094
  34 C     6.0000    0    12.011   -7.109792    1.426592   -5.849194
  35 C     6.0000    0    12.011   -9.740801    1.003993   -6.966475
  36 C     6.0000    0    12.011   -9.804050    1.653983   -9.782130
  37 C     6.0000    0    12.011  -12.435929    1.231157  -10.899808
  38 C     6.0000    0    12.011  -12.499253    1.881298  -13.715538
  39 C     6.0000    0    12.011  -15.131132    1.458736  -14.833292
  40 C     6.0000    0    12.011  -15.194286    2.108594  -17.646905
  41 C     6.0000    0    12.011  -17.807589    1.691173  -18.765377
  42 O     8.0000    0    15.999   -2.651947    2.011632   -3.113815
  43 O     8.0000    0    15.999   -4.249654   -4.077443    0.102196
  44 O     8.0000    0    15.999    2.164719   -1.811529    4.646572
  45 C     6.0000    0    12.011    4.312506   -6.300423    6.983899
  46 C     6.0000    0    12.011    1.794352   -7.316566    7.934355
  47 O     8.0000    0    15.999    6.460709   -6.888165   -0.697630
  48 C     6.0000    0    12.011   12.265286   -7.673932    0.402115
  49 C     6.0000    0    12.011   11.886491   -9.143043   -2.063165
  50 C     6.0000    0    12.011   11.848810   -9.430829    2.666063
  51 H     1.0000    0     1.008   10.217126   -0.562439   -1.410133
  52 H     1.0000    0     1.008   13.397138    2.065905   -3.093463
  53 H     1.0000    0     1.008   15.288735    0.565784   -0.763903
  54 H     1.0000    0     1.008   14.658039    4.024701    2.165286
  55 H     1.0000    0     1.008   14.942556    5.655818   -0.738562
  56 H     1.0000    0     1.008   10.736517    6.207429    2.291973
  57 H     1.0000    0     1.008   10.449581    6.219032   -1.062914
  58 H     1.0000    0     1.008   12.055168   -4.301867    4.129581
  59 H     1.0000    0     1.008   10.783495   -4.296803   -1.348754
  60 H     1.0000    0     1.008    7.959791   -4.123156    4.379497
  61 H     1.0000    0     1.008    3.723252   -7.621984    3.160265
  62 H     1.0000    0     1.008    2.085729   -5.441750   -0.128180
  63 H     1.0000    0     1.008   -0.298293   -2.511578   -2.136846
  64 H     1.0000    0     1.008    0.811184   -0.235271    0.078329
  65 H     1.0000    0     1.008   -2.570500   -2.513884    3.159622
  66 H     1.0000    0     1.008   -6.095652    0.175367    1.636522
  67 H     1.0000    0     1.008   -0.654318    0.550250    4.569906
  68 H     1.0000    0     1.008   -1.943564    5.752515    6.114266
  69 H     1.0000    0     1.008    2.879017    2.135107    3.136416
  70 H     1.0000    0     1.008    6.530062    6.191159    2.737741
  71 H     1.0000    0     1.008    3.422256    7.725333   -0.497187
  72 H     1.0000    0     1.008    6.185149    6.627666   -2.030700
  73 H     1.0000    0     1.008    3.441078    4.730287   -1.973819
  74 H     1.0000    0     1.008    1.981567    1.962934    8.140524
  75 H     1.0000    0     1.008   -1.122743    2.198866    9.274455
  76 H     1.0000    0     1.008    2.900030    6.360629    9.582801
  77 H     1.0000    0     1.008    3.795024    2.687587   12.341405
  78 H     1.0000    0     1.008    2.949995    5.372057   14.142748
  79 H     1.0000    0     1.008    0.731796    2.905038   13.681220
  80 H     1.0000    0     1.008   -1.311999    8.341818    9.421683
  81 H     1.0000    0     1.008   -2.480530    6.207316   11.726488
  82 H     1.0000    0     1.008   -0.155090    8.474496   12.538711
  83 H     1.0000    0     1.008   -8.387115    1.974953   -2.009421
  84 H     1.0000    0     1.008   -7.583584   -1.201677   -2.765444
  85 H     1.0000    0     1.008   -5.725039    0.263919   -6.863825
  86 H     1.0000    0     1.008   -6.544821    3.402603   -6.122637
  87 H     1.0000    0     1.008  -11.120925    2.172032   -5.953110
  88 H     1.0000    0     1.008  -10.299442   -0.973833   -6.697983
  89 H     1.0000    0     1.008   -8.423738    0.486038  -10.795344
  90 H     1.0000    0     1.008   -9.245372    3.631789  -10.050697
  91 H     1.0000    0     1.008  -13.816204    2.399083   -9.886518
  92 H     1.0000    0     1.008  -12.994569   -0.746650  -10.631297
  93 H     1.0000    0     1.008  -11.119035    0.713315  -14.728847
  94 H     1.0000    0     1.008  -11.940461    3.859104  -13.984030
  95 H     1.0000    0     1.008  -16.511690    2.626360  -13.819926
  96 H     1.0000    0     1.008  -15.690358   -0.519013  -14.564819
  97 H     1.0000    0     1.008  -13.822912    0.940800  -18.670116
  98 H     1.0000    0     1.008  -14.644206    4.086325  -17.925111
  99 H     1.0000    0     1.008  -17.809705    2.167478  -20.778068
 100 H     1.0000    0     1.008  -18.389624   -0.284517  -18.572569
 101 H     1.0000    0     1.008  -19.215529    2.878355  -17.823217
 102 H     1.0000    0     1.008   -5.691817   -4.303209    1.240926
 103 H     1.0000    0     1.008    4.757367   -4.537667    7.980521
 104 H     1.0000    0     1.008    5.800760   -7.652635    7.491063
 105 H     1.0000    0     1.008    1.889273   -7.657813    9.972368
 106 H     1.0000    0     1.008    0.256927   -5.977903    7.587496
 107 H     1.0000    0     1.008    1.321240   -9.104814    7.008333
 108 H     1.0000    0     1.008   14.257379   -7.087645    0.442045
 109 H     1.0000    0     1.008   12.191908   -7.922318   -3.705734
 110 H     1.0000    0     1.008   13.236908  -10.707321   -2.188001
 111 H     1.0000    0     1.008    9.987203   -9.948671   -2.198451
 112 H     1.0000    0     1.008   12.163676   -8.449079    4.458015
 113 H     1.0000    0     1.008    9.934498  -10.215576    2.686737
 114 H     1.0000    0     1.008   13.170579  -11.022943    2.594235

--------------------------------
INTERNAL COORDINATES (ANGSTROEM)
--------------------------------
 O      0   0   0     0.000000000000     0.00000000     0.00000000
 C      1   0   0     1.238186990200     0.00000000     0.00000000
 C      2   1   0     1.545144409368   122.02389796     0.00000000
 C      3   2   1     1.527687576012   110.75740594    69.85474431
 C      4   3   2     1.527228764364   103.64185317   271.80201570
 C      5   4   3     1.522462749561   103.68902249   325.10701030
 N      6   5   4     1.456383240394   104.96093272    26.89727658
 C      7   6   5     1.373941026173   127.84744619   174.59457363
 O      8   7   6     1.237840709179   120.07335449   176.17409543
 N      2   1   3     1.364079193046   117.21392217   179.04986514
 C     10   2   1     1.475818372633   129.51726501   171.27512584
 C     11  10   2     1.555205569081   111.28994566   268.57666976
 N     12  11  10     1.377020740657   115.00165376   342.65003110
 C     13  12  11     1.461516893676   123.41922174   185.60189371
 C     14  13  12     1.542984624842   108.35688292   273.44870801
 N     15  14  13     1.379031226804   114.26852208    88.87479343
 C     16  15  14     1.455059476104   122.23684079   181.71971692
 C     17  16  15     1.541940589160   111.91274474   287.93663582
 C     18  17  16     1.530637178727   113.96507184   156.67008496
 C     19  18  17     1.526398137741   117.35489432   289.17501448
 N     20  19  18     1.374089579540   118.95610403   345.14773087
 C     21  20  19     1.473489982491   121.95403679   180.77505881
 C     22  21  20     1.545767057418   109.57992930   278.02692443
 N     23  22  21     1.374260440164   114.97138760   322.76384105
 C     24  23  22     1.462278152883   124.04319296   179.14032249
 C     25  24  23     1.524557655846   110.56936243   283.94367337
 O     23  22  21     1.232549798913   122.75425181   149.36470697
 C     22  21  20     1.535979873110   109.64680478   155.88297953
 C     28  22  21     1.541946214010   115.34571917   185.77433600
 C     29  28  22     1.531682061330   109.60185619   183.02845698
 C     29  28  22     1.528947191174   112.55532934    60.71890111
 O     20  19  18     1.236578947985   120.58877112   168.14133681
 C     19  18  17     1.522686662383   109.97476355    56.40198096
 C     33  19  18     1.521288175133   116.28612869   104.27400676
 C     34  33  19     1.526982069345   112.53880261   182.41517144
 C     35  34  33     1.529049007521   111.33286684   179.75350706
 C     36  35  34     1.529532321626   111.32810586   179.98738195
 C     37  36  35     1.529566611135   111.32808146   179.99811951
 C     38  37  36     1.529590154943   111.32885160   179.99692886
 C     39  38  37     1.529561605526   111.33175804   180.00495047
 C     40  39  38     1.528463423998   111.32840737   179.99652040
 C     41  40  39     1.520366698859   111.49483863   180.00240764
 O     33  19  18     1.237008361370   121.77332444   284.26399450
 O     18  17  16     1.445695320633   108.52738389   279.96358165
 O     15  14  13     1.234006247148   124.08988801   272.23831394
 C     14  13  12     1.532279712748   109.76187852   151.40431196
 C     46  14  13     1.522432613451   112.46247677   188.28665070
 O     12  11  10     1.232583570432   122.94326939   168.11915685
 C     11  10   2     1.549410226828   109.76358913   143.64461858
 C     49  11  10     1.531817529538   111.77767894   197.64051872
 C     49  11  10     1.532386477720   113.74243359    72.56579145
 H      3   2   1     1.090177250955   111.83826373   194.88932507
 H      4   3   2     1.096912819918   109.71832414   155.29877339
 H      4   3   2     1.094139549875   113.64453738    33.96929587
 H      5   4   3     1.096090798337   110.01938914    82.83600237
 H      5   4   3     1.093711763400   112.78831123   203.18178418
 H      6   5   4     1.093060800276   112.45761614   147.58913430
 H      6   5   4     1.094153833517   111.12371453   270.23114879
 H     10   2   1     1.015328198367   113.55377541   359.63616052
 H     11  10   2     1.092668837800   108.16540246    25.47417107
 H     13  12  11     1.016503160497   117.32808384    16.18520626
 H     14  13  12     1.096726576180   108.39466034    31.67792336
 H     16  15  14     1.019186083353   118.44000222   355.26404822
 H     17  16  15     1.095037708574   106.22360287   166.60982205
 H     17  16  15     1.093375246930   107.04521314    50.38697458
 H     18  17  16     1.095520018165   109.95690165    33.89505025
 H     19  18  17     1.099430953903   107.41642470   172.19661430
 H     21  20  19     1.019679443845   121.33915615     9.97627309
 H     22  21  20     1.094597644662   107.48090850    34.89445211
 H     24  23  22     1.021227884118   118.43256376   359.21371865
 H     25  24  23     1.093386287000   107.72249734    44.81812657
 H     26  25  24     1.094939537143   111.15702602    60.98187884
 H     26  25  24     1.093713495208   111.57962437   181.55179196
 H     26  25  24     1.096407460801   111.01543198   301.38349122
 H     28  22  21     1.098163204856   109.13337035    63.57230976
 H     28  22  21     1.098680336495   108.74983218   308.48315971
 H     29  28  22     1.096371925990   109.23007207   300.36466722
 H     30  29  28     1.095202667090   110.81757756    58.21950432
 H     30  29  28     1.095219379759   110.82434763   177.67744910
 H     30  29  28     1.095378162371   111.30731774   297.92261156
 H     31  29  28     1.093937888273   111.41046827   294.25092353
 H     31  29  28     1.095185805697   111.25983147    55.12378783
 H     31  29  28     1.095468314558   110.75839810   175.18047043
 H     34  33  19     1.095693384209   107.80663726    61.09048301
 H     34  33  19     1.095160266080   108.15963599   303.80110525
 H     35  34  33     1.097175684382   109.64035442    58.19320970
 H     35  34  33     1.097144469293   109.67201530   301.30616091
 H     36  35  34     1.096810640630   109.56229602    58.63000677
 H     36  35  34     1.096809616661   109.56582157   301.33993064
 H     37  36  35     1.096809945387   109.56719180    58.64123686
 H     37  36  35     1.096810647332   109.56726054   301.35427892
 H     38  37  36     1.096810545992   109.56619704    58.64190741
 H     38  37  36     1.096801369711   109.56718783   301.35416793
 H     39  38  37     1.096812362120   109.56681482    58.64764834
 H     39  38  37     1.096821639329   109.56686552   301.36102615
 H     40  39  38     1.096839856360   109.57608957    58.63209832
 H     40  39  38     1.096853748774   109.57659953   301.36195978
 H     41  40  39     1.096223673572   109.86706938    58.86606680
 H     41  40  39     1.096228024364   109.86551070   301.13744931
 H     42  41  40     1.094488264807   110.26136230   179.99461738
 H     42  41  40     1.094679615687   111.00169771   299.73557195
 H     42  41  40     1.094689216308   111.00107353    60.25475840
 H     44  18  17     0.979694327125   106.20662907   165.22289239
 H     46  14  13     1.097129243207   110.67332443    65.81605219
 H     46  14  13     1.097400993484   109.36060956   308.87833114
 H     47  46  14     1.094636802871   110.09568663   177.68839831
 H     47  46  14     1.094259173825   111.51188057   297.33422952
 H     47  46  14     1.094665803111   110.95420672    58.19289260
 H     49  11  10     1.099079582332   107.43104207   314.20980583
 H     50  49  11     1.094959912006   110.93663284    53.25561586
 H     50  49  11     1.095559721832   110.45451282   172.42328134
 H     50  49  11     1.094083851494   111.94363926   292.18742286
 H     51  49  11     1.094011097933   111.56978813   304.35561292
 H     51  49  11     1.094878128652   111.77691089    65.66318422
 H     51  49  11     1.095672470540   110.33996681   185.12725259

---------------------------
INTERNAL COORDINATES (A.U.)
---------------------------
 O      0   0   0     0.000000000000     0.00000000     0.00000000
 C      1   0   0     2.339834314062     0.00000000     0.00000000
 C      2   1   0     2.919899771064   122.02389796     0.00000000
 C      3   2   1     2.886911136856   110.75740594    69.85474431
[...]
freq.      82.29  E(vib)   ...       0.48 
freq.      89.39  E(vib)   ...       0.47 
freq.      94.79  E(vib)   ...       0.47 
freq.     101.23  E(vib)   ...       0.46 
freq.     102.14  E(vib)   ...       0.46 
freq.     106.18  E(vib)   ...       0.45 
freq.     109.44  E(vib)   ...       0.45 
freq.     112.98  E(vib)   ...       0.45 
freq.     121.57  E(vib)   ...       0.44 
freq.     121.59  E(vib)   ...       0.44 
freq.     122.97  E(vib)   ...       0.43 
freq.     127.15  E(vib)   ...       0.43 
freq.     141.26  E(vib)   ...       0.41 
freq.     145.83  E(vib)   ...       0.41 
freq.     151.54  E(vib)   ...       0.40 
freq.     153.65  E(vib)   ...       0.40 
freq.     161.71  E(vib)   ...       0.39 
freq.     164.12  E(vib)   ...       0.39 
freq.     171.24  E(vib)   ...       0.38 
freq.     178.07  E(vib)   ...       0.37 
freq.     183.24  E(vib)   ...       0.37 
freq.     189.05  E(vib)   ...       0.36 
freq.     206.56  E(vib)   ...       0.35 
freq.     211.84  E(vib)   ...       0.34 
freq.     217.71  E(vib)   ...       0.33 
freq.     227.68  E(vib)   ...       0.33 
freq.     229.71  E(vib)   ...       0.32 
freq.     232.77  E(vib)   ...       0.32 
freq.     238.74  E(vib)   ...       0.32 
freq.     243.66  E(vib)   ...       0.31 
freq.     245.12  E(vib)   ...       0.31 
freq.     248.09  E(vib)   ...       0.31 
freq.     248.20  E(vib)   ...       0.31 
freq.     251.80  E(vib)   ...       0.30 
freq.     258.21  E(vib)   ...       0.30 
freq.     260.85  E(vib)   ...       0.30 
freq.     262.49  E(vib)   ...       0.29 
freq.     273.68  E(vib)   ...       0.28 
freq.     278.67  E(vib)   ...       0.28 
freq.     289.43  E(vib)   ...       0.27 
freq.     292.61  E(vib)   ...       0.27 
freq.     298.33  E(vib)   ...       0.26 
freq.     319.97  E(vib)   ...       0.25 
freq.     325.33  E(vib)   ...       0.24 
freq.     328.24  E(vib)   ...       0.24 
freq.     329.65  E(vib)   ...       0.24 
freq.     336.71  E(vib)   ...       0.24 
freq.     344.06  E(vib)   ...       0.23 
freq.     368.64  E(vib)   ...       0.21 
freq.     375.55  E(vib)   ...       0.21 
freq.     380.72  E(vib)   ...       0.21 
freq.     386.92  E(vib)   ...       0.20 
freq.     392.82  E(vib)   ...       0.20 
freq.     398.28  E(vib)   ...       0.20 
freq.     416.08  E(vib)   ...       0.18 
freq.     423.47  E(vib)   ...       0.18 
freq.     436.88  E(vib)   ...       0.17 
freq.     439.89  E(vib)   ...       0.17 
freq.     449.31  E(vib)   ...       0.17 
freq.     456.08  E(vib)   ...       0.16 
freq.     466.49  E(vib)   ...       0.16 
freq.     474.97  E(vib)   ...       0.15 
freq.     478.48  E(vib)   ...       0.15 
freq.     488.42  E(vib)   ...       0.15 
freq.     495.87  E(vib)   ...       0.14 
freq.     511.47  E(vib)   ...       0.14 
freq.     524.05  E(vib)   ...       0.13 
freq.     529.09  E(vib)   ...       0.13 
freq.     545.76  E(vib)   ...       0.12 
freq.     573.53  E(vib)   ...       0.11 
freq.     584.87  E(vib)   ...       0.11 
freq.     588.56  E(vib)   ...       0.10 
freq.     615.99  E(vib)   ...       0.09 
freq.     624.79  E(vib)   ...       0.09 
freq.     637.70  E(vib)   ...       0.09 
freq.     652.17  E(vib)   ...       0.08 
freq.     662.96  E(vib)   ...       0.08 
freq.     666.66  E(vib)   ...       0.08 
freq.     701.78  E(vib)   ...       0.07 
freq.     705.67  E(vib)   ...       0.07 
freq.     712.50  E(vib)   ...       0.07 
freq.     719.42  E(vib)   ...       0.07 
freq.     719.76  E(vib)   ...       0.07 
freq.     722.81  E(vib)   ...       0.07 
freq.     732.12  E(vib)   ...       0.06 
freq.     738.24  E(vib)   ...       0.06 
freq.     742.35  E(vib)   ...       0.06 
freq.     753.07  E(vib)   ...       0.06 
freq.     758.12  E(vib)   ...       0.06 
freq.     774.45  E(vib)   ...       0.05 
freq.     779.68  E(vib)   ...       0.05 
freq.     784.12  E(vib)   ...       0.05 
freq.     786.16  E(vib)   ...       0.05 
freq.     792.13  E(vib)   ...       0.05 
freq.     812.50  E(vib)   ...       0.05 
freq.     821.85  E(vib)   ...       0.05 
freq.     826.54  E(vib)   ...       0.04 
freq.     835.91  E(vib)   ...       0.04 
freq.     838.30  E(vib)   ...       0.04 
freq.     848.27  E(vib)   ...       0.04 
freq.     862.05  E(vib)   ...       0.04 
freq.     866.73  E(vib)   ...       0.04 
freq.     869.75  E(vib)   ...       0.04 
freq.     880.08  E(vib)   ...       0.04 
freq.     885.40  E(vib)   ...       0.04 
freq.     892.80  E(vib)   ...       0.03 
freq.     897.37  E(vib)   ...       0.03 
freq.     901.61  E(vib)   ...       0.03 
freq.     901.87  E(vib)   ...       0.03 
freq.     912.52  E(vib)   ...       0.03 
freq.     920.57  E(vib)   ...       0.03 
freq.     930.61  E(vib)   ...       0.03 
freq.     935.28  E(vib)   ...       0.03 
freq.     936.70  E(vib)   ...       0.03 
freq.     941.27  E(vib)   ...       0.03 
freq.     942.54  E(vib)   ...       0.03 
freq.     948.56  E(vib)   ...       0.03 
freq.     953.33  E(vib)   ...       0.03 
freq.     959.41  E(vib)   ...       0.03 
freq.     976.03  E(vib)   ...       0.03 
freq.     982.38  E(vib)   ...       0.02 
freq.     983.55  E(vib)   ...       0.02 
freq.     988.71  E(vib)   ...       0.02 
freq.     995.40  E(vib)   ...       0.02 
freq.     998.51  E(vib)   ...       0.02 
freq.    1016.03  E(vib)   ...       0.02 
freq.    1023.59  E(vib)   ...       0.02 
freq.    1028.89  E(vib)   ...       0.02 
freq.    1030.13  E(vib)   ...       0.02 
freq.    1032.55  E(vib)   ...       0.02 
freq.    1043.03  E(vib)   ...       0.02 
freq.    1043.35  E(vib)   ...       0.02 
freq.    1050.75  E(vib)   ...       0.02 
freq.    1055.95  E(vib)   ...       0.02 
freq.    1057.10  E(vib)   ...       0.02 
freq.    1058.76  E(vib)   ...       0.02 
freq.    1064.49  E(vib)   ...       0.02 
freq.    1065.74  E(vib)   ...       0.02 
freq.    1069.58  E(vib)   ...       0.02 
freq.    1071.94  E(vib)   ...       0.02 
freq.    1073.24  E(vib)   ...       0.02 
freq.    1078.78  E(vib)   ...       0.02 
freq.    1084.98  E(vib)   ...       0.02 
freq.    1088.35  E(vib)   ...       0.02 
freq.    1094.65  E(vib)   ...       0.02 
freq.    1111.44  E(vib)   ...       0.01 
freq.    1114.97  E(vib)   ...       0.01 
freq.    1119.64  E(vib)   ...       0.01 
freq.    1131.83  E(vib)   ...       0.01 
freq.    1137.71  E(vib)   ...       0.01 
freq.    1139.88  E(vib)   ...       0.01 
freq.    1154.94  E(vib)   ...       0.01 
freq.    1156.46  E(vib)   ...       0.01 
freq.    1156.81  E(vib)   ...       0.01 
freq.    1158.58  E(vib)   ...       0.01 
freq.    1161.81  E(vib)   ...       0.01 
freq.    1163.62  E(vib)   ...       0.01 
freq.    1174.88  E(vib)   ...       0.01 
freq.    1182.98  E(vib)   ...       0.01 
freq.    1186.38  E(vib)   ...       0.01 
freq.    1190.01  E(vib)   ...       0.01 
freq.    1193.08  E(vib)   ...       0.01 
freq.    1202.90  E(vib)   ...       0.01 
freq.    1204.52  E(vib)   ...       0.01 
freq.    1205.46  E(vib)   ...       0.01 
freq.    1208.47  E(vib)   ...       0.01 
freq.    1215.89  E(vib)   ...       0.01 
freq.    1217.31  E(vib)   ...       0.01 
freq.    1224.04  E(vib)   ...       0.01 
freq.    1228.68  E(vib)   ...       0.01 
freq.    1232.84  E(vib)   ...       0.01 
freq.    1237.49  E(vib)   ...       0.01 
freq.    1241.84  E(vib)   ...       0.01 
freq.    1249.39  E(vib)   ...       0.01 
freq.    1251.97  E(vib)   ...       0.01 
freq.    1257.47  E(vib)   ...       0.01 
freq.    1258.21  E(vib)   ...       0.01 
freq.    1259.81  E(vib)   ...       0.01 
freq.    1266.35  E(vib)   ...       0.01 
freq.    1268.14  E(vib)   ...       0.01 
freq.    1268.48  E(vib)   ...       0.01 
freq.    1272.96  E(vib)   ...       0.01 
freq.    1273.22  E(vib)   ...       0.01 
freq.    1278.35  E(vib)   ...       0.01 
freq.    1281.45  E(vib)   ...       0.01 
freq.    1281.66  E(vib)   ...       0.01 
freq.    1283.40  E(vib)   ...       0.01 
freq.    1286.18  E(vib)   ...       0.01 
freq.    1292.91  E(vib)   ...       0.01 
freq.    1298.58  E(vib)   ...       0.01 
freq.    1302.08  E(vib)   ...       0.01 
freq.    1306.41  E(vib)   ...       0.01 
freq.    1309.32  E(vib)   ...       0.01 
freq.    1309.70  E(vib)   ...       0.01 
freq.    1312.58  E(vib)   ...       0.01 
freq.    1314.18  E(vib)   ...       0.01 
freq.    1316.12  E(vib)   ...       0.01 
freq.    1325.69  E(vib)   ...       0.01 
freq.    1328.69  E(vib)   ...       0.01 
freq.    1334.83  E(vib)   ...       0.01 
freq.    1337.23  E(vib)   ...       0.01 
freq.    1337.89  E(vib)   ...       0.01 
freq.    1340.80  E(vib)   ...       0.01 
freq.    1342.67  E(vib)   ...       0.01 
freq.    1344.77  E(vib)   ...       0.01 
freq.    1347.58  E(vib)   ...       0.01 
freq.    1351.74  E(vib)   ...       0.01 
freq.    1353.34  E(vib)   ...       0.01 
freq.    1355.89  E(vib)   ...       0.01 
freq.    1358.47  E(vib)   ...       0.01 
freq.    1358.76  E(vib)   ...       0.01 
freq.    1362.47  E(vib)   ...       0.01 
freq.    1371.19  E(vib)   ...       0.01 
freq.    1378.34  E(vib)   ...       0.01 
freq.    1386.00  E(vib)   ...       0.00 
freq.    1395.36  E(vib)   ...       0.00 
freq.    1404.88  E(vib)   ...       0.00 
freq.    1405.80  E(vib)   ...       0.00 
freq.    1408.15  E(vib)   ...       0.00 
freq.    1409.49  E(vib)   ...       0.00 
freq.    1410.44  E(vib)   ...       0.00 
freq.    1411.32  E(vib)   ...       0.00 
freq.    1411.61  E(vib)   ...       0.00 
freq.    1414.35  E(vib)   ...       0.00 
freq.    1414.70  E(vib)   ...       0.00 
freq.    1415.75  E(vib)   ...       0.00 
freq.    1418.31  E(vib)   ...       0.00 
freq.    1419.75  E(vib)   ...       0.00 
freq.    1421.36  E(vib)   ...       0.00 
freq.    1422.48  E(vib)   ...       0.00 
freq.    1424.66  E(vib)   ...       0.00 
freq.    1425.19  E(vib)   ...       0.00 
freq.    1426.44  E(vib)   ...       0.00 
freq.    1428.92  E(vib)   ...       0.00 
freq.    1430.05  E(vib)   ...       0.00 
freq.    1431.44  E(vib)   ...       0.00 
freq.    1433.58  E(vib)   ...       0.00 
freq.    1435.29  E(vib)   ...       0.00 
freq.    1438.89  E(vib)   ...       0.00 
freq.    1439.27  E(vib)   ...       0.00 
freq.    1439.41  E(vib)   ...       0.00 
freq.    1441.13  E(vib)   ...       0.00 
freq.    1445.25  E(vib)   ...       0.00 
freq.    1449.30  E(vib)   ...       0.00 
freq.    1484.35  E(vib)   ...       0.00 
freq.    1489.32  E(vib)   ...       0.00 
freq.    1517.13  E(vib)   ...       0.00 
freq.    1538.55  E(vib)   ...       0.00 
freq.    1668.73  E(vib)   ...       0.00 
freq.    1675.99  E(vib)   ...       0.00 
freq.    1694.54  E(vib)   ...       0.00 
freq.    1701.00  E(vib)   ...       0.00 
freq.    1723.66  E(vib)   ...       0.00 
freq.    1733.84  E(vib)   ...       0.00 
freq.    1747.73  E(vib)   ...       0.00 
freq.    2911.46  E(vib)   ...       0.00 
freq.    2928.94  E(vib)   ...       0.00 
freq.    2929.65  E(vib)   ...       0.00 
freq.    2930.47  E(vib)   ...       0.00 
freq.    2932.28  E(vib)   ...       0.00 
freq.    2934.68  E(vib)   ...       0.00 
freq.    2941.09  E(vib)   ...       0.00 
freq.    2941.45  E(vib)   ...       0.00 
freq.    2945.49  E(vib)   ...       0.00 
freq.    2946.78  E(vib)   ...       0.00 
freq.    2946.90  E(vib)   ...       0.00 
freq.    2948.68  E(vib)   ...       0.00 
freq.    2953.50  E(vib)   ...       0.00 
freq.    2953.99  E(vib)   ...       0.00 
freq.    2954.99  E(vib)   ...       0.00 
freq.    2955.65  E(vib)   ...       0.00 
freq.    2958.90  E(vib)   ...       0.00 
freq.    2959.15  E(vib)   ...       0.00 
freq.    2962.62  E(vib)   ...       0.00 
freq.    2962.67  E(vib)   ...       0.00 
freq.    2966.11  E(vib)   ...       0.00 
freq.    2966.37  E(vib)   ...       0.00 
freq.    2966.70  E(vib)   ...       0.00 
freq.    2969.65  E(vib)   ...       0.00 
freq.    2970.11  E(vib)   ...       0.00 
freq.    2973.20  E(vib)   ...       0.00 
freq.    2977.24  E(vib)   ...       0.00 
freq.    2980.47  E(vib)   ...       0.00 
freq.    2984.60  E(vib)   ...       0.00 
freq.    2986.06  E(vib)   ...       0.00 
freq.    2990.36  E(vib)   ...       0.00 
freq.    2997.70  E(vib)   ...       0.00 
freq.    3007.84  E(vib)   ...       0.00 
freq.    3010.84  E(vib)   ...       0.00 
freq.    3015.44  E(vib)   ...       0.00 
freq.    3021.62  E(vib)   ...       0.00 
freq.    3023.26  E(vib)   ...       0.00 
freq.    3028.59  E(vib)   ...       0.00 
freq.    3029.78  E(vib)   ...       0.00 
freq.    3031.74  E(vib)   ...       0.00 
freq.    3032.40  E(vib)   ...       0.00 
freq.    3035.14  E(vib)   ...       0.00 
freq.    3035.15  E(vib)   ...       0.00 
freq.    3039.15  E(vib)   ...       0.00 
freq.    3041.77  E(vib)   ...       0.00 
freq.    3043.67  E(vib)   ...       0.00 
freq.    3047.09  E(vib)   ...       0.00 
freq.    3048.45  E(vib)   ...       0.00 
freq.    3050.70  E(vib)   ...       0.00 
freq.    3050.76  E(vib)   ...       0.00 
freq.    3056.16  E(vib)   ...       0.00 
freq.    3062.05  E(vib)   ...       0.00 
freq.    3068.16  E(vib)   ...       0.00 
freq.    3070.20  E(vib)   ...       0.00 
freq.    3072.22  E(vib)   ...       0.00 
freq.    3078.11  E(vib)   ...       0.00 
freq.    3082.86  E(vib)   ...       0.00 
freq.    3103.13  E(vib)   ...       0.00 
freq.    3264.44  E(vib)   ...       0.00 
freq.    3347.65  E(vib)   ...       0.00 
freq.    3391.29  E(vib)   ...       0.00 
freq.    3465.24  E(vib)   ...       0.00 
freq.    3490.36  E(vib)   ...       0.00 
freq.    3694.55  E(vib)   ...       0.00 

------------
INNER ENERGY
------------

The inner energy is: U= E(el) + E(ZPE) + E(vib) + E(rot) + E(trans)
    E(el)   - is the total energy from the electronic structure calculation
              = E(kin-el) + E(nuc-el) + E(el-el) + E(nuc-nuc)
    E(ZPE)  - the the zero temperature vibrational energy from the frequency calculation
    E(vib)  - the the finite temperature correction to E(ZPE) due to population
              of excited vibrational states
    E(rot)  - is the rotational thermal energy
    E(trans)- is the translational thermal energy

Summary of contributions to the inner energy U:
Electronic energy                ...  -2377.46561802 Eh
Zero point energy                ...      0.97748799 Eh     613.38 kcal/mol
Thermal vibrational correction   ...      0.05571279 Eh      34.96 kcal/mol
Thermal rotational correction    ...      0.00141627 Eh       0.89 kcal/mol
Thermal translational correction ...      0.00141627 Eh       0.89 kcal/mol
-----------------------------------------------------------------------
Total thermal energy                  -2376.42958471 Eh


Summary of corrections to the electronic energy:
(perhaps to be used in another calculation)
Total thermal correction                  0.05854533 Eh      36.74 kcal/mol
Non-thermal (ZPE) correction              0.97748799 Eh     613.38 kcal/mol
-----------------------------------------------------------------------
Total correction                          1.03603332 Eh     650.12 kcal/mol


--------
ENTHALPY
--------

The enthalpy is H = U + kB*T
                kB is Boltzmann's constant
Total free energy                 ...  -2376.42958471 Eh 
Thermal Enthalpy correction       ...      0.00094421 Eh       0.59 kcal/mol
-----------------------------------------------------------------------
Total Enthalpy                    ...  -2376.42864050 Eh


Note: Only C1 symmetry has been detected, increase convergence thresholds 
      if your molecule has a higher symmetry. Symmetry factor of 1.0 is   
      used for the rotational entropy correction. 
 

Note: Rotational entropy computed according to Herzberg 
Infrared and Raman Spectra, Chapter V,1, Van Nostrand Reinhold, 1945 
Point Group:  C1, Symmetry Number:   1  
Rotational constants in cm-1:     0.002190     0.000823     0.000757 

Vibrational entropy computed according to the QRRHO of S. Grimme
Chem.Eur.J. 2012 18 9955


-------
ENTROPY
-------

The entropy contributions are T*S = T*(S(el)+S(vib)+S(rot)+S(trans))
     S(el)   - electronic entropy
     S(vib)  - vibrational entropy
     S(rot)  - rotational entropy
     S(trans)- translational entropy
The entropies will be listed as mutliplied by the temperature to get
units of energy

Electronic entropy                ...      0.00000000 Eh      0.00 kcal/mol
Vibrational entropy               ...      0.10272411 Eh     64.46 kcal/mol
Rotational entropy                ...      0.01914735 Eh     12.02 kcal/mol
Translational entropy             ...      0.02166895 Eh     13.60 kcal/mol
-----------------------------------------------------------------------
Final entropy term                ...      0.14354041 Eh     90.07 kcal/mol

In case the symmetry of your molecule has not been determined correctly
or in case you have a reason to use a different symmetry number we print 
out the resulting rotational entropy values for sn=1,12 :
 --------------------------------------------------------
|  sn= 1 | S(rot)=       0.01914735 Eh     12.02 kcal/mol|
|  sn= 2 | S(rot)=       0.01849289 Eh     11.60 kcal/mol|
|  sn= 3 | S(rot)=       0.01811006 Eh     11.36 kcal/mol|
|  sn= 4 | S(rot)=       0.01783844 Eh     11.19 kcal/mol|
|  sn= 5 | S(rot)=       0.01762775 Eh     11.06 kcal/mol|
|  sn= 6 | S(rot)=       0.01745561 Eh     10.95 kcal/mol|
|  sn= 7 | S(rot)=       0.01731006 Eh     10.86 kcal/mol|
|  sn= 8 | S(rot)=       0.01718398 Eh     10.78 kcal/mol|
|  sn= 9 | S(rot)=       0.01707277 Eh     10.71 kcal/mol|
|  sn=10 | S(rot)=       0.01697329 Eh     10.65 kcal/mol|
|  sn=11 | S(rot)=       0.01688330 Eh     10.59 kcal/mol|
|  sn=12 | S(rot)=       0.01680115 Eh     10.54 kcal/mol|
 --------------------------------------------------------


-------------------
GIBBS FREE ENERGY
-------------------

The Gibbs free energy is G = H - T*S

Total enthalpy                    ...  -2376.42864050 Eh 
Total entropy correction          ...     -0.14354041 Eh    -90.07 kcal/mol
-----------------------------------------------------------------------
Final Gibbs free energy         ...  -2376.57218090 Eh

For completeness - the Gibbs free energy minus the electronic energy
G-E(el)                           ...      0.89343712 Eh    560.64 kcal/mol

--------------------------------------------------------------------------
WARNING: No preset parameters were found for the device that Open MPI
detected:

  Local host:            eu-g1-035-3
  Device name:           mlx5_0
  Device vendor ID:      0x02c9
  Device vendor part ID: 4123

Default device parameters will be used, which may result in lower
performance.  You can edit any of the files specified by the
btl_openib_device_param_files MCA parameter to set values for your
device.

NOTE: You can turn off this warning by setting the MCA parameter
      btl_openib_warn_no_device_params_found to 0.
--------------------------------------------------------------------------
--------------------------------------------------------------------------
WARNING: There was an error initializing an OpenFabrics device.

  Local host:   eu-g1-035-3
  Local device: mlx5_0
--------------------------------------------------------------------------

Timings for individual modules:

Sum of individual times         ...    11672.620 sec (= 194.544 min)
GTO integral calculation        ...       56.931 sec (=   0.949 min)   0.5 %
SCF iterations                  ...     1914.362 sec (=  31.906 min)  16.4 %
SCF Gradient evaluation         ...      664.262 sec (=  11.071 min)   5.7 %
Geometry relaxation             ...       58.008 sec (=   0.967 min)   0.5 %
Analytical frequency calculation...     8979.056 sec (= 149.651 min)  76.9 %
                             ****ORCA TERMINATED NORMALLY****
TOTAL RUN TIME: 0 days 3 hours 15 minutes 28 seconds 935 msec
