
                                 *****************
                                 * O   R   C   A *
                                 *****************

           --- An Ab Initio, DFT and Semiempirical electronic structure package ---

                  #######################################################
                  #                        -***-                        #
                  #          Department of theory and spectroscopy      #
                  #               Directorship: Frank Neese             #
                  #        Max Planck Institute fuer Kohlenforschung    #
                  #                Kaiser Wilhelm Platz 1               #
                  #                 D-45470 Muelheim/Ruhr               #
                  #                      Germany                        #
                  #                                                     #
                  #                  All rights reserved                #
                  #                        -***-                        #
                  #######################################################


                         Program Version 4.2.0 -  RELEASE  -


 With contributions from (in alphabetic order):
   Daniel Aravena         : Magnetic Suceptibility
   Michael Atanasov       : Ab Initio Ligand Field Theory (pilot matlab implementation)
   Alexander A. Auer      : GIAO ZORA, VPT2
   Ute Becker             : Parallelization
   Giovanni Bistoni       : ED, misc. LED, open-shell LED, HFLED
   Martin Brehm           : Molecular dynamics
   Dmytro Bykov           : SCF Hessian
   Vijay G. Chilkuri      : MRCI spin determinant printing, contributions to CSF-ICE
   Dipayan Datta          : RHF DLPNO-CCSD density
   Achintya Kumar Dutta   : EOM-CC, STEOM-CC
   Dmitry Ganyushin       : Spin-Orbit,Spin-Spin,Magnetic field MRCI
   Miquel Garcia          : C-PCM Hessian, Gaussian charge scheme
   Yang Guo               : DLPNO-NEVPT2, CIM, IAO-localization
   Andreas Hansen         : Spin unrestricted coupled pair/coupled cluster methods
   Benjamin Helmich-Paris : CASSCF linear response (MC-RPA)
   Lee Huntington         : MR-EOM, pCC
   Robert Izsak           : Overlap fitted RIJCOSX, COSX-SCS-MP3, EOM
   Christian Kollmar      : KDIIS, OOCD, Brueckner-CCSD(T), CCSD density
   Simone Kossmann        : Meta GGA functionals, TD-DFT gradient, OOMP2, MP2 Hessian
   Martin Krupicka        : AUTO-CI
   Lucas Lang             : DCDCAS
   Dagmar Lenk            : GEPOL surface, SMD
   Dimitrios Liakos       : Extrapolation schemes; Compound Job, initial MDCI parallelization
   Dimitrios Manganas     : Further ROCIS development; embedding schemes
   Dimitrios Pantazis     : SARC Basis sets
   Taras Petrenko         : DFT Hessian,TD-DFT gradient, ASA, ECA, R-Raman, ABS, FL, XAS/XES, NRVS
   Peter Pinski           : DLPNO-MP2, DLPNO-MP2 Gradient
   Christoph Reimann      : Effective Core Potentials
   Marius Retegan         : Local ZFS, SOC
   Christoph Riplinger    : Optimizer, TS searches, QM/MM, DLPNO-CCSD(T), (RO)-DLPNO pert. Triples
   Tobias Risthaus        : Range-separated hybrids, TD-DFT gradient, RPA, STAB
   Michael Roemelt        : Original ROCIS implementation
   Masaaki Saitow         : Open-shell DLPNO-CCSD energy and density
   Barbara Sandhoefer     : DKH picture change effects
   Avijit Sen             : IP-ROCIS
   Kantharuban Sivalingam : CASSCF convergence, NEVPT2, FIC-MRCI
   Bernardo de Souza      : ESD, SOC TD-DFT
   Georgi Stoychev        : AutoAux, RI-MP2 NMR
   Willem Van den Heuvel  : Paramagnetic NMR
   Boris Wezisla          : Elementary symmetry handling
   Frank Wennmohs         : Technical directorship


 We gratefully acknowledge several colleagues who have allowed us to
 interface, adapt or use parts of their codes:
   Stefan Grimme, W. Hujo, H. Kruse,             : VdW corrections, initial TS optimization,
                  C. Bannwarth                     DFT functionals, gCP, sTDA/sTD-DF
   Ed Valeev, F. Pavosevic, A. Kumar             : LibInt (2-el integral package), F12 methods
   Garnet Chan, S. Sharma, J. Yang, R. Olivares  : DMRG
   Ulf Ekstrom                                   : XCFun DFT Library
   Mihaly Kallay                                 : mrcc  (arbitrary order and MRCC methods)
   Andreas Klamt, Michael Diedenhofen            : otool_cosmo (COSMO solvation model)
   Jiri Pittner, Ondrej Demel                    : Mk-CCSD
   Frank Weinhold                                : gennbo (NPA and NBO analysis)
   Christopher J. Cramer and Donald G. Truhlar   : smd solvation model
   Lars Goerigk                                  : TD-DFT with DH, B97 family of functionals
   V. Asgeirsson, H. Jonsson                     : NEB implementation
   FAccTs GmbH                                   : IRC, NEB, NEB-TS, Multilevel, MM, QM/MM, CI optimization
   S Lehtola, MJT Oliveira, MAL Marques          : LibXC Library


 Your calculation uses the libint2 library for the computation of 2-el integrals
 For citations please refer to: http://libint.valeyev.net

 Your ORCA version has been built with support for libXC version: 4.2.3
 For citations please refer to: https://tddft.org/programs/libxc/

 This ORCA versions uses:
   CBLAS   interface :  Fast vector & matrix operations
   LAPACKE interface :  Fast linear algebra routines
   SCALAPACK package :  Parallel linear algebra routines




***************************************
The coordinates will be read from file: 15_old.xyz
***************************************


Your calculation utilizes the atom-pairwise dispersion correction
with the Becke-Johnson damping scheme (D3BJ)
Cite in your paper:
S.Grimme, S.Ehrlich, L.Goerigk, J Comput Chem, (2011), 32, 1456–1465 
S.Grimme, J.Antony, S.Ehrlich and H.Krieg, J.Chem.Phys., 132, (2010), 154104 
   

----- Orbital basis set information -----
Your calculation utilizes the basis: def2-TZVP
   F. Weigend and R. Ahlrichs, Phys. Chem. Chem. Phys. 7, 3297 (2005).

----- AuxJ basis set information -----
Your calculation utilizes the auxiliary basis: def2/J
   F. Weigend, Phys. Chem. Chem. Phys. 8, 1057 (2006).

================================================================================
                                        WARNINGS
                       Please study these warnings very carefully!
================================================================================


WARNING: Geometry Optimization
  ===> : Switching off AutoStart
         For restart on a previous wavefunction, please use MOREAD

INFO   : the flag for use of LIBINT has been found!

================================================================================
                                       INPUT FILE
================================================================================
NAME = 15.inp
|  1> !RI BP86 def2-tzvp def2/J D3BJ TIGHTSCF TightOpt Grid5 FinalGrid6 freq
|  2> %maxcore 4000
|  3> %pal nprocs 24
|  4> end
|  5> * xyzfile 0 1 15_old.xyz 
|  6> 
|  7>                          ****END OF INPUT****
================================================================================

                       *****************************
                       * Geometry Optimization Run *
                       *****************************

Geometry optimization settings:
Update method            Update   .... BFGS
Choice of coordinates    CoordSys .... Z-matrix Internals
Initial Hessian          InHess   .... Almoef's Model

Convergence Tolerances:
Energy Change            TolE     ....  1.0000e-06 Eh
Max. Gradient            TolMAXG  ....  1.0000e-04 Eh/bohr
RMS Gradient             TolRMSG  ....  3.0000e-05 Eh/bohr
Max. Displacement        TolMAXD  ....  1.0000e-03 bohr
RMS Displacement         TolRMSD  ....  6.0000e-04 bohr
Strict Convergence                ....  False
------------------------------------------------------------------------------
                        ORCA OPTIMIZATION COORDINATE SETUP
------------------------------------------------------------------------------

The optimization will be done in new redundant internal coordinates
Making redundant internal coordinates   ...  (new redundants) done
Evaluating the initial hessian          ...  (Almloef) done
Evaluating the coordinates              ...  done
Calculating the B-matrix                .... done
Calculating the G-matrix                .... done
Diagonalizing the G-matrix              .... done
Small eigenvalue found = 1.806e-04
Small eigenvalue found = 7.960e-04
Small eigenvalue found = 1.588e-03
Small eigenvalue found = 2.755e-03
Small eigenvalue found = 3.261e-03
Small eigenvalue found = 4.357e-03
Small eigenvalue found = 6.094e-03
Small eigenvalue found = 6.814e-03
Small eigenvalue found = 7.993e-03
Small eigenvalue found = 8.993e-03
Small eigenvalue found = 1.098e-02
Small eigenvalue found = 1.179e-02
Small eigenvalue found = 1.407e-02
Small eigenvalue found = 1.526e-02
Small eigenvalue found = 1.591e-02
Small eigenvalue found = 1.809e-02
Small eigenvalue found = 2.142e-02
Small eigenvalue found = 2.222e-02
Small eigenvalue found = 2.642e-02
Small eigenvalue found = 2.761e-02
The first mode is                       ....  324
The number of degrees of freedom        ....  339

    -----------------------------------------------------------------
                    Redundant Internal Coordinates


    -----------------------------------------------------------------
         Definition                    Initial Value    Approx d2E/dq
    -----------------------------------------------------------------
      1. B(C   1,O   0)                  1.2391         0.974108   
      2. B(C   2,C   1)                  1.5406         0.359369   
      3. B(C   3,C   2)                  1.5447         0.353953   
      4. B(C   4,C   3)                  1.5388         0.361688   
      5. B(C   5,C   4)                  1.5316         0.371344   
      6. B(N   6,C   5)                  1.4767         0.406921   
      7. B(N   6,C   2)                  1.4790         0.403494   
      8. B(C   7,N   6)                  1.3562         0.633630   
      9. B(O   8,C   7)                  1.2502         0.935251   
     10. B(N   9,C   1)                  1.3575         0.630554   
     11. B(C  10,N   9)                  1.4710         0.415496   
     12. B(C  11,C  10)                  1.5559         0.339653   
     13. B(N  12,C  11)                  1.3685         0.605508   
     14. B(C  13,N  12)                  1.4582         0.435572   
     15. B(C  14,C  13)                  1.5421         0.357379   
     16. B(N  15,C  14)                  1.3564         0.633046   
     17. B(C  16,N  15)                  1.4633         0.427510   
     18. B(C  17,C  16)                  1.5329         0.369632   
     19. B(C  18,C  17)                  1.5543         0.341707   
     20. B(C  19,C  18)                  1.5433         0.355821   
     21. B(N  20,C  19)                  1.3593         0.626315   
     22. B(C  21,N  20)                  1.4584         0.435246   
     23. B(C  22,C  21)                  1.5463         0.351801   
     24. B(N  23,C  22)                  1.3721         0.597737   
     25. B(C  24,N  23)                  1.4653         0.424313   
     26. B(C  24,C   7)                  1.5340         0.368174   
     27. B(C  25,C  24)                  1.5307         0.372597   
     28. B(O  26,C  22)                  1.2303         1.006214   
     29. B(C  27,C  21)                  1.5378         0.363006   
     30. B(C  28,C  27)                  1.5410         0.358830   
     31. B(C  29,C  28)                  1.5393         0.361040   
     32. B(C  30,C  28)                  1.5379         0.362890   
     33. B(O  31,C  19)                  1.2402         0.970123   
     34. B(C  32,C  18)                  1.5390         0.361411   
     35. B(C  33,C  32)                  1.5155         0.394019   
     36. B(C  34,C  33)                  1.5262         0.378804   
     37. B(C  35,C  34)                  1.5320         0.370796   
     38. B(C  36,C  35)                  1.5330         0.369501   
     39. B(C  37,C  36)                  1.5329         0.369610   
     40. B(C  38,C  37)                  1.5331         0.369331   
     41. B(C  39,C  38)                  1.5330         0.369436   
     42. B(C  40,C  39)                  1.5341         0.367944   
     43. B(C  41,C  40)                  1.5317         0.371220   
     44. B(O  42,C  32)                  1.2245         1.027866   
     45. B(O  43,C  17)                  1.4294         0.484138   
     46. B(O  44,C  14)                  1.2470         0.946377   
     47. B(C  45,C  13)                  1.5386         0.361938   
     48. B(C  46,C  45)                  1.5284         0.375712   
     49. B(O  47,C  11)                  1.2323         0.998850   
     50. B(C  48,C  10)                  1.5513         0.345424   
     51. B(C  49,C  48)                  1.5360         0.365445   
     52. B(C  50,C  48)                  1.5379         0.362943   
     53. B(H  51,C   2)                  1.1104         0.334075   
     54. B(H  52,C   3)                  1.1096         0.335084   
     55. B(H  53,C   3)                  1.1066         0.338814   
     56. B(H  54,C   4)                  1.1068         0.338537   
     57. B(H  54,O  42)                  2.5474         0.001525   
     58. B(H  55,C   4)                  1.1068         0.338544   
     59. B(H  56,C   5)                  1.1055         0.340172   
     60. B(H  57,C   5)                  1.1138         0.329958   
     61. B(H  58,N   9)                  1.0219         0.414231   
     62. B(H  59,C  10)                  1.1121         0.332072   
     63. B(H  60,N  12)                  1.0342         0.395958   
     64. B(H  61,C  13)                  1.1139         0.329772   
     65. B(H  62,N  15)                  1.0353         0.394302   
     66. B(H  63,C  16)                  1.1043         0.341687   
     67. B(H  64,C  16)                  1.1124         0.331666   
     68. B(H  65,C  17)                  1.1168         0.326323   
     69. B(H  66,C  18)                  1.1145         0.329086   
     70. B(H  67,N  20)                  1.0379         0.390506   
     71. B(H  68,C  21)                  1.1131         0.330827   
     72. B(H  69,H  61)                  2.2727         0.000894   
     73. B(H  69,N  23)                  1.0253         0.409068   
     74. B(H  70,C  24)                  1.1134         0.330467   
     75. B(H  71,C  25)                  1.1056         0.340064   
     76. B(H  72,C  25)                  1.1072         0.338101   
     77. B(H  73,C  25)                  1.1071         0.338233   
     78. B(H  74,C  27)                  1.1084         0.336600   
     79. B(H  75,C  27)                  1.1113         0.333024   
     80. B(H  76,C  28)                  1.1159         0.327373   
     81. B(H  77,O  44)                  4.6626         0.000001   
     82. B(H  77,C  29)                  1.1067         0.338682   
     83. B(H  78,C  29)                  1.1122         0.331935   
     84. B(H  79,C  29)                  1.1096         0.335024   
     85. B(H  80,C  30)                  1.1092         0.335563   
     86. B(H  81,C  30)                  1.1094         0.335338   
     87. B(H  82,C  30)                  1.1113         0.333014   
     88. B(H  83,C  33)                  1.1163         0.326995   
     89. B(H  84,C  33)                  1.1121         0.332033   
     90. B(H  85,C  34)                  1.1116         0.332606   
     91. B(H  86,C  34)                  1.1110         0.333382   
     92. B(H  87,C  35)                  1.1142         0.329444   
     93. B(H  88,C  35)                  1.1139         0.329814   
     94. B(H  89,C  36)                  1.1140         0.329718   
     95. B(H  90,C  36)                  1.1138         0.329908   
     96. B(H  91,C  37)                  1.1140         0.329690   
     97. B(H  92,C  37)                  1.1140         0.329692   
     98. B(H  93,C  38)                  1.1141         0.329578   
     99. B(H  94,C  38)                  1.1140         0.329654   
    100. B(H  95,C  39)                  1.1142         0.329414   
    101. B(H  96,C  39)                  1.1143         0.329401   
    102. B(H  97,C  40)                  1.1134         0.330485   
    103. B(H  98,C  40)                  1.1133         0.330517   
    104. B(H  99,C  41)                  1.1091         0.335658   
    105. B(H 100,C  41)                  1.1106         0.333881   
    106. B(H 101,C  41)                  1.1106         0.333891   
    107. B(H 102,O  43)                  1.0103         0.432301   
    108. B(H 103,C  45)                  1.1078         0.337354   
    109. B(H 104,C  45)                  1.1085         0.336420   
    110. B(H 105,C  46)                  1.1082         0.336803   
    111. B(H 106,C  46)                  1.1111         0.333295   
    112. B(H 107,C  46)                  1.1095         0.335152   
    113. B(H 108,C  48)                  1.1141         0.329558   
    114. B(H 109,C  49)                  1.1058         0.339853   
    115. B(H 110,C  49)                  1.1064         0.339104   
    116. B(H 111,C  49)                  1.1093         0.335439   
    117. B(H 112,C  50)                  1.1108         0.333601   
    118. B(H 113,C  50)                  1.1088         0.336110   
    119. B(H 114,C  50)                  1.1064         0.339081   
    120. A(O   0,C   1,N   9)          123.6464         0.466394   
    121. A(C   2,C   1,N   9)          116.0312         0.392644   
    122. A(O   0,C   1,C   2)          120.2755         0.424055   
    123. A(C   1,C   2,H  51)          110.1570         0.318336   
    124. A(N   6,C   2,H  51)          109.5440         0.322490   
    125. A(C   1,C   2,N   6)          108.1392         0.363461   
    126. A(C   1,C   2,C   3)          112.4008         0.357654   
    127. A(C   3,C   2,H  51)          112.7363         0.317549   
    128. A(C   3,C   2,N   6)          103.5510         0.362520   
    129. A(C   4,C   3,H  53)          113.0807         0.319403   
    130. A(C   4,C   3,H  52)          110.9549         0.318827   
    131. A(C   2,C   3,C   4)          103.9661         0.358045   
    132. A(C   2,C   3,H  53)          111.8046         0.318279   
    133. A(C   2,C   3,H  52)          109.0023         0.317705   
    134. A(H  52,C   3,H  53)          107.9767         0.284857   
    135. A(H  54,C   4,H  55)          108.2432         0.285277   
    136. A(C   3,C   4,H  55)          113.2005         0.319362   
    137. A(C   3,C   4,C   5)          103.3615         0.360982   
    138. A(C   3,C   4,H  54)          109.8912         0.319361   
    139. A(C   5,C   4,H  55)          112.2557         0.320740   
    140. A(C   5,C   4,H  54)          109.8151         0.320739   
    141. A(H  56,C   5,H  57)          108.8484         0.284352   
    142. A(C   4,C   5,N   6)          102.6691         0.366035   
    143. A(C   4,C   5,H  56)          112.1522         0.320991   
    144. A(N   6,C   5,H  57)          109.4786         0.322281   
    145. A(N   6,C   5,H  56)          111.8331         0.323897   
    146. A(C   4,C   5,H  57)          111.7620         0.319396   
    147. A(C   5,N   6,C   7)          128.2117         0.399077   
    148. A(C   2,N   6,C   7)          119.3860         0.398484   
    149. A(C   2,N   6,C   5)          112.4022         0.368968   
    150. A(O   8,C   7,C  24)          121.0814         0.422806   
    151. A(N   6,C   7,O   8)          120.9398         0.463345   
    152. A(N   6,C   7,C  24)          117.9730         0.394649   
    153. A(C   1,N   9,C  10)          124.0293         0.400201   
    154. A(C  10,N   9,H  58)          117.0954         0.332892   
    155. A(C   1,N   9,H  58)          115.1813         0.357040   
    156. A(C  48,C  10,H  59)          106.3787         0.315981   
    157. A(C  11,C  10,H  59)          104.6999         0.315118   
    158. A(N   9,C  10,C  11)          111.4599         0.361782   
    159. A(N   9,C  10,C  48)          113.5099         0.362824   
    160. A(N   9,C  10,H  59)          104.5553         0.323724   
    161. A(C  11,C  10,C  48)          115.1039         0.352784   
    162. A(N  12,C  11,O  47)          122.5888         0.465077   
    163. A(C  10,C  11,O  47)          122.9224         0.421687   
    164. A(C  10,C  11,N  12)          114.4551         0.386053   
    165. A(C  13,N  12,H  60)          118.1091         0.333007   
    166. A(C  11,N  12,C  13)          121.2739         0.400671   
    167. A(C  11,N  12,H  60)          120.6170         0.351894   
    168. A(C  14,C  13,C  45)          111.4480         0.358675   
    169. A(N  12,C  13,H  61)          105.7598         0.325872   
    170. A(C  14,C  13,H  61)          105.4791         0.317377   
    171. A(N  12,C  13,C  14)          111.9306         0.367904   
    172. A(C  45,C  13,H  61)          107.9575         0.318033   
    173. A(N  12,C  13,C  45)          113.6765         0.368706   
    174. A(C  13,C  14,N  15)          116.9314         0.392533   
    175. A(N  15,C  14,O  44)          122.6656         0.464270   
    176. A(C  13,C  14,O  44)          120.3007         0.421454   
    177. A(C  14,N  15,H  62)          118.8011         0.354302   
    178. A(C  16,N  15,H  62)          113.2868         0.331747   
    179. A(C  14,N  15,C  16)          120.3578         0.402495   
    180. A(H  63,C  16,H  64)          108.8689         0.284777   
    181. A(C  17,C  16,H  64)          107.6543         0.319424   
    182. A(N  15,C  16,H  63)          106.9671         0.326774   
    183. A(C  17,C  16,H  63)          108.0944         0.320982   
    184. A(N  15,C  16,C  17)          116.6405         0.368854   
    185. A(N  15,C  16,H  64)          108.4263         0.325178   
    186. A(O  43,C  17,H  65)          108.4839         0.331031   
    187. A(C  18,C  17,H  65)          105.2930         0.314533   
    188. A(C  16,C  17,H  65)          104.7231         0.318579   
    189. A(C  16,C  17,C  18)          116.3221         0.357225   
    190. A(C  18,C  17,O  43)          109.0688         0.371773   
    191. A(C  16,C  17,O  43)          112.3672         0.376846   
    192. A(C  19,C  18,H  66)          102.6793         0.317044   
    193. A(C  17,C  18,H  66)          105.0224         0.314964   
    194. A(C  17,C  18,C  32)          114.9899         0.355863   
    195. A(C  17,C  18,C  19)          117.5633         0.354924   
    196. A(C  19,C  18,C  32)          108.2067         0.358319   
    197. A(C  32,C  18,H  66)          107.0887         0.317849   
    198. A(C  18,C  19,N  20)          114.7745         0.391501   
    199. A(N  20,C  19,O  31)          123.2955         0.465469   
    200. A(C  18,C  19,O  31)          121.7519         0.422994   
    201. A(C  19,N  20,H  67)          113.6757         0.353082   
    202. A(C  19,N  20,C  21)          121.9294         0.403010   
    203. A(C  21,N  20,H  67)          120.9313         0.332201   
    204. A(C  27,C  21,H  68)          108.5042         0.318351   
    205. A(C  22,C  21,H  68)          104.6281         0.316730   
    206. A(N  20,C  21,H  68)          105.7028         0.326003   
    207. A(N  20,C  21,C  22)          112.9079         0.366866   
    208. A(C  22,C  21,C  27)          110.3774         0.357895   
    209. A(N  20,C  21,C  27)          114.0745         0.368845   
    210. A(C  21,C  22,N  23)          116.0054         0.387551   
    211. A(C  21,C  22,O  26)          121.8454         0.424902   
    212. A(N  23,C  22,O  26)          121.9688         0.464603   
    213. A(C  22,N  23,C  24)          118.8454         0.397924   
    214. A(C  24,N  23,H  69)          121.8013         0.333359   
    215. A(C  22,N  23,H  69)          118.8122         0.353067   
    216. A(C  25,C  24,H  70)          108.3387         0.319652   
    217. A(N  23,C  24,H  70)          106.0685         0.324584   
    218. A(C   7,C  24,H  70)          109.1638         0.319030   
    219. A(N  23,C  24,C  25)          111.9973         0.368885   
    220. A(C   7,C  24,N  23)          110.0805         0.368130   
    221. A(C   7,C  24,C  25)          111.0211         0.362287   
    222. A(H  71,C  25,H  73)          109.8188         0.285436   
    223. A(C  24,C  25,H  73)          110.8457         0.320868   
    224. A(H  71,C  25,H  72)          108.8763         0.285418   
    225. A(C  24,C  25,H  72)          110.6245         0.320848   
    226. A(C  24,C  25,H  71)          108.9121         0.321152   
    227. A(H  72,C  25,H  73)          107.7354         0.285179   
    228. A(C  28,C  27,H  75)          110.4116         0.318095   
    229. A(C  21,C  27,C  28)          116.2807         0.359102   
    230. A(H  74,C  27,H  75)          105.9101         0.284294   
    231. A(C  21,C  27,H  75)          108.2914         0.318695   
    232. A(C  28,C  27,H  74)          109.5680         0.318649   
    233. A(C  21,C  27,H  74)          105.8026         0.319251   
    234. A(C  29,C  28,C  30)          110.0678         0.359458   
    235. A(C  27,C  28,C  30)          109.2356         0.359082   
    236. A(C  27,C  28,C  29)          114.1453         0.358770   
    237. A(C  30,C  28,H  76)          107.6732         0.317791   
    238. A(C  29,C  28,H  76)          107.8888         0.317526   
    239. A(C  27,C  28,H  76)          107.6015         0.317209   
    240. A(C  28,C  29,H  79)          110.6463         0.318724   
    241. A(H  78,C  29,H  79)          107.2054         0.283942   
    242. A(H  77,C  29,H  79)          107.0753         0.284832   
    243. A(H  77,C  29,H  78)          107.7228         0.284422   
    244. A(C  28,C  29,H  78)          110.3919         0.318243   
    245. A(C  28,C  29,H  77)          113.5317         0.319290   
    246. A(H  81,C  30,H  82)          107.5355         0.284127   
    247. A(H  80,C  30,H  82)          107.4487         0.284156   
    248. A(C  28,C  30,H  82)          110.6332         0.318677   
    249. A(H  80,C  30,H  81)          108.0317         0.284464   
    250. A(C  28,C  30,H  81)          111.4406         0.319039   
    251. A(C  28,C  30,H  80)          111.5665         0.319074   
    252. A(C  33,C  32,O  42)          121.9881         0.435294   
    253. A(C  18,C  32,O  42)          122.3375         0.428589   
    254. A(C  18,C  32,C  33)          115.6689         0.364607   
    255. A(C  32,C  33,C  34)          114.2030         0.367555   
    256. A(C  34,C  33,H  84)          111.5988         0.320764   
    257. A(H  83,C  33,H  84)          105.3242         0.282888   
    258. A(C  32,C  33,H  84)          106.5699         0.322839   
    259. A(C  34,C  33,H  83)          111.4770         0.319964   
    260. A(C  32,C  33,H  83)          107.1271         0.322031   
    261. A(C  33,C  34,C  35)          113.2839         0.363751   
    262. A(H  85,C  34,H  86)          105.2247         0.283814   
    263. A(C  35,C  34,H  86)          110.3018         0.319858   
    264. A(C  33,C  34,H  86)          109.3209         0.320977   
    265. A(C  35,C  34,H  85)          109.8821         0.319736   
    266. A(C  33,C  34,H  85)          108.4990         0.320855   
    267. A(C  34,C  35,C  36)          113.4811         0.362209   
    268. A(H  87,C  35,H  88)          105.4795         0.282921   
    269. A(C  36,C  35,H  88)          109.3224         0.319114   
    270. A(C  34,C  35,H  88)          109.4289         0.319296   
    271. A(C  36,C  35,H  87)          109.2911         0.319056   
    272. A(C  34,C  35,H  87)          109.5280         0.319238   
    273. A(C  35,C  36,C  37)          113.8555         0.362011   
    274. A(H  89,C  36,H  90)          105.4638         0.282970   
    275. A(C  37,C  36,H  90)          109.3910         0.319144   
    276. A(C  35,C  36,H  90)          109.2667         0.319129   
    277. A(C  37,C  36,H  89)          109.3284         0.319114   
    278. A(C  35,C  36,H  89)          109.1966         0.319099   
    279. A(C  36,C  37,C  38)          113.8318         0.361983   
    280. A(H  91,C  37,H  92)          105.4757         0.282937   
    281. A(C  38,C  37,H  92)          109.3080         0.319071   
    282. A(C  36,C  37,H  92)          109.2871         0.319110   
    283. A(C  38,C  37,H  91)          109.3014         0.319071   
    284. A(C  36,C  37,H  91)          109.3008         0.319110   
    285. A(C  37,C  38,C  39)          113.8632         0.361954   
    286. A(H  93,C  38,H  94)          105.4716         0.282917   
    287. A(C  39,C  38,H  94)          109.3153         0.319080   
    288. A(C  37,C  38,H  94)          109.2833         0.319065   
    289. A(C  39,C  38,H  93)          109.2999         0.319068   
    290. A(C  37,C  38,H  93)          109.2690         0.319053   
    291. A(C  38,C  39,C  40)          113.8931         0.361721   
    292. A(H  95,C  39,H  96)          105.4536         0.282862   
    293. A(C  40,C  39,H  96)          109.2801         0.318829   
    294. A(C  38,C  39,H  96)          109.2979         0.319040   
    295. A(C  40,C  39,H  95)          109.2756         0.318831   
    296. A(C  38,C  39,H  95)          109.2982         0.319042   
    297. A(C  39,C  40,C  41)          113.5087         0.362019   
    298. A(H  97,C  40,H  98)          105.5022         0.283153   
    299. A(C  41,C  40,H  98)          109.6757         0.319467   
    300. A(C  39,C  40,H  98)          109.0853         0.319005   
    301. A(C  41,C  40,H  97)          109.6722         0.319462   
    302. A(C  39,C  40,H  97)          109.0842         0.319000   
    303. A(H 100,C  41,H 101)          107.1818         0.284050   
    304. A(H  99,C  41,H 101)          107.5186         0.284285   
    305. A(C  40,C  41,H 101)          111.2833         0.319997   
    306. A(H  99,C  41,H 100)          107.5225         0.284284   
    307. A(C  40,C  41,H 100)          111.2857         0.319996   
    308. A(C  40,C  41,H  99)          111.8188         0.320274   
    309. A(C  17,O  43,H 102)          107.1809         0.343932   
    310. A(C  13,C  45,C  46)          112.3369         0.361745   
    311. A(C  46,C  45,H 104)          111.2088         0.321023   
    312. A(C  13,C  45,H 104)          107.8296         0.319070   
    313. A(C  46,C  45,H 103)          111.3090         0.321169   
    314. A(C  13,C  45,H 103)          107.3866         0.319214   
    315. A(H 103,C  45,H 104)          106.4913         0.284842   
    316. A(H 106,C  46,H 107)          107.3274         0.284139   
    317. A(H 105,C  46,H 107)          107.5390         0.284602   
    318. A(C  45,C  46,H 107)          111.4382         0.320825   
    319. A(H 105,C  46,H 106)          107.5594         0.284357   
    320. A(C  45,C  46,H 106)          111.5648         0.320533   
    321. A(C  45,C  46,H 105)          111.1978         0.321083   
    322. A(C  50,C  48,H 108)          107.6474         0.318143   
    323. A(C  49,C  48,H 108)          107.8543         0.318500   
    324. A(C  10,C  48,H 108)          103.8786         0.315591   
    325. A(C  49,C  48,C  50)          111.7276         0.360210   
    326. A(C  10,C  48,C  50)          110.7807         0.356774   
    327. A(C  10,C  48,C  49)          114.3943         0.357190   
    328. A(H 110,C  49,H 111)          108.3971         0.284942   
    329. A(H 109,C  49,H 111)          108.1909         0.285040   
    330. A(C  48,C  49,H 111)          109.6778         0.319420   
    331. A(H 109,C  49,H 110)          107.8120         0.285523   
    332. A(C  48,C  49,H 110)          110.4830         0.319988   
    333. A(C  48,C  49,H 109)          112.1711         0.320103   
    334. A(H 113,C  50,H 114)          108.5088         0.285028   
    335. A(H 112,C  50,H 114)          108.2543         0.284695   
    336. A(C  48,C  50,H 114)          110.5221         0.319625   
    337. A(H 112,C  50,H 113)          107.5306         0.284306   
    338. A(C  48,C  50,H 113)          110.2680         0.319166   
    339. A(C  48,C  50,H 112)          111.6457         0.318776   
    340. D(H  51,C   2,C   1,N   9)     -8.3767         0.009714   
    341. D(C   3,C   2,C   1,N   9)   -135.0045         0.009714   
    342. D(N   6,C   2,C   1,N   9)    111.3095         0.009714   
    343. D(N   6,C   2,C   1,O   0)    -66.2894         0.009714   
    344. D(C   3,C   2,C   1,O   0)     47.3966         0.009714   
    345. D(H  51,C   2,C   1,O   0)    174.0244         0.009714   
    346. D(C   4,C   3,C   2,N   6)     24.8044         0.010076   
    347. D(H  53,C   3,C   2,H  51)    -94.5783         0.010076   
    348. D(H  53,C   3,C   2,C   1)     30.6510         0.010076   
    349. D(C   4,C   3,C   2,H  51)    143.1054         0.010076   
    350. D(H  53,C   3,C   2,N   6)    147.1207         0.010076   
    351. D(H  52,C   3,C   2,H  51)     24.7191         0.010076   
    352. D(C   4,C   3,C   2,C   1)    -91.6653         0.010076   
    353. D(H  52,C   3,C   2,C   1)    149.9484         0.010076   
    354. D(H  52,C   3,C   2,N   6)    -93.5819         0.010076   
    355. D(H  55,C   4,C   3,H  53)     79.8284         0.010488   
    356. D(H  55,C   4,C   3,H  52)    -41.6676         0.010488   
    357. D(H  54,C   4,C   3,H  52)   -162.8178         0.010488   
    358. D(H  55,C   4,C   3,C   2)   -158.7023         0.010488   
    359. D(H  54,C   4,C   3,H  53)    -41.3218         0.010488   
    360. D(C   5,C   4,C   3,C   2)    -37.0116         0.010488   
    361. D(H  54,C   4,C   3,C   2)     80.1475         0.010488   
    362. D(C   5,C   4,C   3,H  53)   -158.4809         0.010488   
    363. D(C   5,C   4,C   3,H  52)     80.0231         0.010488   
    364. D(N   6,C   5,C   4,C   3)     34.3419         0.011019   
    365. D(H  57,C   5,C   4,C   3)    -82.8995         0.011019   
    366. D(H  56,C   5,C   4,H  55)    -83.1301         0.011019   
    367. D(H  56,C   5,C   4,C   3)    154.5460         0.011019   
    368. D(H  57,C   5,C   4,H  54)    159.8879         0.011019   
    369. D(H  56,C   5,C   4,H  54)     37.3334         0.011019   
    370. D(H  57,C   5,C   4,H  55)     39.4244         0.011019   
    371. D(N   6,C   5,C   4,H  54)    -82.8707         0.011019   
    372. D(N   6,C   5,C   4,H  55)    156.6658         0.011019   
    373. D(C   5,N   6,C   2,C   3)     -3.2233         0.013896   
    374. D(C   7,N   6,C   5,H  57)    -80.9056         0.014129   
    375. D(C   7,N   6,C   5,H  56)     39.8158         0.014129   
    376. D(C   7,N   6,C   5,C   4)    160.2402         0.014129   
    377. D(C   2,N   6,C   5,H  57)     99.1886         0.014129   
    378. D(C   2,N   6,C   5,H  56)   -140.0901         0.014129   
    379. D(C   7,N   6,C   2,H  51)     56.3693         0.013896   
    380. D(C   2,N   6,C   5,C   4)    -19.6656         0.014129   
    381. D(C   7,N   6,C   2,C   3)    176.8616         0.013896   
    382. D(C   5,N   6,C   2,C   1)    116.2130         0.013896   
    383. D(C   7,N   6,C   2,C   1)    -63.7021         0.013896   
    384. D(C   5,N   6,C   2,H  51)   -123.7156         0.013896   
    385. D(C  24,C   7,N   6,C   5)     -2.8461         0.032624   
    386. D(C  24,C   7,N   6,C   2)    177.0540         0.032624   
    387. D(O   8,C   7,N   6,C   5)    178.0191         0.032624   
    388. D(O   8,C   7,N   6,C   2)     -2.0808         0.032624   
    389. D(H  58,N   9,C   1,O   0)    167.8945         0.032282   
    390. D(C  10,N   9,C   1,C   2)   -167.2506         0.032282   
    391. D(H  58,N   9,C   1,C   2)     -9.6145         0.032282   
    392. D(C  10,N   9,C   1,O   0)     10.2584         0.032282   
    393. D(H  59,C  10,N   9,C   1)    155.0263         0.014723   
    394. D(C  48,C  10,N   9,H  58)    113.2898         0.014723   
    395. D(C  48,C  10,N   9,C   1)    -89.4643         0.014723   
    396. D(C  11,C  10,N   9,C   1)     42.4591         0.014723   
    397. D(H  59,C  10,N   9,H  58)     -2.2195         0.014723   
    398. D(C  11,C  10,N   9,H  58)   -114.7868         0.014723   
    399. D(O  47,C  11,C  10,N   9)   -142.6751         0.008768   
    400. D(N  12,C  11,C  10,H  59)    -73.0874         0.008768   
    401. D(N  12,C  11,C  10,C  48)    170.4990         0.008768   
    402. D(N  12,C  11,C  10,N   9)     39.3888         0.008768   
    403. D(O  47,C  11,C  10,H  59)    104.8487         0.008768   
    404. D(O  47,C  11,C  10,C  48)    -11.5650         0.008768   
    405. D(H  60,N  12,C  11,O  47)   -178.5843         0.029582   
    406. D(H  60,N  12,C  11,C  10)     -0.6405         0.029582   
    407. D(C  13,N  12,C  11,O  47)      1.3232         0.029582   
    408. D(C  13,N  12,C  11,C  10)    179.2670         0.029582   
    409. D(H  61,C  13,N  12,C  11)    170.0928         0.016176   
    410. D(H  61,C  13,N  12,H  60)     -9.9974         0.016176   
    411. D(C  45,C  13,N  12,H  60)    108.2670         0.016176   
    412. D(C  45,C  13,N  12,C  11)    -71.6428         0.016176   
    413. D(C  14,C  13,N  12,C  11)     55.7265         0.016176   
    414. D(C  14,C  13,N  12,H  60)   -124.3638         0.016176   
    415. D(O  44,C  14,C  13,C  45)    -26.1027         0.009616   
    416. D(O  44,C  14,C  13,N  12)   -154.6587         0.009616   
    417. D(N  15,C  14,C  13,H  61)    -85.6166         0.009616   
    418. D(N  15,C  14,C  13,C  45)    157.4783         0.009616   
    419. D(O  44,C  14,C  13,H  61)     90.8024         0.009616   
    420. D(N  15,C  14,C  13,N  12)     28.9223         0.009616   
    421. D(H  62,N  15,C  14,O  44)    170.4640         0.032559   
    422. D(H  62,N  15,C  14,C  13)    -13.2089         0.032559   
    423. D(C  16,N  15,C  14,O  44)     22.8095         0.032559   
    424. D(C  16,N  15,C  14,C  13)   -160.8634         0.032559   
    425. D(H  64,C  16,N  15,H  62)   -108.2914         0.015582   
    426. D(H  64,C  16,N  15,C  14)     41.0168         0.015582   
    427. D(H  63,C  16,N  15,H  62)      8.9695         0.015582   
    428. D(H  63,C  16,N  15,C  14)    158.2777         0.015582   
    429. D(C  17,C  16,N  15,C  14)    -80.6352         0.015582   
    430. D(C  17,C  16,N  15,H  62)    130.0566         0.015582   
    431. D(H  65,C  17,C  16,H  64)     55.4517         0.010923   
    432. D(H  65,C  17,C  16,H  63)    -62.0023         0.010923   
    433. D(H  65,C  17,C  16,N  15)    177.5084         0.010923   
    434. D(O  43,C  17,C  16,H  64)    -62.1035         0.010923   
    435. D(O  43,C  17,C  16,H  63)   -179.5574         0.010923   
    436. D(O  43,C  17,C  16,N  15)     59.9532         0.010923   
    437. D(C  18,C  17,C  16,H  64)    171.1895         0.010923   
    438. D(C  18,C  17,C  16,H  63)     53.7356         0.010923   
    439. D(C  18,C  17,C  16,N  15)    -66.7538         0.010923   
    440. D(H  66,C  18,C  17,H  65)    -62.0435         0.009446   
    441. D(H  66,C  18,C  17,O  43)     54.2059         0.009446   
    442. D(H  66,C  18,C  17,C  16)   -177.4621         0.009446   
    443. D(C  32,C  18,C  17,O  43)    171.6419         0.009446   
    444. D(C  32,C  18,C  17,C  16)    -60.0260         0.009446   
    445. D(C  32,C  18,C  17,H  65)     55.3926         0.009446   
    446. D(C  19,C  18,C  17,H  65)   -175.3992         0.009446   
    447. D(C  19,C  18,C  17,O  43)    -59.1499         0.009446   
    448. D(C  19,C  18,C  17,C  16)     69.1822         0.009446   
    449. D(O  31,C  19,C  18,H  66)     96.7261         0.009539   
    450. D(O  31,C  19,C  18,C  32)    -16.2949         0.009539   
    451. D(O  31,C  19,C  18,C  17)   -148.6207         0.009539   
    452. D(N  20,C  19,C  18,H  66)    -78.5742         0.009539   
    453. D(N  20,C  19,C  18,C  17)     36.0789         0.009539   
    454. D(N  20,C  19,C  18,C  32)    168.4047         0.009539   
    455. D(H  67,N  20,C  19,O  31)   -176.1739         0.031815   
    456. D(H  67,N  20,C  19,C  18)     -0.9552         0.031815   
    457. D(C  21,N  20,C  19,O  31)    -17.0206         0.031815   
    458. D(C  21,N  20,C  19,C  18)    158.1982         0.031815   
    459. D(H  68,C  21,N  20,H  67)    -23.5202         0.016152   
    460. D(H  68,C  21,N  20,C  19)    178.8104         0.016152   
    461. D(C  27,C  21,N  20,H  67)     95.6035         0.016152   
    462. D(C  27,C  21,N  20,C  19)    -62.0659         0.016152   
    463. D(C  22,C  21,N  20,H  67)   -137.3236         0.016152   
    464. D(C  22,C  21,N  20,C  19)     65.0070         0.016152   
    465. D(N  23,C  22,C  21,C  27)    156.7122         0.009343   
    466. D(N  23,C  22,C  21,N  20)     27.7079         0.009343   
    467. D(O  26,C  22,C  21,H  68)     88.4625         0.009343   
    468. D(O  26,C  22,C  21,C  27)    -28.0794         0.009343   
    469. D(O  26,C  22,C  21,N  20)   -157.0837         0.009343   
    470. D(N  23,C  22,C  21,H  68)    -86.7459         0.009343   
    471. D(H  69,N  23,C  22,O  26)    172.2937         0.028774   
    472. D(H  69,N  23,C  22,C  21)    -12.5043         0.028774   
    473. D(C  24,N  23,C  22,O  26)      0.5751         0.028774   
    474. D(C  24,N  23,C  22,C  21)    175.7770         0.028774   
    475. D(H  70,C  24,N  23,H  69)   -132.1089         0.015350   
    476. D(H  70,C  24,N  23,C  22)     39.3513         0.015350   
    477. D(C  25,C  24,N  23,H  69)    109.8896         0.015350   
    478. D(C  25,C  24,N  23,C  22)    -78.6501         0.015350   
    479. D(C   7,C  24,N  23,H  69)    -14.1380         0.015350   
    480. D(C   7,C  24,N  23,C  22)    157.3222         0.015350   
    481. D(H  70,C  24,C   7,O   8)   -132.1887         0.010158   
    482. D(H  70,C  24,C   7,N   6)     48.6777         0.010158   
    483. D(C  25,C  24,C   7,O   8)    -12.8224         0.010158   
    484. D(C  25,C  24,C   7,N   6)    168.0441         0.010158   
    485. D(N  23,C  24,C   7,O   8)    111.7690         0.010158   
    486. D(N  23,C  24,C   7,N   6)    -67.3645         0.010158   
    487. D(H  73,C  25,C  24,H  70)    179.2374         0.011089   
    488. D(H  73,C  25,C  24,N  23)    -64.1219         0.011089   
    489. D(H  73,C  25,C  24,C   7)     59.3783         0.011089   
    490. D(H  72,C  25,C  24,H  70)     59.7922         0.011089   
    491. D(H  72,C  25,C  24,N  23)    176.4330         0.011089   
    492. D(H  72,C  25,C  24,C   7)    -60.0669         0.011089   
    493. D(H  71,C  25,C  24,H  70)    -59.8349         0.011089   
    494. D(H  71,C  25,C  24,N  23)     56.8058         0.011089   
    495. D(H  71,C  25,C  24,C   7)   -179.6940         0.011089   
    496. D(H  75,C  27,C  21,H  68)    172.7141         0.010560   
    497. D(H  75,C  27,C  21,C  22)    -73.1812         0.010560   
    498. D(H  75,C  27,C  21,N  20)     55.1899         0.010560   
    499. D(H  74,C  27,C  21,H  68)    -74.1065         0.010560   
    500. D(H  74,C  27,C  21,C  22)     39.9982         0.010560   
    501. D(H  74,C  27,C  21,N  20)    168.3693         0.010560   
    502. D(C  28,C  27,C  21,H  68)     47.7617         0.010560   
    503. D(C  28,C  27,C  21,C  22)    161.8663         0.010560   
    504. D(C  28,C  27,C  21,N  20)    -69.7625         0.010560   
    505. D(H  76,C  28,C  27,H  75)   -174.5283         0.010335   
    506. D(H  76,C  28,C  27,H  74)     69.1956         0.010335   
    507. D(H  76,C  28,C  27,C  21)    -50.6630         0.010335   
    508. D(C  30,C  28,C  27,H  75)     68.8544         0.010335   
    509. D(C  30,C  28,C  27,H  74)    -47.4217         0.010335   
    510. D(C  30,C  28,C  27,C  21)   -167.2804         0.010335   
    511. D(C  29,C  28,C  27,H  75)    -54.8343         0.010335   
    512. D(C  29,C  28,C  27,H  74)   -171.1104         0.010335   
    513. D(C  29,C  28,C  27,C  21)     69.0309         0.010335   
    514. D(H  79,C  29,C  28,C  30)     51.0949         0.010453   
    515. D(H  79,C  29,C  28,C  27)    174.3340         0.010453   
    516. D(H  78,C  29,C  28,H  76)    175.3569         0.010453   
    517. D(H  78,C  29,C  28,C  30)    -67.4145         0.010453   
    518. D(H  78,C  29,C  28,C  27)     55.8247         0.010453   
    519. D(H  77,C  29,C  28,H  76)     54.2857         0.010453   
    520. D(H  77,C  29,C  28,C  30)    171.5144         0.010453   
    521. D(H  79,C  29,C  28,H  76)    -66.1338         0.010453   
    522. D(H  77,C  29,C  28,C  27)    -65.2465         0.010453   
    523. D(H  82,C  30,C  28,H  76)   -179.3793         0.010554   
    524. D(H  82,C  30,C  28,C  29)     63.2581         0.010554   
    525. D(H  82,C  30,C  28,C  27)    -62.8075         0.010554   
    526. D(H  81,C  30,C  28,H  76)     61.0330         0.010554   
    527. D(H  81,C  30,C  28,C  29)    -56.3296         0.010554   
    528. D(H  81,C  30,C  28,C  27)    177.6048         0.010554   
    529. D(H  80,C  30,C  28,H  76)    -59.8184         0.010554   
    530. D(H  80,C  30,C  28,C  29)   -177.1810         0.010554   
    531. D(H  80,C  30,C  28,C  27)     56.7534         0.010554   
    532. D(O  42,C  32,C  18,H  66)    151.6476         0.009816   
    533. D(O  42,C  32,C  18,C  19)    -98.3017         0.009816   
    534. D(O  42,C  32,C  18,C  17)     35.3864         0.009816   
    535. D(C  33,C  32,C  18,H  66)    -29.1877         0.009816   
    536. D(C  33,C  32,C  18,C  19)     80.8630         0.009816   
    537. D(C  33,C  32,C  18,C  17)   -145.4489         0.009816   
    538. D(H  84,C  33,C  32,O  42)    132.0310         0.011538   
    539. D(H  84,C  33,C  32,C  18)    -47.1369         0.011538   
    540. D(H  83,C  33,C  32,O  42)   -115.6220         0.011538   
    541. D(H  83,C  33,C  32,C  18)     65.2100         0.011538   
    542. D(C  34,C  33,C  32,O  42)      8.3336         0.011538   
    543. D(C  34,C  33,C  32,C  18)   -170.8343         0.011538   
    544. D(H  86,C  34,C  33,H  84)   -177.4551         0.011440   
    545. D(H  86,C  34,C  33,H  83)     65.0794         0.011440   
    546. D(H  86,C  34,C  33,C  32)    -56.5089         0.011440   
    547. D(H  85,C  34,C  33,H  84)    -63.2036         0.011440   
    548. D(H  85,C  34,C  33,H  83)    179.3310         0.011440   
    549. D(H  85,C  34,C  33,C  32)     57.7426         0.011440   
    550. D(C  35,C  34,C  33,H  84)     59.0991         0.011440   
    551. D(C  35,C  34,C  33,H  83)    -58.3664         0.011440   
    552. D(C  35,C  34,C  33,C  32)   -179.9547         0.011440   
    553. D(H  88,C  35,C  34,H  86)   -179.3532         0.010988   
    554. D(H  88,C  35,C  34,H  85)     65.0818         0.010988   
    555. D(H  88,C  35,C  34,C  33)    -56.4479         0.010988   
    556. D(H  87,C  35,C  34,H  86)    -64.1783         0.010988   
    557. D(H  87,C  35,C  34,H  85)   -179.7433         0.010988   
    558. D(H  87,C  35,C  34,C  33)     58.7270         0.010988   
    559. D(C  36,C  35,C  34,H  86)     58.2507         0.010988   
    560. D(C  36,C  35,C  34,H  85)    -57.3143         0.010988   
    561. D(C  36,C  35,C  34,C  33)   -178.8441         0.010988   
    562. D(H  90,C  36,C  35,H  87)     65.0539         0.010916   
    563. D(H  90,C  36,C  35,C  34)    -57.5062         0.010916   
    564. D(H  89,C  36,C  35,H  88)    -65.0775         0.010916   
    565. D(H  89,C  36,C  35,H  87)    179.9377         0.010916   
    566. D(H  89,C  36,C  35,C  34)     57.3776         0.010916   
    567. D(C  37,C  36,C  35,H  88)     57.4139         0.010916   
    568. D(C  37,C  36,C  35,H  87)    -57.5710         0.010916   
    569. D(H  90,C  36,C  35,H  88)   -179.9613         0.010916   
    570. D(C  37,C  36,C  35,C  34)    179.8690         0.010916   
    571. D(H  92,C  37,C  36,H  90)   -179.8622         0.010922   
    572. D(H  92,C  37,C  36,H  89)     65.1134         0.010922   
    573. D(H  92,C  37,C  36,C  35)    -57.3056         0.010922   
    574. D(H  91,C  37,C  36,H  90)    -64.8959         0.010922   
    575. D(H  91,C  37,C  36,H  89)   -179.9203         0.010922   
    576. D(H  91,C  37,C  36,C  35)     57.6607         0.010922   
    577. D(C  38,C  37,C  36,H  90)     57.6217         0.010922   
    578. D(C  38,C  37,C  36,H  89)    -57.4027         0.010922   
    579. D(C  38,C  37,C  36,C  35)   -179.8216         0.010922   
    580. D(H  94,C  38,C  37,H  92)    179.9791         0.010907   
    581. D(H  94,C  38,C  37,H  91)     65.0010         0.010907   
    582. D(H  94,C  38,C  37,C  36)    -57.5164         0.010907   
    583. D(H  93,C  38,C  37,H  92)    -65.0791         0.010907   
    584. D(H  93,C  38,C  37,H  91)    179.9428         0.010907   
    585. D(H  93,C  38,C  37,C  36)     57.4254         0.010907   
    586. D(C  39,C  38,C  37,H  92)     57.4346         0.010907   
    587. D(C  39,C  38,C  37,H  91)    -57.5435         0.010907   
    588. D(C  39,C  38,C  37,C  36)    179.9392         0.010907   
    589. D(H  95,C  39,C  38,H  94)    -65.0188         0.010913   
    590. D(H  95,C  39,C  38,H  93)   -179.9952         0.010913   
    591. D(H  95,C  39,C  38,C  37)     57.5080         0.010913   
    592. D(C  40,C  39,C  38,H  94)     57.5062         0.010913   
    593. D(C  40,C  39,C  38,H  93)    -57.4701         0.010913   
    594. D(C  40,C  39,C  38,C  37)   -179.9669         0.010913   
    595. D(H  96,C  39,C  38,H  94)   -179.9631         0.010913   
    596. D(H  96,C  39,C  38,H  93)     65.0605         0.010913   
    597. D(H  96,C  39,C  38,C  37)    -57.4363         0.010913   
    598. D(H  98,C  40,C  39,H  95)     65.1421         0.010830   
    599. D(H  98,C  40,C  39,C  38)    -57.3954         0.010830   
    600. D(H  97,C  40,C  39,H  96)    -65.1660         0.010830   
    601. D(H  97,C  40,C  39,H  95)    179.9119         0.010830   
    602. D(H  97,C  40,C  39,C  38)     57.3744         0.010830   
    603. D(C  41,C  40,C  39,H  96)     57.4465         0.010830   
    604. D(C  41,C  40,C  39,H  95)    -57.4756         0.010830   
    605. D(H  98,C  40,C  39,H  96)   -179.9357         0.010830   
    606. D(C  41,C  40,C  39,C  38)    179.9869         0.010830   
    607. D(H 101,C  41,C  40,H  98)    -62.5545         0.011012   
    608. D(H 101,C  41,C  40,H  97)   -177.9761         0.011012   
    609. D(H 101,C  41,C  40,C  39)     59.7367         0.011012   
    610. D(H 100,C  41,C  40,H  98)    177.9731         0.011012   
    611. D(H 100,C  41,C  40,H  97)     62.5515         0.011012   
    612. D(H 100,C  41,C  40,C  39)    -59.7357         0.011012   
    613. D(H  99,C  41,C  40,H  98)     57.7060         0.011012   
    614. D(H  99,C  41,C  40,H  97)    -57.7156         0.011012   
    615. D(H  99,C  41,C  40,C  39)    179.9972         0.011012   
    616. D(H 102,O  43,C  17,H  65)   -114.9045         0.018497   
    617. D(H 102,O  43,C  17,C  18)    130.9032         0.018497   
    618. D(H 102,O  43,C  17,C  16)      0.3937         0.018497   
    619. D(H 104,C  45,C  13,H  61)    179.0318         0.010502   
    620. D(H 104,C  45,C  13,C  14)    -65.5796         0.010502   
    621. D(H 104,C  45,C  13,N  12)     62.0398         0.010502   
    622. D(H 103,C  45,C  13,H  61)    -66.5634         0.010502   
    623. D(H 103,C  45,C  13,C  14)     48.8252         0.010502   
    624. D(H 103,C  45,C  13,N  12)    176.4446         0.010502   
    625. D(C  46,C  45,C  13,H  61)     56.1437         0.010502   
    626. D(C  46,C  45,C  13,C  14)    171.5322         0.010502   
    627. D(C  46,C  45,C  13,N  12)    -60.8484         0.010502   
    628. D(H 107,C  46,C  45,H 104)    -61.7097         0.011264   
    629. D(H 107,C  46,C  45,H 103)    179.7222         0.011264   
    630. D(H 107,C  46,C  45,C  13)     59.2556         0.011264   
    631. D(H 106,C  46,C  45,H 104)    178.3407         0.011264   
    632. D(H 106,C  46,C  45,H 103)     59.7725         0.011264   
    633. D(H 106,C  46,C  45,C  13)    -60.6941         0.011264   
    634. D(H 105,C  46,C  45,H 104)     58.2597         0.011264   
    635. D(H 105,C  46,C  45,H 103)    -60.3085         0.011264   
    636. D(H 105,C  46,C  45,C  13)    179.2250         0.011264   
    637. D(H 108,C  48,C  10,H  59)     68.0814         0.009634   
    638. D(H 108,C  48,C  10,C  11)   -176.4649         0.009634   
    639. D(H 108,C  48,C  10,N   9)    -46.3442         0.009634   
    640. D(C  50,C  48,C  10,H  59)    -47.2443         0.009634   
    641. D(C  50,C  48,C  10,C  11)     68.2094         0.009634   
    642. D(C  50,C  48,C  10,N   9)   -161.6700         0.009634   
    643. D(C  49,C  48,C  10,H  59)   -174.6072         0.009634   
    644. D(C  49,C  48,C  10,C  11)    -59.1534         0.009634   
    645. D(C  49,C  48,C  10,N   9)     70.9672         0.009634   
    646. D(H 111,C  49,C  48,C  50)     55.8219         0.010693   
    647. D(H 111,C  49,C  48,C  10)   -177.3019         0.010693   
    648. D(H 110,C  49,C  48,H 108)    178.2770         0.010693   
    649. D(H 110,C  49,C  48,C  50)    -63.6096         0.010693   
    650. D(H 110,C  49,C  48,C  10)     63.2666         0.010693   
    651. D(H 109,C  49,C  48,H 108)     57.9567         0.010693   
    652. D(H 109,C  49,C  48,C  50)    176.0701         0.010693   
    653. D(H 111,C  49,C  48,H 108)    -62.2916         0.010693   
    654. D(H 109,C  49,C  48,C  10)    -57.0537         0.010693   
    655. D(H 114,C  50,C  48,H 108)    179.8807         0.010556   
    656. D(H 114,C  50,C  48,C  49)     61.6436         0.010556   
    657. D(H 114,C  50,C  48,C  10)    -67.1680         0.010556   
    658. D(H 113,C  50,C  48,H 108)     59.9097         0.010556   
    659. D(H 113,C  50,C  48,C  49)    -58.3275         0.010556   
    660. D(H 113,C  50,C  48,C  10)    172.8609         0.010556   
    661. D(H 112,C  50,C  48,H 108)    -59.5628         0.010556   
    662. D(H 112,C  50,C  48,C  49)   -177.7999         0.010556   
    663. D(H 112,C  50,C  48,C  10)     53.3885         0.010556   
    -----------------------------------------------------------------

Number of atoms                         .... 115
Number of degrees of freedom            .... 663

Time needed for optimization step       :     1.16 sec

         *************************************************************
         *                GEOMETRY OPTIMIZATION CYCLE   1            *
         *************************************************************
---------------------------------
CARTESIAN COORDINATES (ANGSTROEM)
---------------------------------
  O      0.804229    2.440758   -1.179511
  C      0.273968    2.590380   -2.289392
  C     -1.058363    1.888630   -2.614573
  C     -2.104151    2.061187   -1.490914
  C     -1.887158    0.832859   -0.589784
  C     -1.562593   -0.284184   -1.586159
  N     -0.815911    0.429854   -2.641306
  C      0.020648   -0.088714   -3.574298
  O      0.557780    0.643207   -4.433813
  N      0.826255    3.315751   -3.295191
  C      2.204188    3.830535   -3.278394
  C      3.201685    2.769293   -2.731009
  N      2.949701    1.488998   -3.143611
  C      3.801732    0.379493   -2.732030
  C      3.915222    0.278975   -1.197436
  N      2.859283    0.725843   -0.472726
  C      3.022176    1.060552    0.942425
  C      3.006669   -0.110174    1.931822
  C      1.659272   -0.870995    2.078218
  C      1.185312   -1.720933    0.880470
  N      2.179941   -2.345964    0.196472
  C      1.927130   -3.519582   -0.631575
  C      1.020099   -3.215066   -1.846380
  N      1.065182   -1.929449   -2.323542
  C      0.302695   -1.595863   -3.529583
  C      1.013201   -2.059554   -4.803653
  O      0.368099   -4.095272   -2.406501
  C      1.390542   -4.732579    0.146613
  C      2.382812   -5.423791    1.101699
  C      2.760607   -4.582362    2.334047
  C      1.800864   -6.776654    1.544683
  O     -0.018719   -1.884019    0.631715
  C      0.475661   -0.011135    2.555984
  C     -0.527088   -0.713003    3.449631
  C     -1.793153    0.093964    3.723892
  C     -2.791188   -0.634382    4.629740
  C     -4.076834    0.160473    4.885406
  C     -5.083087   -0.561893    5.788422
  C     -6.370446    0.231657    6.040237
  C     -7.377932   -0.490748    6.942064
  C     -8.666769    0.302392    7.193853
  C     -9.667053   -0.427471    8.095463
  O      0.341073    1.159985    2.224716
  O      4.049909   -1.053079    1.675219
  O      4.912578   -0.256071   -0.674033
  C      5.187985    0.384370   -3.399573
  C      5.100203    0.274714   -4.921552
  O      4.163431    3.059459   -2.017305
  C      2.330229    5.240867   -2.644602
  C      2.123111    5.273382   -1.122988
  C      3.655136    5.906231   -3.053163
  H     -1.434061    2.220969   -3.605246
  H     -3.119703    2.051026   -1.937860
  H     -1.976651    3.020661   -0.954551
  H     -1.020874    1.003732    0.077583
  H     -2.766155    0.592064    0.038225
  H     -0.958755   -1.088934   -1.128031
  H     -2.485645   -0.730303   -2.021469
  H      0.384156    3.198905   -4.209047
  H      2.473327    3.943765   -4.351434
  H      2.145591    1.283053   -3.760442
  H      3.269710   -0.545411   -3.052013
  H      2.133125    1.291834   -0.946219
  H      2.197824    1.745443    1.208543
  H      3.989263    1.595678    1.068109
  H      3.190228    0.358354    2.928846
  H      1.844918   -1.638593    2.864650
  H      3.128747   -2.150185    0.568957
  H      2.910482   -3.792011   -1.076264
  H      1.523394   -1.207969   -1.757210
  H     -0.661761   -2.145871   -3.446385
  H      1.194040   -3.148216   -4.737112
  H      0.389394   -1.853890   -5.694926
  H      1.974674   -1.526676   -4.934713
  H      1.048384   -5.455909   -0.620333
  H      0.477972   -4.417858    0.697163
  H      3.317196   -5.628771    0.527047
  H      3.320730   -3.660922    2.085094
  H      1.847281   -4.282656    2.893451
  H      3.393712   -5.170454    3.030211
  H      1.566330   -7.424013    0.675047
  H      2.506288   -7.326047    2.201414
  H      0.858200   -6.629717    2.114552
  H      0.003306   -0.975487    4.396099
  H     -0.759020   -1.685798    2.963194
  H     -2.273446    0.337966    2.751533
  H     -1.515452    1.074493    4.166310
  H     -2.305375   -0.871886    5.603939
  H     -3.050379   -1.619419    4.178819
  H     -4.560603    0.398033    3.910463
  H     -3.816565    1.145465    5.335608
  H     -4.599298   -0.797944    6.763748
  H     -5.340250   -1.547739    5.337862
  H     -6.853268    0.468327    5.064476
  H     -6.112834    1.217262    6.491145
  H     -6.895052   -0.727356    7.917966
  H     -7.634874   -1.476762    6.491151
  H     -9.145680    0.538433    6.216867
  H     -8.406286    1.287156    7.643190
  H    -10.587076    0.170069    8.258800
  H     -9.973520   -1.399235    7.653720
  H     -9.227818   -0.644158    9.092200
  H      4.572160   -0.711450    0.880762
  H      5.766126   -0.456287   -2.968082
  H      5.708650    1.314021   -3.093853
  H      6.107383    0.293893   -5.383442
  H      4.605564   -0.669459   -5.235106
  H      4.517283    1.113105   -5.355594
  H      1.502480    5.819951   -3.114463
  H      1.141499    4.859569   -0.826535
  H      2.907353    4.682868   -0.612818
  H      2.181471    6.320118   -0.760345
  H      3.785156    5.916999   -4.156282
  H      3.680485    6.958148   -2.703603
  H      4.513038    5.367539   -2.608334

----------------------------
CARTESIAN COORDINATES (A.U.)
----------------------------
  NO LB      ZA    FRAG     MASS         X           Y           Z
   0 O     8.0000    0    15.999    1.519773    4.612364   -2.228953
   1 C     6.0000    0    12.011    0.517725    4.895109   -4.326324
   2 C     6.0000    0    12.011   -2.000016    3.568993   -4.940827
   3 C     6.0000    0    12.011   -3.976269    3.895079   -2.817420
   4 C     6.0000    0    12.011   -3.566212    1.573875   -1.114531
   5 C     6.0000    0    12.011   -2.952874   -0.537030   -2.997407
   6 N     7.0000    0    14.007   -1.541849    0.812306   -4.991344
   7 C     6.0000    0    12.011    0.039020   -0.167646   -6.754445
   8 O     8.0000    0    15.999    1.054051    1.215484   -8.378692
   9 N     7.0000    0    14.007    1.561395    6.265861   -6.227009
  10 C     6.0000    0    12.011    4.165312    7.238662   -6.195268
  11 C     6.0000    0    12.011    6.050307    5.233205   -5.160859
  12 N     7.0000    0    14.007    5.574127    2.813799   -5.940564
  13 C     6.0000    0    12.011    7.184233    0.717137   -5.162789
  14 C     6.0000    0    12.011    7.398697    0.527187   -2.262826
  15 N     7.0000    0    14.007    5.403262    1.371644   -0.893322
  16 C     6.0000    0    12.011    5.711086    2.004152    1.780926
  17 C     6.0000    0    12.011    5.681780   -0.208199    3.650615
  18 C     6.0000    0    12.011    3.135569   -1.645943    3.927264
  19 C     6.0000    0    12.011    2.239915   -3.252091    1.663847
  20 N     7.0000    0    14.007    4.119491   -4.433230    0.371279
  21 C     6.0000    0    12.011    3.641749   -6.651046   -1.193504
  22 C     6.0000    0    12.011    1.927707   -6.075595   -3.489152
  23 N     7.0000    0    14.007    2.012902   -3.646131   -4.390859
  24 C     6.0000    0    12.011    0.572010   -3.015744   -6.669946
  25 C     6.0000    0    12.011    1.914673   -3.891994   -9.077588
  26 O     8.0000    0    15.999    0.695606   -7.738943   -4.547628
  27 C     6.0000    0    12.011    2.627743   -8.943279    0.277059
  28 C     6.0000    0    12.011    4.502862  -10.249480    2.081910
  29 C     6.0000    0    12.011    5.216792   -8.659408    4.410710
  30 C     6.0000    0    12.011    3.403140  -12.806019    2.919028
  31 O     8.0000    0    15.999   -0.035373   -3.560280    1.193768
  32 C     6.0000    0    12.011    0.898869   -0.021042    4.830110
  33 C     6.0000    0    12.011   -0.996052   -1.347380    6.518857
  34 C     6.0000    0    12.011   -3.388569    0.177566    7.037136
  35 C     6.0000    0    12.011   -5.274582   -1.198809    8.748940
  36 C     6.0000    0    12.011   -7.704099    0.303249    9.232080
  37 C     6.0000    0    12.011   -9.605642   -1.061823   10.938533
  38 C     6.0000    0    12.011  -12.038399    0.437768   11.414394
  39 C     6.0000    0    12.011  -13.942272   -0.927380   13.118600
  40 C     6.0000    0    12.011  -16.377819    0.571438   13.594412
  41 C     6.0000    0    12.011  -18.268083   -0.807804   15.298208
  42 O     8.0000    0    15.999    0.644534    2.192055    4.204105
  43 O     8.0000    0    15.999    7.653219   -1.990032    3.165705
  44 O     8.0000    0    15.999    9.283426   -0.483904   -1.273737
  45 C     6.0000    0    12.011    9.803871    0.726354   -6.424262
  46 C     6.0000    0    12.011    9.637987    0.519134   -9.300386
  47 O     8.0000    0    15.999    7.867744    5.781539   -3.812154
  48 C     6.0000    0    12.011    4.403494    9.903802   -4.997574
  49 C     6.0000    0    12.011    4.012099    9.965248   -2.122140
  50 C     6.0000    0    12.011    6.907206   11.161159   -5.769643
  51 H     1.0000    0     1.008   -2.709983    4.197024   -6.812928
  52 H     1.0000    0     1.008   -5.895384    3.875876   -3.662025
  53 H     1.0000    0     1.008   -3.735330    5.708223   -1.803840
  54 H     1.0000    0     1.008   -1.929172    1.896778    0.146611
  55 H     1.0000    0     1.008   -5.227275    1.118839    0.072235
  56 H     1.0000    0     1.008   -1.811784   -2.057786   -2.131670
  57 H     1.0000    0     1.008   -4.697189   -1.380072   -3.820022
  58 H     1.0000    0     1.008    0.725949    6.045055   -7.953946
  59 H     1.0000    0     1.008    4.673912    7.452635   -8.223019
  60 H     1.0000    0     1.008    4.054579    2.424619   -7.106205
  61 H     1.0000    0     1.008    6.178857   -1.030677   -5.767469
  62 H     1.0000    0     1.008    4.031022    2.441212   -1.788095
  63 H     1.0000    0     1.008    4.153286    3.298410    2.283815
  64 H     1.0000    0     1.008    7.538614    3.015394    2.018434
  65 H     1.0000    0     1.008    6.028657    0.677190    5.534716
  66 H     1.0000    0     1.008    3.486390   -3.096492    5.413404
  67 H     1.0000    0     1.008    5.912474   -4.063261    1.075173
  68 H     1.0000    0     1.008    5.500015   -7.165861   -2.033844
  69 H     1.0000    0     1.008    2.878798   -2.282731   -3.320645
  70 H     1.0000    0     1.008   -1.250547   -4.055109   -6.512723
  71 H     1.0000    0     1.008    2.256409   -5.949267   -8.951845
  72 H     1.0000    0     1.008    0.735848   -3.503343  -10.761850
  73 H     1.0000    0     1.008    3.731593   -2.884999   -9.325256
  74 H     1.0000    0     1.008    1.981159  -10.310175   -1.172260
  75 H     1.0000    0     1.008    0.903237   -8.348541    1.317447
  76 H     1.0000    0     1.008    6.268591  -10.636835    0.995975
  77 H     1.0000    0     1.008    6.275270   -6.918139    3.940256
  78 H     1.0000    0     1.008    3.490854   -8.093047    5.467830
  79 H     1.0000    0     1.008    6.413186   -9.770741    5.726269
  80 H     1.0000    0     1.008    2.959934  -14.029352    1.275655
  81 H     1.0000    0     1.008    4.736199  -13.844223    4.160070
  82 H     1.0000    0     1.008    1.621763  -12.528350    3.995924
  83 H     1.0000    0     1.008    0.006247   -1.843403    8.307422
  84 H     1.0000    0     1.008   -1.434341   -3.185696    5.599625
  85 H     1.0000    0     1.008   -4.296190    0.638663    5.199644
  86 H     1.0000    0     1.008   -2.863790    2.030498    7.873185
  87 H     1.0000    0     1.008   -4.356526   -1.647626   10.589909
  88 H     1.0000    0     1.008   -5.764380   -3.060258    7.896823
  89 H     1.0000    0     1.008   -8.618291    0.752174    7.389704
  90 H     1.0000    0     1.008   -7.212262    2.164616   10.082838
  91 H     1.0000    0     1.008   -8.691414   -1.507896   12.781632
  92 H     1.0000    0     1.008  -10.091609   -2.924803   10.087098
  93 H     1.0000    0     1.008  -12.950799    0.885009    9.570472
  94 H     1.0000    0     1.008  -11.551583    2.300293   12.266486
  95 H     1.0000    0     1.008  -13.029761   -1.374503   14.962788
  96 H     1.0000    0     1.008  -14.427821   -2.790676   12.266498
  97 H     1.0000    0     1.008  -17.282831    1.017490   11.748177
  98 H     1.0000    0     1.008  -15.885579    2.432373   14.443536
  99 H     1.0000    0     1.008  -20.006675    0.321384   15.606871
 100 H     1.0000    0     1.008  -18.847222   -2.644172   14.463434
 101 H     1.0000    0     1.008  -17.438049   -1.217282   17.181769
 102 H     1.0000    0     1.008    8.640129   -1.344446    1.664400
 103 H     1.0000    0     1.008   10.896398   -0.862258   -5.608862
 104 H     1.0000    0     1.008   10.787784    2.483140   -5.846535
 105 H     1.0000    0     1.008   11.541281    0.555377  -10.173232
 106 H     1.0000    0     1.008    8.703255   -1.265094   -9.892916
 107 H     1.0000    0     1.008    8.536427    2.103464  -10.120606
 108 H     1.0000    0     1.008    2.839276   10.998113   -5.885482
 109 H     1.0000    0     1.008    2.157121    9.183255   -1.561924
 110 H     1.0000    0     1.008    5.494102    8.849338   -1.158058
 111 H     1.0000    0     1.008    4.122383   11.943292   -1.436844
 112 H     1.0000    0     1.008    7.152909   11.181507   -7.854235
 113 H     1.0000    0     1.008    6.955108   13.148994   -5.109069
 114 H     1.0000    0     1.008    8.528405   10.143178   -4.929037

--------------------------------
INTERNAL COORDINATES (ANGSTROEM)
--------------------------------
 O      0   0   0     0.000000000000     0.00000000     0.00000000
 C      1   0   0     1.239112430517     0.00000000     0.00000000
 C      2   1   0     1.540552789606   120.27552469     0.00000000
 C      3   2   1     1.544686874257   112.40075828    47.39658933
 C      4   3   2     1.538802222878   103.96611120   268.33470036
 C      5   4   3     1.531630078576   103.36149856   322.98838106
 N      6   5   4     1.476725417534   102.66907859    34.34193769
 C      7   6   5     1.356178421285   128.21172086   160.24023530
 O      8   7   6     1.250193381921   120.93981287   178.01909544
 N      2   1   3     1.357502922813   123.64637251   182.59181617
 C     10   2   1     1.471049013820   124.02931860    10.25843124
 C     11  10   2     1.555912916149   111.45992959    42.45906915
 N     12  11  10     1.368535834963   114.45510141    39.38884738
 C     13  12  11     1.458203934418   121.27385716   179.26699070
 C     14  13  12     1.542064617675   111.93059492    55.72646395
 N     15  14  13     1.356429520296   116.93138138    28.92231742
 C     16  15  14     1.463289590838   120.35780043   199.13661261
 C     17  16  15     1.532888325222   116.64050737   279.36476997
 C     18  17  16     1.554271130925   116.32210950   293.24618479
 C     19  18  17     1.543253851087   117.56330730    69.18215087
 N     20  19  18     1.359339352100   114.77448343    36.07890351
 C     21  20  19     1.458407904843   121.92942202   158.19818817
 C     22  21  20     1.546346501053   112.90785232    65.00701920
 N     23  22  21     1.372052271069   116.00539187    27.70786952
 C     24  23  22     1.465333085386   118.84535427   175.77701604
 C     25  24  23     1.530713060174   111.99729919   281.34987455
 O     23  22  21     1.230285078074   121.84539463   202.91625783
 C     22  21  20     1.537812331264   114.07446387   297.93408719
 C     28  22  21     1.540961870614   116.28070150   290.23748634
 C     29  28  22     1.539290453923   114.14530063    69.03091758
 C     29  28  22     1.537899207101   109.23561231   192.71964486
 O     20  19  18     1.240228321385   121.75194300   211.37929179
 C     19  18  17     1.539011123430   114.98986195   299.97395757
 C     33  19  18     1.515496017932   115.66887065   214.55108724
 C     34  33  19     1.526216376576   114.20304698   189.16567742
 C     35  34  33     1.532032131831   113.28389190   180.04529708
 C     36  35  34     1.532984899692   113.48110122   181.15594780
 C     37  36  35     1.532904151989   113.85547249   179.86896875
 C     38  37  36     1.533109744887   113.83181868   180.17839913
 C     39  38  37     1.533032752910   113.86317434   179.93917012
 C     40  39  38     1.534134298007   113.89314398   180.03308876
 C     41  40  39     1.531721222990   113.50871936   179.98688632
 O     33  19  18     1.224489667572   122.33751833    35.38637611
 O     18  17  16     1.429428745794   112.36715836    59.95318340
 O     15  14  13     1.246974029220   120.30065230   205.34126560
 C     14  13  12     1.538614227750   113.67646018   288.35723506
 C     46  14  13     1.528447046329   112.33688780   299.15164189
 O     12  11  10     1.232284573158   122.92242608   217.32491071
 C     11  10   2     1.551326715453   113.50988898   270.53566640
 C     49  11  10     1.535989534465   114.39433689    70.96716743
 C     49  11  10     1.537859467031   110.78065840   198.33002473
 H      3   2   1     1.110420309451   110.15701095   174.02435869
 H      4   3   2     1.109599098897   109.00233760   149.94843170
 H      4   3   2     1.106585940402   111.80457492    30.65101109
 H      5   4   3     1.106808199677   109.89118527    80.14749471
 H      5   4   3     1.106803194646   113.20052184   201.29769386
 H      6   5   4     1.105497160803   112.15218788   154.54598126
 H      6   5   4     1.113795511978   111.76201875   277.10049555
 H     10   2   1     1.021879055040   115.18133532   167.89451088
 H     11  10   2     1.112057037752   104.55525671   155.02631659
 H     13  12  11     1.034159727794   120.61695330   359.35946405
 H     14  13  12     1.113949300867   105.75984633   170.09278535
 H     16  15  14     1.035300739716   118.80108376   346.79112557
 H     17  16  15     1.104287788481   106.96712638   158.27774671
 H     17  16  15     1.112390459662   108.42625017    41.01679614
 H     18  17  16     1.116811444352   104.72310353   177.50837458
 H     19  18  17     1.114515838892   105.02239322   182.53787203
 H     21  20  19     1.037933983392   113.67573450   359.04483233
 H     22  21  20     1.113079993675   105.70282181   178.81039446
 H     24  23  22     1.025292992000   118.81220250   347.49565054
 H     25  24  23     1.113375851388   106.06852714    39.35133773
 H     26  25  24     1.105583558366   108.91210368    56.80584762
 H     26  25  24     1.107159452096   110.62449332   176.43295266
 H     26  25  24     1.107052730253   110.84573059   295.87808558
 H     28  22  21     1.108370590696   105.80260790   168.36931925
 H     28  22  21     1.111277598974   108.29138974    55.18994617
 H     29  28  22     1.115936492778   107.60150261   309.33696658
 H     30  29  28     1.106691667070   113.53170473   294.75351152
 H     30  29  28     1.112169653053   110.39186701    55.82466534
 H     30  29  28     1.109647816553   110.64629045   174.33402502
 H     31  29  28     1.109210605190   111.56654848    56.75342286
 H     31  29  28     1.109392725832   111.44063344   177.60479534
 H     31  29  28     1.111285978918   110.63315555   297.19245693
 H     34  33  19     1.116251216732   107.12709647    65.21004895
 H     34  33  19     1.112089467531   106.56991939   312.86306745
 H     35  34  33     1.111620118695   108.49904030    57.74264836
 H     35  34  33     1.110985636724   109.32087769   303.49109789
 H     36  35  34     1.114220109865   109.52799973    58.72695852
 H     36  35  34     1.113914824612   109.42888946   303.55207114
 H     37  36  35     1.113993844415   109.19662492    57.37762545
 H     37  36  35     1.113836680279   109.26667362   302.49384466
 H     38  37  36     1.114016488358   109.30084821    57.66074239
 H     38  37  36     1.114015555712   109.28708245   302.69443475
 H     39  38  37     1.114109219777   109.26899233    57.42541588
 H     39  38  37     1.114046697082   109.28325112   302.48362258
 H     40  39  38     1.114244659285   109.29823528    57.50801829
 H     40  39  38     1.114255329544   109.29786278   302.56370626
 H     41  40  39     1.113360839716   109.08419489    57.37438797
 H     41  40  39     1.113335261611   109.08526626   302.60463930
 H     42  41  40     1.109133098184   111.81883365   179.99716397
 H     42  41  40     1.110578507900   111.28567566   300.26431639
 H     42  41  40     1.110570393380   111.28332910    59.73666698
 H     44  18  17     1.010256020520   107.18090983     0.39373715
 H     46  14  13     1.107761569306   107.38660277   176.44460393
 H     46  14  13     1.108516144710   107.82957252    62.03982222
 H     47  46  14     1.108206145983   111.19782615   179.22496854
 H     47  46  14     1.111056459602   111.56481425   299.30591315
 H     47  46  14     1.109543997730   111.43815602    59.25558402
 H     49  11  10     1.114125660558   103.87858119   313.65575212
 H     50  49  11     1.105752239413   112.17113872   302.94628125
 H     50  49  11     1.106352852340   110.48299005    63.26660912
 H     50  49  11     1.109311396034   109.67775319   182.69806652
 H     51  49  11     1.110806811567   111.64570475    53.38850053
 H     51  49  11     1.108766930768   110.26796466   172.86091267
 H     51  49  11     1.106371326034   110.52210881   292.83200824

---------------------------
INTERNAL COORDINATES (A.U.)
---------------------------
 O      0   0   0     0.000000000000     0.00000000     0.00000000
 C      1   0   0     2.341583142815     0.00000000     0.00000000
 C      2   1   0     2.911222867204   120.27552469     0.00000000
 C      3   2   1     2.919035155008   112.40075828    47.39658933
 C      4   3   2     2.907914775508   103.96611120   268.33470036
 C      5   4   3     2.894361386985   103.36149856   322.98838106
 N      6   5   4     2.790606614140   102.66907859    34.34193769
 C      7   6   5     2.562805804962   128.21172086   160.24023530
 O      8   7   6     2.362523106271   120.93981287   178.01909544
 N      2   1   3     2.565308750115   123.64637251   182.59181617
 C     10   2   1     2.779879765694   124.02931860    10.25843124
 C     11  10   2     2.940249299753   111.45992959    42.45906915
 N     12  11  10     2.586157932537   114.45510141    39.38884738
 C     13  12  11     2.755606083456   121.27385716   179.26699070
 C     14  13  12     2.914079808216   111.93059492    55.72646395
 N     15  14  13     2.563280313326   116.93138138    28.92231742
 C     16  15  14     2.765216581302   120.35780043   199.13661261
 C     17  16  15     2.896739128554   116.64050737   279.36476997
 C     18  17  16     2.937146775308   116.32210950   293.24618479
 C     19  18  17     2.916327133674   117.56330730    69.18215087
 N     20  19  18     2.568779098530   114.77448343    36.07890351
 C     21  20  19     2.755991531700   121.92942202   158.19818817
 C     22  21  20     2.922171395138   112.90785232    65.00701920
 N     23  22  21     2.592803033745   116.00539187    27.70786952
 C     24  23  22     2.769078226353   118.84535427   175.77701604
 C     25  24  23     2.892628473345   111.99729919   281.34987455
 O     23  22  21     2.324901864209   121.84539463   202.91625783
 C     22  21  20     2.906044151455   114.07446387   297.93408719
 C     28  22  21     2.911995918275   116.28070150   290.23748634
 C     29  28  22     2.908837398473   114.14530063    69.03091758
 C     29  28  22     2.906208322996   109.23561231   192.71964486
 O     20  19  18     2.343691870950   121.75194300   211.37929179
 C     19  18  17     2.908309540341   114.98986195   299.97395757
 C     33  19  18     2.863872430940   115.66887065   214.55108724
 C     34  33  19     2.884130972833   114.20304698   189.16567742
 C     35  34  33     2.895121157529   113.28389190   180.04529708
 C     36  35  34     2.896921627855   113.48110122   181.15594780
 C     37  36  35     2.896769036810   113.85547249   179.86896875
 C     38  37  36     2.897157551083   113.83181868   180.17839913
 C     39  38  37     2.897012057332   113.86317434   179.93917012
 C     40  39  38     2.899093675889   113.89314398   180.03308876
 C     41  40  39     2.894533624966   113.50871936   179.98688632
 O     33  19  18     2.313950125527   122.33751833    35.38637611
 O     18  17  16     2.701228857506   112.36715836    59.95318340
 O     15  14  13     2.356439411338   120.30065230   205.34126560
 C     14  13  12     2.907559516202   113.67646018   288.35723506
 C     46  14  13     2.888346327762   112.33688780   299.15164189
 O     12  11  10     2.328680362326   122.92242608   217.32491071
 C     11  10   2     2.931582636443   113.50988898   270.53566640
 C     49  11  10     2.902599564709   114.39433689    70.96716743
 C     49  11  10     2.906133225146   110.78065840   198.33002473
 H      3   2   1     2.098390278407   110.15701095   174.02435869
 H      4   3   2     2.096838415361   109.00233760   149.94843170
 H      4   3   2     2.091144371008   111.80457492    30.65101109
 H      5   4   3     2.091564380168   109.89118527    80.14749471
 H      5   4   3     2.091554922029   113.20052184   201.29769386
 H      6   5   4     2.089086875745   112.15218788   154.54598126
 H      6   5   4     2.104768486830   111.76201875   277.10049555
 H     10   2   1     1.931071556016   115.18133532   167.89451088
[...]
freq.      88.65  E(vib)   ...       0.47 
freq.      89.89  E(vib)   ...       0.47 
freq.     103.62  E(vib)   ...       0.46 
freq.     106.96  E(vib)   ...       0.45 
freq.     111.91  E(vib)   ...       0.45 
freq.     115.28  E(vib)   ...       0.44 
freq.     119.39  E(vib)   ...       0.44 
freq.     122.24  E(vib)   ...       0.43 
freq.     135.64  E(vib)   ...       0.42 
freq.     141.24  E(vib)   ...       0.41 
freq.     146.05  E(vib)   ...       0.41 
freq.     148.88  E(vib)   ...       0.40 
freq.     151.34  E(vib)   ...       0.40 
freq.     154.68  E(vib)   ...       0.40 
freq.     160.90  E(vib)   ...       0.39 
freq.     166.01  E(vib)   ...       0.39 
freq.     169.21  E(vib)   ...       0.38 
freq.     174.31  E(vib)   ...       0.38 
freq.     185.81  E(vib)   ...       0.37 
freq.     186.74  E(vib)   ...       0.37 
freq.     190.95  E(vib)   ...       0.36 
freq.     199.01  E(vib)   ...       0.35 
freq.     208.94  E(vib)   ...       0.34 
freq.     211.80  E(vib)   ...       0.34 
freq.     218.63  E(vib)   ...       0.33 
freq.     224.33  E(vib)   ...       0.33 
freq.     227.32  E(vib)   ...       0.33 
freq.     229.25  E(vib)   ...       0.32 
freq.     233.61  E(vib)   ...       0.32 
freq.     236.79  E(vib)   ...       0.32 
freq.     237.14  E(vib)   ...       0.32 
freq.     240.76  E(vib)   ...       0.31 
freq.     255.47  E(vib)   ...       0.30 
freq.     258.58  E(vib)   ...       0.30 
freq.     262.90  E(vib)   ...       0.29 
freq.     266.59  E(vib)   ...       0.29 
freq.     273.73  E(vib)   ...       0.28 
freq.     276.40  E(vib)   ...       0.28 
freq.     283.42  E(vib)   ...       0.28 
freq.     295.21  E(vib)   ...       0.27 
freq.     302.19  E(vib)   ...       0.26 
freq.     311.00  E(vib)   ...       0.26 
freq.     320.67  E(vib)   ...       0.25 
freq.     325.12  E(vib)   ...       0.24 
freq.     328.43  E(vib)   ...       0.24 
freq.     333.42  E(vib)   ...       0.24 
freq.     335.19  E(vib)   ...       0.24 
freq.     340.26  E(vib)   ...       0.23 
freq.     355.22  E(vib)   ...       0.22 
freq.     368.89  E(vib)   ...       0.21 
freq.     377.07  E(vib)   ...       0.21 
freq.     387.81  E(vib)   ...       0.20 
freq.     404.51  E(vib)   ...       0.19 
freq.     411.23  E(vib)   ...       0.19 
freq.     415.88  E(vib)   ...       0.18 
freq.     432.85  E(vib)   ...       0.17 
freq.     440.08  E(vib)   ...       0.17 
freq.     443.47  E(vib)   ...       0.17 
freq.     449.78  E(vib)   ...       0.17 
freq.     459.50  E(vib)   ...       0.16 
freq.     461.82  E(vib)   ...       0.16 
freq.     476.03  E(vib)   ...       0.15 
freq.     500.63  E(vib)   ...       0.14 
freq.     506.86  E(vib)   ...       0.14 
freq.     523.04  E(vib)   ...       0.13 
freq.     534.47  E(vib)   ...       0.13 
freq.     536.73  E(vib)   ...       0.12 
freq.     540.41  E(vib)   ...       0.12 
freq.     545.90  E(vib)   ...       0.12 
freq.     571.24  E(vib)   ...       0.11 
freq.     593.77  E(vib)   ...       0.10 
freq.     603.81  E(vib)   ...       0.10 
freq.     609.50  E(vib)   ...       0.10 
freq.     623.61  E(vib)   ...       0.09 
freq.     666.11  E(vib)   ...       0.08 
freq.     674.92  E(vib)   ...       0.08 
freq.     687.99  E(vib)   ...       0.07 
freq.     698.54  E(vib)   ...       0.07 
freq.     710.90  E(vib)   ...       0.07 
freq.     712.02  E(vib)   ...       0.07 
freq.     716.19  E(vib)   ...       0.07 
freq.     722.20  E(vib)   ...       0.07 
freq.     722.81  E(vib)   ...       0.07 
freq.     731.05  E(vib)   ...       0.06 
freq.     739.87  E(vib)   ...       0.06 
freq.     746.79  E(vib)   ...       0.06 
freq.     753.76  E(vib)   ...       0.06 
freq.     755.47  E(vib)   ...       0.06 
freq.     763.88  E(vib)   ...       0.06 
freq.     774.30  E(vib)   ...       0.05 
freq.     789.15  E(vib)   ...       0.05 
freq.     794.46  E(vib)   ...       0.05 
freq.     801.18  E(vib)   ...       0.05 
freq.     814.96  E(vib)   ...       0.05 
freq.     815.65  E(vib)   ...       0.05 
freq.     824.66  E(vib)   ...       0.04 
freq.     831.54  E(vib)   ...       0.04 
freq.     847.25  E(vib)   ...       0.04 
freq.     857.22  E(vib)   ...       0.04 
freq.     858.13  E(vib)   ...       0.04 
freq.     862.67  E(vib)   ...       0.04 
freq.     877.07  E(vib)   ...       0.04 
freq.     878.33  E(vib)   ...       0.04 
freq.     880.30  E(vib)   ...       0.04 
freq.     883.03  E(vib)   ...       0.04 
freq.     889.28  E(vib)   ...       0.04 
freq.     896.77  E(vib)   ...       0.03 
freq.     901.02  E(vib)   ...       0.03 
freq.     903.45  E(vib)   ...       0.03 
freq.     907.23  E(vib)   ...       0.03 
freq.     911.82  E(vib)   ...       0.03 
freq.     916.46  E(vib)   ...       0.03 
freq.     928.50  E(vib)   ...       0.03 
freq.     933.13  E(vib)   ...       0.03 
freq.     938.38  E(vib)   ...       0.03 
freq.     940.84  E(vib)   ...       0.03 
freq.     942.34  E(vib)   ...       0.03 
freq.     948.25  E(vib)   ...       0.03 
freq.     953.94  E(vib)   ...       0.03 
freq.     956.47  E(vib)   ...       0.03 
freq.     965.78  E(vib)   ...       0.03 
freq.     979.06  E(vib)   ...       0.03 
freq.     981.68  E(vib)   ...       0.02 
freq.     986.01  E(vib)   ...       0.02 
freq.     987.09  E(vib)   ...       0.02 
freq.    1000.80  E(vib)   ...       0.02 
freq.    1004.10  E(vib)   ...       0.02 
freq.    1019.79  E(vib)   ...       0.02 
freq.    1023.18  E(vib)   ...       0.02 
freq.    1027.48  E(vib)   ...       0.02 
freq.    1036.82  E(vib)   ...       0.02 
freq.    1038.37  E(vib)   ...       0.02 
freq.    1045.44  E(vib)   ...       0.02 
freq.    1049.10  E(vib)   ...       0.02 
freq.    1050.48  E(vib)   ...       0.02 
freq.    1052.21  E(vib)   ...       0.02 
freq.    1056.39  E(vib)   ...       0.02 
freq.    1065.61  E(vib)   ...       0.02 
freq.    1075.56  E(vib)   ...       0.02 
freq.    1076.05  E(vib)   ...       0.02 
freq.    1076.84  E(vib)   ...       0.02 
freq.    1082.76  E(vib)   ...       0.02 
freq.    1084.52  E(vib)   ...       0.02 
freq.    1101.22  E(vib)   ...       0.02 
freq.    1107.52  E(vib)   ...       0.02 
freq.    1110.07  E(vib)   ...       0.02 
freq.    1112.99  E(vib)   ...       0.01 
freq.    1114.86  E(vib)   ...       0.01 
freq.    1118.67  E(vib)   ...       0.01 
freq.    1121.83  E(vib)   ...       0.01 
freq.    1132.99  E(vib)   ...       0.01 
freq.    1139.99  E(vib)   ...       0.01 
freq.    1141.07  E(vib)   ...       0.01 
freq.    1156.20  E(vib)   ...       0.01 
freq.    1156.95  E(vib)   ...       0.01 
freq.    1168.87  E(vib)   ...       0.01 
freq.    1170.92  E(vib)   ...       0.01 
freq.    1178.59  E(vib)   ...       0.01 
freq.    1181.45  E(vib)   ...       0.01 
freq.    1190.99  E(vib)   ...       0.01 
freq.    1200.84  E(vib)   ...       0.01 
freq.    1208.14  E(vib)   ...       0.01 
freq.    1209.07  E(vib)   ...       0.01 
freq.    1215.58  E(vib)   ...       0.01 
freq.    1220.39  E(vib)   ...       0.01 
freq.    1222.26  E(vib)   ...       0.01 
freq.    1228.88  E(vib)   ...       0.01 
freq.    1232.46  E(vib)   ...       0.01 
freq.    1235.39  E(vib)   ...       0.01 
freq.    1238.97  E(vib)   ...       0.01 
freq.    1241.90  E(vib)   ...       0.01 
freq.    1250.19  E(vib)   ...       0.01 
freq.    1251.50  E(vib)   ...       0.01 
freq.    1254.13  E(vib)   ...       0.01 
freq.    1257.31  E(vib)   ...       0.01 
freq.    1265.73  E(vib)   ...       0.01 
freq.    1267.95  E(vib)   ...       0.01 
freq.    1269.60  E(vib)   ...       0.01 
freq.    1275.69  E(vib)   ...       0.01 
freq.    1282.11  E(vib)   ...       0.01 
freq.    1282.98  E(vib)   ...       0.01 
freq.    1286.40  E(vib)   ...       0.01 
freq.    1286.80  E(vib)   ...       0.01 
freq.    1287.52  E(vib)   ...       0.01 
freq.    1287.95  E(vib)   ...       0.01 
freq.    1294.05  E(vib)   ...       0.01 
freq.    1295.80  E(vib)   ...       0.01 
freq.    1308.63  E(vib)   ...       0.01 
freq.    1311.63  E(vib)   ...       0.01 
freq.    1312.47  E(vib)   ...       0.01 
freq.    1313.67  E(vib)   ...       0.01 
freq.    1319.18  E(vib)   ...       0.01 
freq.    1320.21  E(vib)   ...       0.01 
freq.    1322.10  E(vib)   ...       0.01 
freq.    1324.12  E(vib)   ...       0.01 
freq.    1326.30  E(vib)   ...       0.01 
freq.    1327.55  E(vib)   ...       0.01 
freq.    1331.46  E(vib)   ...       0.01 
freq.    1335.01  E(vib)   ...       0.01 
freq.    1335.56  E(vib)   ...       0.01 
freq.    1337.35  E(vib)   ...       0.01 
freq.    1343.60  E(vib)   ...       0.01 
freq.    1346.54  E(vib)   ...       0.01 
freq.    1349.70  E(vib)   ...       0.01 
freq.    1350.03  E(vib)   ...       0.01 
freq.    1350.86  E(vib)   ...       0.01 
freq.    1352.09  E(vib)   ...       0.01 
freq.    1356.04  E(vib)   ...       0.01 
freq.    1358.33  E(vib)   ...       0.01 
freq.    1363.40  E(vib)   ...       0.01 
freq.    1363.84  E(vib)   ...       0.01 
freq.    1370.74  E(vib)   ...       0.01 
freq.    1372.31  E(vib)   ...       0.01 
freq.    1391.58  E(vib)   ...       0.00 
freq.    1415.13  E(vib)   ...       0.00 
freq.    1417.28  E(vib)   ...       0.00 
freq.    1429.66  E(vib)   ...       0.00 
freq.    1432.76  E(vib)   ...       0.00 
freq.    1433.14  E(vib)   ...       0.00 
freq.    1433.20  E(vib)   ...       0.00 
freq.    1433.60  E(vib)   ...       0.00 
freq.    1436.91  E(vib)   ...       0.00 
freq.    1438.46  E(vib)   ...       0.00 
freq.    1438.83  E(vib)   ...       0.00 
freq.    1440.70  E(vib)   ...       0.00 
freq.    1441.40  E(vib)   ...       0.00 
freq.    1444.21  E(vib)   ...       0.00 
freq.    1445.36  E(vib)   ...       0.00 
freq.    1447.16  E(vib)   ...       0.00 
freq.    1448.57  E(vib)   ...       0.00 
freq.    1449.62  E(vib)   ...       0.00 
freq.    1450.27  E(vib)   ...       0.00 
freq.    1450.99  E(vib)   ...       0.00 
freq.    1452.23  E(vib)   ...       0.00 
freq.    1452.96  E(vib)   ...       0.00 
freq.    1456.20  E(vib)   ...       0.00 
freq.    1457.22  E(vib)   ...       0.00 
freq.    1457.69  E(vib)   ...       0.00 
freq.    1460.09  E(vib)   ...       0.00 
freq.    1464.64  E(vib)   ...       0.00 
freq.    1464.80  E(vib)   ...       0.00 
freq.    1469.65  E(vib)   ...       0.00 
freq.    1470.74  E(vib)   ...       0.00 
freq.    1479.89  E(vib)   ...       0.00 
freq.    1492.79  E(vib)   ...       0.00 
freq.    1503.65  E(vib)   ...       0.00 
freq.    1510.90  E(vib)   ...       0.00 
freq.    1513.19  E(vib)   ...       0.00 
freq.    1606.50  E(vib)   ...       0.00 
freq.    1632.46  E(vib)   ...       0.00 
freq.    1649.55  E(vib)   ...       0.00 
freq.    1670.01  E(vib)   ...       0.00 
freq.    1677.45  E(vib)   ...       0.00 
freq.    1682.74  E(vib)   ...       0.00 
freq.    1717.04  E(vib)   ...       0.00 
freq.    2899.30  E(vib)   ...       0.00 
freq.    2913.37  E(vib)   ...       0.00 
freq.    2919.72  E(vib)   ...       0.00 
freq.    2924.43  E(vib)   ...       0.00 
freq.    2925.74  E(vib)   ...       0.00 
freq.    2926.21  E(vib)   ...       0.00 
freq.    2926.37  E(vib)   ...       0.00 
freq.    2931.76  E(vib)   ...       0.00 
freq.    2932.15  E(vib)   ...       0.00 
freq.    2938.84  E(vib)   ...       0.00 
freq.    2939.32  E(vib)   ...       0.00 
freq.    2941.15  E(vib)   ...       0.00 
freq.    2941.85  E(vib)   ...       0.00 
freq.    2944.21  E(vib)   ...       0.00 
freq.    2945.89  E(vib)   ...       0.00 
freq.    2950.93  E(vib)   ...       0.00 
freq.    2953.72  E(vib)   ...       0.00 
freq.    2953.83  E(vib)   ...       0.00 
freq.    2954.77  E(vib)   ...       0.00 
freq.    2955.14  E(vib)   ...       0.00 
freq.    2955.26  E(vib)   ...       0.00 
freq.    2956.74  E(vib)   ...       0.00 
freq.    2958.82  E(vib)   ...       0.00 
freq.    2961.01  E(vib)   ...       0.00 
freq.    2962.25  E(vib)   ...       0.00 
freq.    2965.01  E(vib)   ...       0.00 
freq.    2966.22  E(vib)   ...       0.00 
freq.    2970.64  E(vib)   ...       0.00 
freq.    2977.14  E(vib)   ...       0.00 
freq.    2977.27  E(vib)   ...       0.00 
freq.    2977.77  E(vib)   ...       0.00 
freq.    2981.37  E(vib)   ...       0.00 
freq.    2986.35  E(vib)   ...       0.00 
freq.    2987.72  E(vib)   ...       0.00 
freq.    2988.67  E(vib)   ...       0.00 
freq.    2999.86  E(vib)   ...       0.00 
freq.    3007.32  E(vib)   ...       0.00 
freq.    3011.55  E(vib)   ...       0.00 
freq.    3013.10  E(vib)   ...       0.00 
freq.    3014.92  E(vib)   ...       0.00 
freq.    3018.58  E(vib)   ...       0.00 
freq.    3020.11  E(vib)   ...       0.00 
freq.    3022.57  E(vib)   ...       0.00 
freq.    3025.41  E(vib)   ...       0.00 
freq.    3027.40  E(vib)   ...       0.00 
freq.    3031.43  E(vib)   ...       0.00 
freq.    3037.36  E(vib)   ...       0.00 
freq.    3046.04  E(vib)   ...       0.00 
freq.    3046.96  E(vib)   ...       0.00 
freq.    3047.41  E(vib)   ...       0.00 
freq.    3048.44  E(vib)   ...       0.00 
freq.    3058.33  E(vib)   ...       0.00 
freq.    3059.78  E(vib)   ...       0.00 
freq.    3063.24  E(vib)   ...       0.00 
freq.    3065.71  E(vib)   ...       0.00 
freq.    3067.90  E(vib)   ...       0.00 
freq.    3070.23  E(vib)   ...       0.00 
freq.    3072.14  E(vib)   ...       0.00 
freq.    3074.44  E(vib)   ...       0.00 
freq.    3291.21  E(vib)   ...       0.00 
freq.    3293.78  E(vib)   ...       0.00 
freq.    3306.58  E(vib)   ...       0.00 
freq.    3463.56  E(vib)   ...       0.00 
freq.    3509.13  E(vib)   ...       0.00 

------------
INNER ENERGY
------------

The inner energy is: U= E(el) + E(ZPE) + E(vib) + E(rot) + E(trans)
    E(el)   - is the total energy from the electronic structure calculation
              = E(kin-el) + E(nuc-el) + E(el-el) + E(nuc-nuc)
    E(ZPE)  - the the zero temperature vibrational energy from the frequency calculation
    E(vib)  - the the finite temperature correction to E(ZPE) due to population
              of excited vibrational states
    E(rot)  - is the rotational thermal energy
    E(trans)- is the translational thermal energy

Summary of contributions to the inner energy U:
Electronic energy                ...  -2380.08563438 Eh
Zero point energy                ...      0.97762189 Eh     613.47 kcal/mol
Thermal vibrational correction   ...      0.05504642 Eh      34.54 kcal/mol
Thermal rotational correction    ...      0.00141627 Eh       0.89 kcal/mol
Thermal translational correction ...      0.00141627 Eh       0.89 kcal/mol
-----------------------------------------------------------------------
Total thermal energy                  -2379.05013353 Eh


Summary of corrections to the electronic energy:
(perhaps to be used in another calculation)
Total thermal correction                  0.05787897 Eh      36.32 kcal/mol
Non-thermal (ZPE) correction              0.97762189 Eh     613.47 kcal/mol
-----------------------------------------------------------------------
Total correction                          1.03550085 Eh     649.79 kcal/mol


--------
ENTHALPY
--------

The enthalpy is H = U + kB*T
                kB is Boltzmann's constant
Total free energy                 ...  -2379.05013353 Eh 
Thermal Enthalpy correction       ...      0.00094421 Eh       0.59 kcal/mol
-----------------------------------------------------------------------
Total Enthalpy                    ...  -2379.04918932 Eh


Note: Only C1 symmetry has been detected, increase convergence thresholds 
      if your molecule has a higher symmetry. Symmetry factor of 1.0 is   
      used for the rotational entropy correction. 
 

Note: Rotational entropy computed according to Herzberg 
Infrared and Raman Spectra, Chapter V,1, Van Nostrand Reinhold, 1945 
Point Group:  C1, Symmetry Number:   1  
Rotational constants in cm-1:     0.002319     0.001029     0.000883 

Vibrational entropy computed according to the QRRHO of S. Grimme
Chem.Eur.J. 2012 18 9955


-------
ENTROPY
-------

The entropy contributions are T*S = T*(S(el)+S(vib)+S(rot)+S(trans))
     S(el)   - electronic entropy
     S(vib)  - vibrational entropy
     S(rot)  - rotational entropy
     S(trans)- translational entropy
The entropies will be listed as mutliplied by the temperature to get
units of energy

Electronic entropy                ...      0.00000000 Eh      0.00 kcal/mol
Vibrational entropy               ...      0.10159471 Eh     63.75 kcal/mol
Rotational entropy                ...      0.01894231 Eh     11.89 kcal/mol
Translational entropy             ...      0.02166895 Eh     13.60 kcal/mol
-----------------------------------------------------------------------
Final entropy term                ...      0.14220596 Eh     89.24 kcal/mol

In case the symmetry of your molecule has not been determined correctly
or in case you have a reason to use a different symmetry number we print 
out the resulting rotational entropy values for sn=1,12 :
 --------------------------------------------------------
|  sn= 1 | S(rot)=       0.01894231 Eh     11.89 kcal/mol|
|  sn= 2 | S(rot)=       0.01828785 Eh     11.48 kcal/mol|
|  sn= 3 | S(rot)=       0.01790502 Eh     11.24 kcal/mol|
|  sn= 4 | S(rot)=       0.01763340 Eh     11.07 kcal/mol|
|  sn= 5 | S(rot)=       0.01742271 Eh     10.93 kcal/mol|
|  sn= 6 | S(rot)=       0.01725056 Eh     10.82 kcal/mol|
|  sn= 7 | S(rot)=       0.01710502 Eh     10.73 kcal/mol|
|  sn= 8 | S(rot)=       0.01697894 Eh     10.65 kcal/mol|
|  sn= 9 | S(rot)=       0.01686773 Eh     10.58 kcal/mol|
|  sn=10 | S(rot)=       0.01676825 Eh     10.52 kcal/mol|
|  sn=11 | S(rot)=       0.01667826 Eh     10.47 kcal/mol|
|  sn=12 | S(rot)=       0.01659611 Eh     10.41 kcal/mol|
 --------------------------------------------------------


-------------------
GIBBS FREE ENERGY
-------------------

The Gibbs free energy is G = H - T*S

Total enthalpy                    ...  -2379.04918932 Eh 
Total entropy correction          ...     -0.14220596 Eh    -89.24 kcal/mol
-----------------------------------------------------------------------
Final Gibbs free energy         ...  -2379.19139529 Eh

For completeness - the Gibbs free energy minus the electronic energy
G-E(el)                           ...      0.89423910 Eh    561.14 kcal/mol

--------------------------------------------------------------------------
WARNING: No preset parameters were found for the device that Open MPI
detected:

  Local host:            eu-g1-047-2
  Device name:           mlx5_0
  Device vendor ID:      0x02c9
  Device vendor part ID: 4123

Default device parameters will be used, which may result in lower
performance.  You can edit any of the files specified by the
btl_openib_device_param_files MCA parameter to set values for your
device.

NOTE: You can turn off this warning by setting the MCA parameter
      btl_openib_warn_no_device_params_found to 0.
--------------------------------------------------------------------------
--------------------------------------------------------------------------
WARNING: There was an error initializing an OpenFabrics device.

  Local host:   eu-g1-047-2
  Local device: mlx5_0
--------------------------------------------------------------------------

Timings for individual modules:

Sum of individual times         ...    31668.603 sec (= 527.810 min)
GTO integral calculation        ...      158.235 sec (=   2.637 min)   0.5 %
SCF iterations                  ...     3662.443 sec (=  61.041 min)  11.6 %
SCF Gradient evaluation         ...     1283.861 sec (=  21.398 min)   4.1 %
Geometry relaxation             ...       53.551 sec (=   0.893 min)   0.2 %
Analytical frequency calculation...    26510.512 sec (= 441.842 min)  83.7 %
                             ****ORCA TERMINATED NORMALLY****
TOTAL RUN TIME: 0 days 8 hours 49 minutes 12 seconds 43 msec
