 Entering Gaussian System, Link 0=g09
 Input=0.com
 Output=0.log
 AtFile(1): /cluster/work/igc/boeseltl/NEW_ISOMERS/Borneol_2/0.xyz
            C      1.428645   -0.634535   -0.223995
            O      2.648346   -0.491405    0.377154
            C      0.259889   -0.315341    0.694455
            C     -0.829187   -0.110895   -0.343486
            C     -2.131151    0.309164    0.221823
            C     -0.955995   -1.342975   -1.170305
            C      0.413591    1.098331    1.219878
            C      0.120859    1.997529    0.009565
            C     -0.113253    1.023866   -1.093889
            C      1.218086    0.341981   -1.382116
            C     -0.021830   -1.330470    1.709869
            H      1.238451   -1.655011   -0.634887
            H      3.340176   -0.322906   -0.283070
            H     -2.251330    1.416633    0.336686
            H     -2.409146   -0.198251    1.155949
            H     -2.933168    0.025386   -0.522849
            H     -2.033911   -1.499848   -1.467157
            H     -0.740519   -2.219822   -0.493421
            H     -0.348957   -1.371705   -2.072802
            H     -0.291228    1.285631    2.032933
            H      1.466097    1.222386    1.521616
            H      1.040835    2.593426   -0.221769
            H     -0.676983    2.706500    0.198395
            H     -0.639199    1.370649   -1.957760
            H      2.027495    1.092840   -1.300364
            H      1.252618   -0.140469   -2.355737
            H     -1.021877   -1.753190    1.740998
            H      0.234477   -0.914659    2.723903
            H      0.708167   -2.182839    1.580381
 AtFile(1): /cluster/work/igc/boeseltl/NEW_ISOMERS/Borneol/basis.gbs
            H     0
            S    3   1.00
                 34.0613410              0.60251978D-02
                  5.1235746              0.45021094D-01
                  1.1646626              0.20189726
            S    1   1.00
                  0.32723041             1.0000000
            S    1   1.00
                  0.10307241             1.0000000
            P    1   1.00
                  0.8000000              1.0000000
            ****
            C     0
            S    6   1.00
              13575.3496820              0.22245814352D-03
               2035.2333680              0.17232738252D-02
                463.22562359             0.89255715314D-02
                131.20019598             0.35727984502D-01
                 42.853015891            0.11076259931
                 15.584185766            0.24295627626
            S    2   1.00
                  6.2067138508           0.41440263448
                  2.5764896527           0.23744968655
            S    1   1.00
                  0.57696339419          1.0000000
            S    1   1.00
                  0.22972831358          1.0000000
            S    1   1.00
                  0.95164440028D-01      1.0000000
            P    4   1.00
                 34.697232244            0.53333657805D-02
                  7.9582622826           0.35864109092D-01
                  2.3780826883           0.14215873329
                  0.81433208183          0.34270471845
            P    1   1.00
                  0.28887547253           .46445822433
            P    1   1.00
                  0.10056823671           .24955789874
            D    1   1.00
                  1.09700000             1.0000000
            D    1   1.00
                  0.31800000             1.0000000
            F    1   1.00
                  0.76100000             1.0000000
            ****
            O     0
            S    6   1.00
              27032.3826310              0.21726302465D-03
               4052.3871392              0.16838662199D-02
                922.32722710             0.87395616265D-02
                261.24070989             0.35239968808D-01
                 85.354641351            0.11153519115
                 31.035035245            0.25588953961
            S    2   1.00
                 12.260860728            0.39768730901
                  4.9987076005           0.24627849430
            S    1   1.00
                  1.1703108158           1.0000000
            S    1   1.00
                  0.46474740994          1.0000000
            S    1   1.00
                  0.18504536357          1.0000000
            P    4   1.00
                 63.274954801            0.60685103418D-02
                 14.627049379            0.41912575824D-01
                  4.4501223456           0.16153841088
                  1.5275799647           0.35706951311
            P    1   1.00
                  0.52935117943           .44794207502
            P    1   1.00
                  0.17478421270           .24446069663
            D    1   1.00
                  2.31400000             1.0000000
            D    1   1.00
                  0.64500000             1.0000000
            F    1   1.00
                  1.42800000             1.0000000
            ****
 Initial command:
 /cluster/apps/gaussian/g09/l1.exe "/scratch/175843940.tmpdir/Gau-22028.inp" -scrdir="/scratch/175843940.tmpdir/"
 Entering Link 1 = /cluster/apps/gaussian/g09/l1.exe PID=     22029.
  
 Copyright (c) 1988,1990,1992,1993,1995,1998,2003,2009,2013,
            Gaussian, Inc.  All Rights Reserved.
  
 This is part of the Gaussian(R) 09 program.  It is based on
 the Gaussian(R) 03 system (copyright 2003, Gaussian, Inc.),
 the Gaussian(R) 98 system (copyright 1998, Gaussian, Inc.),
 the Gaussian(R) 94 system (copyright 1995, Gaussian, Inc.),
 the Gaussian 92(TM) system (copyright 1992, Gaussian, Inc.),
 the Gaussian 90(TM) system (copyright 1990, Gaussian, Inc.),
 the Gaussian 88(TM) system (copyright 1988, Gaussian, Inc.),
 the Gaussian 86(TM) system (copyright 1986, Carnegie Mellon
 University), and the Gaussian 82(TM) system (copyright 1983,
 Carnegie Mellon University). Gaussian is a federally registered
 trademark of Gaussian, Inc.
  
 This software contains proprietary and confidential information,
 including trade secrets, belonging to Gaussian, Inc.
  
 This software is provided under written license and may be
 used, copied, transmitted, or stored only in accord with that
 written license.
  
 The following legend is applicable only to US Government
 contracts under FAR:
  
                    RESTRICTED RIGHTS LEGEND
  
 Use, reproduction and disclosure by the US Government is
 subject to restrictions as set forth in subparagraphs (a)
 and (c) of the Commercial Computer Software - Restricted
 Rights clause in FAR 52.227-19.
  
 Gaussian, Inc.
 340 Quinnipiac St., Bldg. 40, Wallingford CT 06492
  
  
 ---------------------------------------------------------------
 Warning -- This program may not be used in any manner that
 competes with the business of Gaussian, Inc. or will provide
 assistance to any competitor of Gaussian, Inc.  The licensee
 of this program is prohibited from giving any competitor of
 Gaussian, Inc. access to this program.  By using this program,
 the user acknowledges that Gaussian, Inc. is engaged in the
 business of creating and licensing software in the field of
 computational chemistry and represents and warrants to the
 licensee that it is not a competitor of Gaussian, Inc. and that
 it will not use this program in any manner prohibited above.
 ---------------------------------------------------------------
  

 Cite this work as:
 Gaussian 09, Revision D.01,
 M. J. Frisch, G. W. Trucks, H. B. Schlegel, G. E. Scuseria, 
 M. A. Robb, J. R. Cheeseman, G. Scalmani, V. Barone, B. Mennucci, 
 G. A. Petersson, H. Nakatsuji, M. Caricato, X. Li, H. P. Hratchian, 
 A. F. Izmaylov, J. Bloino, G. Zheng, J. L. Sonnenberg, M. Hada, 
 M. Ehara, K. Toyota, R. Fukuda, J. Hasegawa, M. Ishida, T. Nakajima, 
 Y. Honda, O. Kitao, H. Nakai, T. Vreven, J. A. Montgomery, Jr., 
 J. E. Peralta, F. Ogliaro, M. Bearpark, J. J. Heyd, E. Brothers, 
 K. N. Kudin, V. N. Staroverov, T. Keith, R. Kobayashi, J. Normand, 
 K. Raghavachari, A. Rendell, J. C. Burant, S. S. Iyengar, J. Tomasi, 
 M. Cossi, N. Rega, J. M. Millam, M. Klene, J. E. Knox, J. B. Cross, 
 V. Bakken, C. Adamo, J. Jaramillo, R. Gomperts, R. E. Stratmann, 
 O. Yazyev, A. J. Austin, R. Cammi, C. Pomelli, J. W. Ochterski, 
 R. L. Martin, K. Morokuma, V. G. Zakrzewski, G. A. Voth, 
 P. Salvador, J. J. Dannenberg, S. Dapprich, A. D. Daniels, 
 O. Farkas, J. B. Foresman, J. V. Ortiz, J. Cioslowski, 
 and D. J. Fox, Gaussian, Inc., Wallingford CT, 2013.
 
 ******************************************
 Gaussian 09:  ES64L-G09RevD.01 24-Apr-2013
                18-Jun-2021 
 ******************************************
 %mem=16000MB
 %NProcShared=24
 Will use up to   24 processors via shared memory.
 ----------------------------------------------------------------------
 #B3LYP/Gen scf=tight freq=VCD Opt=Tight Integral(Grid=SuperFine) Empir
 icalDispersion=GD3
 ----------------------------------------------------------------------
 1/7=10,14=-1,18=20,19=15,26=5,38=1/1,3;
 2/9=110,12=2,17=6,18=5,40=1/2;
 3/5=7,11=2,16=1,25=1,30=1,71=1,74=-5,75=-7,124=31/1,2,3;
 4//1;
 5/5=2,32=2,38=5/2;
 6/7=2,8=2,9=2,10=2,28=1/1;
 7//1,2,3,16;
 1/7=10,14=-1,18=20,19=15,26=5/3(2);
 2/9=110/2;
 99//99;
 2/9=110/2;
 3/5=7,6=1,11=2,16=1,25=1,30=1,71=1,74=-5,75=-7,82=7,124=31/1,2,3;
 4/5=5,16=3,69=1/1;
 5/5=2,32=2,38=5/2;
 7//1,2,3,16;
 1/7=10,14=-1,18=20,19=15,26=5/3(-5);
 2/9=110/2;
 6/7=2,8=2,9=2,10=2,19=2,28=1/1;
 99/9=1/99;
 -
 0
 -
 Symbolic Z-matrix:
 Charge =  0 Multiplicity = 1
 C                     1.42865  -0.63454  -0.224 
 O                     2.64835  -0.49141   0.37715 
 C                     0.25989  -0.31534   0.69446 
 C                    -0.82919  -0.1109   -0.34349 
 C                    -2.13115   0.30916   0.22182 
 C                    -0.956    -1.34298  -1.17031 
 C                     0.41359   1.09833   1.21988 
 C                     0.12086   1.99753   0.00957 
 C                    -0.11325   1.02387  -1.09389 
 C                     1.21809   0.34198  -1.38212 
 C                    -0.02183  -1.33047   1.70987 
 H                     1.23845  -1.65501  -0.63489 
 H                     3.34018  -0.32291  -0.28307 
 H                    -2.25133   1.41663   0.33669 
 H                    -2.40915  -0.19825   1.15595 
 H                    -2.93317   0.02539  -0.52285 
 H                    -2.03391  -1.49985  -1.46716 
 H                    -0.74052  -2.21982  -0.49342 
 H                    -0.34896  -1.37171  -2.0728 
 H                    -0.29123   1.28563   2.03293 
 H                     1.4661    1.22239   1.52162 
 H                     1.04083   2.59343  -0.22177 
 H                    -0.67698   2.7065    0.1984 
 H                    -0.6392    1.37065  -1.95776 
 H                     2.0275    1.09284  -1.30036 
 H                     1.25262  -0.14047  -2.35574 
 H                    -1.02188  -1.75319   1.741 
 H                     0.23448  -0.91466   2.7239 
 H                     0.70817  -2.18284   1.58038 
 

 GradGradGradGradGradGradGradGradGradGradGradGradGradGradGradGradGradGrad
 Berny optimization.
 Initialization pass.
                           ----------------------------
                           !    Initial Parameters    !
                           ! (Angstroms and Degrees)  !
 --------------------------                            --------------------------
 ! Name  Definition              Value          Derivative Info.                !
 --------------------------------------------------------------------------------
 ! R1    R(1,2)                  1.3673         estimate D2E/DX2                !
 ! R2    R(1,3)                  1.5203         estimate D2E/DX2                !
 ! R3    R(1,10)                 1.5294         estimate D2E/DX2                !
 ! R4    R(1,12)                 1.1164         estimate D2E/DX2                !
 ! R5    R(2,13)                 0.971          estimate D2E/DX2                !
 ! R6    R(3,4)                  1.5183         estimate D2E/DX2                !
 ! R7    R(3,7)                  1.516          estimate D2E/DX2                !
 ! R8    R(3,11)                 1.4632         estimate D2E/DX2                !
 ! R9    R(4,5)                  1.4802         estimate D2E/DX2                !
 ! R10   R(4,6)                  1.4892         estimate D2E/DX2                !
 ! R11   R(4,9)                  1.5373         estimate D2E/DX2                !
 ! R12   R(5,14)                 1.1199         estimate D2E/DX2                !
 ! R13   R(5,15)                 1.0988         estimate D2E/DX2                !
 ! R14   R(5,16)                 1.1306         estimate D2E/DX2                !
 ! R15   R(6,17)                 1.129          estimate D2E/DX2                !
 ! R16   R(6,18)                 1.1285         estimate D2E/DX2                !
 ! R17   R(6,19)                 1.088          estimate D2E/DX2                !
 ! R18   R(7,8)                  1.5359         estimate D2E/DX2                !
 ! R19   R(7,20)                 1.0922         estimate D2E/DX2                !
 ! R20   R(7,21)                 1.1019         estimate D2E/DX2                !
 ! R21   R(8,9)                  1.4901         estimate D2E/DX2                !
 ! R22   R(8,22)                 1.1203         estimate D2E/DX2                !
 ! R23   R(8,23)                 1.0839         estimate D2E/DX2                !
 ! R24   R(9,10)                 1.5233         estimate D2E/DX2                !
 ! R25   R(9,24)                 1.0692         estimate D2E/DX2                !
 ! R26   R(10,25)                1.1071         estimate D2E/DX2                !
 ! R27   R(10,26)                1.0871         estimate D2E/DX2                !
 ! R28   R(11,27)                1.0862         estimate D2E/DX2                !
 ! R29   R(11,28)                1.1255         estimate D2E/DX2                !
 ! R30   R(11,29)                1.1297         estimate D2E/DX2                !
 ! A1    A(2,1,3)              113.4643         estimate D2E/DX2                !
 ! A2    A(2,1,10)             112.8856         estimate D2E/DX2                !
 ! A3    A(2,1,12)             114.1715         estimate D2E/DX2                !
 ! A4    A(3,1,10)             102.5659         estimate D2E/DX2                !
 ! A5    A(3,1,12)             106.4562         estimate D2E/DX2                !
 ! A6    A(10,1,12)            106.3479         estimate D2E/DX2                !
 ! A7    A(1,2,13)             110.7802         estimate D2E/DX2                !
 ! A8    A(1,3,4)               99.5967         estimate D2E/DX2                !
 ! A9    A(1,3,7)              109.1001         estimate D2E/DX2                !
 ! A10   A(1,3,11)             114.935          estimate D2E/DX2                !
 ! A11   A(4,3,7)              100.6085         estimate D2E/DX2                !
 ! A12   A(4,3,11)             115.4505         estimate D2E/DX2                !
 ! A13   A(7,3,11)             115.2113         estimate D2E/DX2                !
 ! A14   A(3,4,5)              114.0821         estimate D2E/DX2                !
 ! A15   A(3,4,6)              109.2219         estimate D2E/DX2                !
 ! A16   A(3,4,9)               95.6838         estimate D2E/DX2                !
 ! A17   A(5,4,6)              111.834          estimate D2E/DX2                !
 ! A18   A(5,4,9)              112.7407         estimate D2E/DX2                !
 ! A19   A(6,4,9)              112.2928         estimate D2E/DX2                !
 ! A20   A(4,5,14)             114.4684         estimate D2E/DX2                !
 ! A21   A(4,5,15)             114.5919         estimate D2E/DX2                !
 ! A22   A(4,5,16)             107.5274         estimate D2E/DX2                !
 ! A23   A(14,5,15)            110.0189         estimate D2E/DX2                !
 ! A24   A(14,5,16)            103.8655         estimate D2E/DX2                !
 ! A25   A(15,5,16)            105.3409         estimate D2E/DX2                !
 ! A26   A(4,6,17)             110.0134         estimate D2E/DX2                !
 ! A27   A(4,6,18)             107.072          estimate D2E/DX2                !
 ! A28   A(4,6,19)             115.777          estimate D2E/DX2                !
 ! A29   A(17,6,18)            103.4179         estimate D2E/DX2                !
 ! A30   A(17,6,19)            108.1142         estimate D2E/DX2                !
 ! A31   A(18,6,19)            111.7456         estimate D2E/DX2                !
 ! A32   A(3,7,8)              104.6845         estimate D2E/DX2                !
 ! A33   A(3,7,20)             110.6401         estimate D2E/DX2                !
 ! A34   A(3,7,21)             107.2617         estimate D2E/DX2                !
 ! A35   A(8,7,20)             111.2976         estimate D2E/DX2                !
 ! A36   A(8,7,21)             109.3849         estimate D2E/DX2                !
 ! A37   A(20,7,21)            113.1559         estimate D2E/DX2                !
 ! A38   A(7,8,9)              103.352          estimate D2E/DX2                !
 ! A39   A(7,8,22)             108.5191         estimate D2E/DX2                !
 ! A40   A(7,8,23)             112.7021         estimate D2E/DX2                !
 ! A41   A(9,8,22)             108.8854         estimate D2E/DX2                !
 ! A42   A(9,8,23)             116.152          estimate D2E/DX2                !
 ! A43   A(22,8,23)            107.0095         estimate D2E/DX2                !
 ! A44   A(4,9,8)              101.1873         estimate D2E/DX2                !
 ! A45   A(4,9,10)              99.727          estimate D2E/DX2                !
 ! A46   A(4,9,24)             113.8735         estimate D2E/DX2                !
 ! A47   A(8,9,10)             107.175          estimate D2E/DX2                !
 ! A48   A(8,9,24)             117.6243         estimate D2E/DX2                !
 ! A49   A(10,9,24)            114.9754         estimate D2E/DX2                !
 ! A50   A(1,10,9)             105.2393         estimate D2E/DX2                !
 ! A51   A(1,10,25)            106.0497         estimate D2E/DX2                !
 ! A52   A(1,10,26)            112.9814         estimate D2E/DX2                !
 ! A53   A(9,10,25)            108.7482         estimate D2E/DX2                !
 ! A54   A(9,10,26)            113.3196         estimate D2E/DX2                !
 ! A55   A(25,10,26)           110.1144         estimate D2E/DX2                !
 ! A56   A(3,11,27)            117.8508         estimate D2E/DX2                !
 ! A57   A(3,11,28)            108.9699         estimate D2E/DX2                !
 ! A58   A(3,11,29)            108.6331         estimate D2E/DX2                !
 ! A59   A(27,11,28)           109.1243         estimate D2E/DX2                !
 ! A60   A(27,11,29)           107.7339         estimate D2E/DX2                !
 ! A61   A(28,11,29)           103.5833         estimate D2E/DX2                !
 ! D1    D(3,1,2,13)          -155.5539         estimate D2E/DX2                !
 ! D2    D(10,1,2,13)          -39.4073         estimate D2E/DX2                !
 ! D3    D(12,1,2,13)           82.2161         estimate D2E/DX2                !
 ! D4    D(2,1,3,4)            161.9484         estimate D2E/DX2                !
 ! D5    D(2,1,3,7)             57.1075         estimate D2E/DX2                !
 ! D6    D(2,1,3,11)           -74.0483         estimate D2E/DX2                !
 ! D7    D(10,1,3,4)            39.8681         estimate D2E/DX2                !
 ! D8    D(10,1,3,7)           -64.9728         estimate D2E/DX2                !
 ! D9    D(10,1,3,11)          163.8714         estimate D2E/DX2                !
 ! D10   D(12,1,3,4)           -71.634          estimate D2E/DX2                !
 ! D11   D(12,1,3,7)          -176.4749         estimate D2E/DX2                !
 ! D12   D(12,1,3,11)           52.3693         estimate D2E/DX2                !
 ! D13   D(2,1,10,9)          -128.0083         estimate D2E/DX2                !
 ! D14   D(2,1,10,25)          -12.8571         estimate D2E/DX2                !
 ! D15   D(2,1,10,26)          107.8533         estimate D2E/DX2                !
 ! D16   D(3,1,10,9)            -5.5356         estimate D2E/DX2                !
 ! D17   D(3,1,10,25)          109.6156         estimate D2E/DX2                !
 ! D18   D(3,1,10,26)         -129.6741         estimate D2E/DX2                !
 ! D19   D(12,1,10,9)          106.0472         estimate D2E/DX2                !
 ! D20   D(12,1,10,25)        -138.8016         estimate D2E/DX2                !
 ! D21   D(12,1,10,26)         -18.0912         estimate D2E/DX2                !
 ! D22   D(1,3,4,5)           -176.4121         estimate D2E/DX2                !
 ! D23   D(1,3,4,6)             57.6249         estimate D2E/DX2                !
 ! D24   D(1,3,4,9)            -58.3785         estimate D2E/DX2                !
 ! D25   D(7,3,4,5)            -64.7395         estimate D2E/DX2                !
 ! D26   D(7,3,4,6)            169.2975         estimate D2E/DX2                !
 ! D27   D(7,3,4,9)             53.2941         estimate D2E/DX2                !
 ! D28   D(11,3,4,5)            59.9465         estimate D2E/DX2                !
 ! D29   D(11,3,4,6)           -66.0166         estimate D2E/DX2                !
 ! D30   D(11,3,4,9)           177.9801         estimate D2E/DX2                !
 ! D31   D(1,3,7,8)             71.532          estimate D2E/DX2                !
 ! D32   D(1,3,7,20)          -168.4719         estimate D2E/DX2                !
 ! D33   D(1,3,7,21)           -44.6186         estimate D2E/DX2                !
 ! D34   D(4,3,7,8)            -32.6114         estimate D2E/DX2                !
 ! D35   D(4,3,7,20)            87.3846         estimate D2E/DX2                !
 ! D36   D(4,3,7,21)          -148.762          estimate D2E/DX2                !
 ! D37   D(11,3,7,8)          -157.4604         estimate D2E/DX2                !
 ! D38   D(11,3,7,20)          -37.4644         estimate D2E/DX2                !
 ! D39   D(11,3,7,21)           86.389          estimate D2E/DX2                !
 ! D40   D(1,3,11,27)         -123.8375         estimate D2E/DX2                !
 ! D41   D(1,3,11,28)          111.1719         estimate D2E/DX2                !
 ! D42   D(1,3,11,29)           -1.0371         estimate D2E/DX2                !
 ! D43   D(4,3,11,27)           -8.6947         estimate D2E/DX2                !
 ! D44   D(4,3,11,28)         -133.6854         estimate D2E/DX2                !
 ! D45   D(4,3,11,29)          114.1057         estimate D2E/DX2                !
 ! D46   D(7,3,11,27)          108.0112         estimate D2E/DX2                !
 ! D47   D(7,3,11,28)          -16.9794         estimate D2E/DX2                !
 ! D48   D(7,3,11,29)         -129.1884         estimate D2E/DX2                !
 ! D49   D(3,4,5,14)            88.001          estimate D2E/DX2                !
 ! D50   D(3,4,5,15)           -40.4534         estimate D2E/DX2                !
 ! D51   D(3,4,5,16)          -157.1753         estimate D2E/DX2                !
 ! D52   D(6,4,5,14)          -147.419          estimate D2E/DX2                !
 ! D53   D(6,4,5,15)            84.1266         estimate D2E/DX2                !
 ! D54   D(6,4,5,16)           -32.5953         estimate D2E/DX2                !
 ! D55   D(9,4,5,14)           -19.7547         estimate D2E/DX2                !
 ! D56   D(9,4,5,15)          -148.2091         estimate D2E/DX2                !
 ! D57   D(9,4,5,16)            95.069          estimate D2E/DX2                !
 ! D58   D(3,4,6,17)           145.7315         estimate D2E/DX2                !
 ! D59   D(3,4,6,18)            34.003          estimate D2E/DX2                !
 ! D60   D(3,4,6,19)           -91.3561         estimate D2E/DX2                !
 ! D61   D(5,4,6,17)            18.4862         estimate D2E/DX2                !
 ! D62   D(5,4,6,18)           -93.2423         estimate D2E/DX2                !
 ! D63   D(5,4,6,19)           141.3987         estimate D2E/DX2                !
 ! D64   D(9,4,6,17)          -109.4176         estimate D2E/DX2                !
 ! D65   D(9,4,6,18)           138.8539         estimate D2E/DX2                !
 ! D66   D(9,4,6,19)            13.4949         estimate D2E/DX2                !
 ! D67   D(3,4,9,8)            -55.6957         estimate D2E/DX2                !
 ! D68   D(3,4,9,10)            54.1388         estimate D2E/DX2                !
 ! D69   D(3,4,9,24)           177.1181         estimate D2E/DX2                !
 ! D70   D(5,4,9,8)             63.4046         estimate D2E/DX2                !
 ! D71   D(5,4,9,10)           173.2391         estimate D2E/DX2                !
 ! D72   D(5,4,9,24)           -63.7816         estimate D2E/DX2                !
 ! D73   D(6,4,9,8)           -169.173          estimate D2E/DX2                !
 ! D74   D(6,4,9,10)           -59.3385         estimate D2E/DX2                !
 ! D75   D(6,4,9,24)            63.6408         estimate D2E/DX2                !
 ! D76   D(3,7,8,9)             -2.27           estimate D2E/DX2                !
 ! D77   D(3,7,8,22)          -117.7591         estimate D2E/DX2                !
 ! D78   D(3,7,8,23)           123.911          estimate D2E/DX2                !
 ! D79   D(20,7,8,9)          -121.8257         estimate D2E/DX2                !
 ! D80   D(20,7,8,22)          122.6852         estimate D2E/DX2                !
 ! D81   D(20,7,8,23)            4.3553         estimate D2E/DX2                !
 ! D82   D(21,7,8,9)           112.4004         estimate D2E/DX2                !
 ! D83   D(21,7,8,22)           -3.0887         estimate D2E/DX2                !
 ! D84   D(21,7,8,23)         -121.4187         estimate D2E/DX2                !
 ! D85   D(7,8,9,4)             35.9353         estimate D2E/DX2                !
 ! D86   D(7,8,9,10)           -68.0334         estimate D2E/DX2                !
 ! D87   D(7,8,9,24)           160.6254         estimate D2E/DX2                !
 ! D88   D(22,8,9,4)           151.1627         estimate D2E/DX2                !
 ! D89   D(22,8,9,10)           47.194          estimate D2E/DX2                !
 ! D90   D(22,8,9,24)          -84.1472         estimate D2E/DX2                !
 ! D91   D(23,8,9,4)           -88.0128         estimate D2E/DX2                !
 ! D92   D(23,8,9,10)          168.0185         estimate D2E/DX2                !
 ! D93   D(23,8,9,24)           36.6772         estimate D2E/DX2                !
 ! D94   D(4,9,10,1)           -30.2825         estimate D2E/DX2                !
 ! D95   D(4,9,10,25)         -143.5529         estimate D2E/DX2                !
 ! D96   D(4,9,10,26)           93.6418         estimate D2E/DX2                !
 ! D97   D(8,9,10,1)            74.7291         estimate D2E/DX2                !
 ! D98   D(8,9,10,25)          -38.5413         estimate D2E/DX2                !
 ! D99   D(8,9,10,26)         -161.3465         estimate D2E/DX2                !
 ! D100  D(24,9,10,1)         -152.4789         estimate D2E/DX2                !
 ! D101  D(24,9,10,25)          94.2507         estimate D2E/DX2                !
 ! D102  D(24,9,10,26)         -28.5546         estimate D2E/DX2                !
 --------------------------------------------------------------------------------
 Trust Radius=3.00D-01 FncErr=1.00D-07 GrdErr=1.00D-07
 Number of steps in this run=    174 maximum allowed number of steps=    174.
 GradGradGradGradGradGradGradGradGradGradGradGradGradGradGradGradGradGrad

                          Input orientation:                          
 ---------------------------------------------------------------------
 Center     Atomic      Atomic             Coordinates (Angstroms)
 Number     Number       Type             X           Y           Z
 ---------------------------------------------------------------------
      1          6           0        1.428645   -0.634535   -0.223995
      2          8           0        2.648346   -0.491405    0.377154
      3          6           0        0.259889   -0.315341    0.694455
      4          6           0       -0.829187   -0.110895   -0.343486
      5          6           0       -2.131151    0.309164    0.221823
      6          6           0       -0.955995   -1.342975   -1.170305
      7          6           0        0.413591    1.098331    1.219878
      8          6           0        0.120859    1.997529    0.009565
      9          6           0       -0.113253    1.023866   -1.093889
     10          6           0        1.218086    0.341981   -1.382116
     11          6           0       -0.021830   -1.330470    1.709869
     12          1           0        1.238451   -1.655011   -0.634887
     13          1           0        3.340176   -0.322906   -0.283070
     14          1           0       -2.251330    1.416633    0.336686
     15          1           0       -2.409146   -0.198251    1.155949
     16          1           0       -2.933168    0.025386   -0.522849
     17          1           0       -2.033911   -1.499848   -1.467157
     18          1           0       -0.740519   -2.219822   -0.493421
     19          1           0       -0.348957   -1.371705   -2.072802
     20          1           0       -0.291228    1.285631    2.032933
     21          1           0        1.466097    1.222386    1.521616
     22          1           0        1.040835    2.593426   -0.221769
     23          1           0       -0.676983    2.706500    0.198395
     24          1           0       -0.639199    1.370649   -1.957760
     25          1           0        2.027495    1.092840   -1.300364
     26          1           0        1.252618   -0.140469   -2.355737
     27          1           0       -1.021877   -1.753190    1.740998
     28          1           0        0.234477   -0.914659    2.723903
     29          1           0        0.708167   -2.182839    1.580381
 ---------------------------------------------------------------------
                    Distance matrix (angstroms):
                    1          2          3          4          5
     1  C    0.000000
     2  O    1.367310   0.000000
     3  C    1.520337   2.415865   0.000000
     4  C    2.320837   3.571743   1.518291   0.000000
     5  C    3.709645   4.848570   2.516040   1.480248   0.000000
     6  C    2.661559   4.013860   2.451884   1.489205   2.459385
     7  C    2.473445   2.869072   1.515969   2.334702   2.845103
     8  C    2.948324   3.566245   2.416148   2.339377   2.822619
     9  C    2.425790   3.476556   2.265146   1.537319   2.512729
    10  C    1.529432   2.415617   2.379572   2.339909   3.713635
    11  C    2.515558   3.100000   1.463188   2.521003   3.058090
    12  H    1.116413   2.089500   2.125900   2.596986   3.993263
    13  H    1.937667   0.971039   3.231684   4.175187   5.530809
    14  H    4.250161   5.258238   3.071474   2.195101   1.119877
    15  H    4.101613   5.125494   2.711168   2.179956   1.098791
    16  H    4.421563   5.677180   3.434172   2.116006   1.130618
    17  H    3.779353   5.132443   3.367067   2.154806   2.476819
    18  H    2.700185   3.902529   2.457420   2.116109   2.973416
    19  H    2.668591   3.970017   3.023956   2.193353   3.356611
    20  H    3.426182   3.813208   2.158325   2.808390   2.760240
    21  H    2.548866   2.375834   2.122201   3.244160   3.932382
    22  H    3.251174   3.529728   3.148058   3.290159   3.933970
    23  H    3.971725   4.616965   3.202394   2.873067   2.803992
    24  H    3.361946   4.441511   3.268817   2.199306   2.846621
    25  H    2.121560   2.389426   3.014417   3.244260   4.497281
    26  H    2.195316   3.088674   3.212439   2.895504   4.277368
    27  H    3.334313   4.113722   2.192165   2.660702   2.791359
    28  H    3.192900   3.393102   2.116244   3.344592   3.654359
    29  H    2.484372   2.841302   2.115034   3.218334   4.014659
                    6          7          8          9         10
     6  C    0.000000
     7  C    3.680858   0.000000
     8  C    3.702793   1.535938   0.000000
     9  C    2.513561   2.374158   1.490114   0.000000
    10  C    2.758726   2.826597   2.425185   1.523321   0.000000
    11  C    3.027907   2.515702   3.739916   3.662283   3.727580
    12  H    2.280270   3.420737   3.873678   3.035485   2.132309
    13  H    4.503866   3.583806   3.979203   3.794390   2.480573
    14  H    3.400640   2.825447   2.464088   2.602342   4.018209
    15  H    2.972120   3.106937   3.540702   3.438963   4.459870
    16  H    2.490145   3.922895   3.674220   3.045483   4.251057
    17  H    1.128997   4.467769   4.365248   3.193335   3.738322
    18  H    1.128478   3.908645   4.333707   3.357907   3.344958
    19  H    1.088036   4.186203   3.988573   2.598574   2.422683
    20  H    4.196691   1.092204   2.184178   3.142803   3.851112
    21  H    4.437797   1.101909   2.167213   3.061801   3.044385
    22  H    4.514676   2.169583   1.120252   2.134486   2.539060
    23  H    4.283624   2.195219   1.083904   2.195233   3.417638
    24  H    2.843273   3.358557   2.200235   1.069182   2.199780
    25  H    3.853741   2.992714   2.483875   2.151788   1.107075
    26  H    2.780151   3.876031   3.383278   2.193978   1.087147
    27  H    2.940800   3.234703   4.286210   4.071145   4.377330
    28  H    4.094574   2.519187   3.982635   4.295850   4.405227
    29  H    3.322812   3.314033   4.504206   4.255515   3.925700
                   11         12         13         14         15
    11  C    0.000000
    12  H    2.681700   0.000000
    13  H    4.036097   2.513071   0.000000
    14  H    3.795112   4.749476   5.888551   0.000000
    15  H    2.699634   4.316736   5.927986   1.817677   0.000000
    16  H    3.911427   4.498743   6.287579   1.771799   1.772844
    17  H    3.764393   3.380104   5.627439   3.436129   2.952226
    18  H    2.482327   2.062849   4.504954   4.024355   3.097013
    19  H    3.797014   2.160492   4.232354   4.147226   4.005772
    20  H    2.649704   4.254945   4.597647   2.595461   2.730675
    21  H    2.960817   3.603018   3.026052   3.906540   4.143601
    22  H    4.500827   4.273048   3.714259   3.540489   4.646928
    23  H    4.360150   4.835910   5.054372   2.039963   3.514950
    24  H    4.596596   3.798708   4.637687   2.804561   3.910159
    25  H    4.374205   2.935325   2.182282   4.592724   5.232989
    26  H    4.423740   2.292458   2.947394   4.685228   5.073834
    27  H    1.086165   3.280785   5.016978   3.678508   2.164401
    28  H    1.125547   3.582953   4.363190   4.160885   3.156020
    29  H    1.129688   2.338208   3.722804   4.823028   3.719727
                   16         17         18         19         20
    16  H    0.000000
    17  H    2.006669   0.000000
    18  H    3.138397   1.771832   0.000000
    19  H    3.321500   1.795076   1.834957   0.000000
    20  H    3.885883   4.800674   4.344252   4.890994   0.000000
    21  H    4.996617   5.347278   4.558325   4.789945   1.831294
    22  H    4.741116   5.268771   5.139492   4.591308   2.927183
    23  H    3.577560   4.723207   4.975067   4.679497   2.352277
    24  H    3.021754   3.228880   3.878922   2.760069   4.006737
    25  H    5.133436   4.821293   4.391673   3.509725   4.065035
    26  H    4.572504   3.665891   3.429945   2.039862   4.865968
    27  H    3.455629   3.373522   2.299899   3.891455   3.139030
    28  H    4.632392   4.801355   3.606278   4.853624   2.365392
    29  H    4.749648   4.156075   2.529963   3.888598   3.637840
                   21         22         23         24         25
    21  H    0.000000
    22  H    2.258316   0.000000
    23  H    2.923406   1.772067   0.000000
    24  H    4.069436   2.707649   2.536716   0.000000
    25  H    2.880195   2.094904   3.487747   2.760544   0.000000
    26  H    4.115436   3.474601   4.283945   2.453739   1.798693
    27  H    3.884868   5.196182   4.731534   4.856503   5.162213
    28  H    2.743965   4.651221   4.507964   5.282415   4.841455
    29  H    3.489050   5.115772   5.266323   5.192409   4.557345
                   26         27         28         29
    26  H    0.000000
    27  H    4.955546   0.000000
    28  H    5.238199   1.802127   0.000000
    29  H    4.467743   1.789818   1.772091   0.000000
 Stoichiometry    C10H18O
 Framework group  C1[X(C10H18O)]
 Deg. of freedom    81
 Full point group                 C1      NOp   1
 Largest Abelian subgroup         C1      NOp   1
 Largest concise Abelian subgroup C1      NOp   1
                         Standard orientation:                         
 ---------------------------------------------------------------------
 Center     Atomic      Atomic             Coordinates (Angstroms)
 Number     Number       Type             X           Y           Z
 ---------------------------------------------------------------------
      1          6           0        1.276605    0.348090    0.539907
      2          8           0        2.516621    0.393049   -0.034441
      3          6           0        0.145144    0.609807   -0.441279
      4          6           0       -1.016469    0.041922    0.354564
      5          6           0       -2.309162    0.060968   -0.366349
      6          6           0       -1.102726    0.744040    1.665030
      7          6           0        0.226788   -0.396207   -1.572399
      8          6           0       -0.203058   -1.728449   -0.940363
      9          6           0       -0.431632   -1.373467    0.488686
     10          6           0        0.926073   -1.034950    1.090806
     11          6           0       -0.000178    2.005038   -0.857369
     12          1           0        1.136878    1.066731    1.382764
     13          1           0        3.153307   -0.130282    0.479049
     14          1           0       -2.502588   -0.844812   -0.995851
     15          1           0       -2.492672    0.972311   -0.952115
     16          1           0       -3.131761    0.032909    0.408791
     17          1           0       -2.182263    0.841522    1.980833
     18          1           0       -0.783548    1.812228    1.490205
     19          1           0       -0.550673    0.287235    2.483801
     20          1           0       -0.439551   -0.111569   -2.389640
     21          1           0        1.283714   -0.460251   -1.877375
     22          1           0        0.655439   -2.445399   -1.003048
     23          1           0       -1.037617   -2.187071   -1.458075
     24          1           0       -1.032526   -2.036271    1.074150
     25          1           0        1.682064   -1.729846    0.677027
     26          1           0        0.936964   -1.074366    2.177183
     27          1           0       -0.963066    2.483122   -0.702330
     28          1           0        0.285757    2.094982   -1.942269
     29          1           0        0.780863    2.623684   -0.324972
 ---------------------------------------------------------------------
 Rotational constants (GHZ):      1.5375674      1.1934085      1.1097156
 General basis read from cards:  (5D, 7F)
 There are   504 symmetry adapted cartesian basis functions of A   symmetry.
 There are   449 symmetry adapted basis functions of A   symmetry.
   449 basis functions,   705 primitive gaussians,   504 cartesian basis functions
    43 alpha electrons       43 beta electrons
       nuclear repulsion energy       733.4309272284 Hartrees.
 NAtoms=   29 NActive=   29 NUniq=   29 SFac= 1.00D+00 NAtFMM=   60 NAOKFM=F Big=F
 Integral buffers will be    131072 words long.
 Raffenetti 2 integral format.
 Two-electron integral symmetry is turned on.
 Nuclear repulsion after empirical dispersion term =      733.3990318105 Hartrees.
 One-electron integrals computed using PRISM.
 NBasis=   449 RedAO= T EigKep=  9.90D-06  NBF=   449
 NBsUse=   449 1.00D-06 EigRej= -1.00D+00 NBFU=   449
 ExpMin= 9.52D-02 ExpMax= 2.70D+04 ExpMxC= 9.22D+02 IAcc=3 IRadAn=         7 AccDes= 0.00D+00
 Harris functional with IExCor=  402 and IRadAn=       7 diagonalized for initial guess.
 HarFok:  IExCor=  402 AccDes= 0.00D+00 IRadAn=         7 IDoV= 1 UseB2=F ITyADJ=14
 ICtDFT=  3500011 ScaDFX=  1.000000  1.000000  1.000000  1.000000
 FoFCou: FMM=F IPFlag=           0 FMFlag=      100000 FMFlg1=           0
         NFxFlg=           0 DoJE=T BraDBF=F KetDBF=T FulRan=T
         wScrn=  0.000000 ICntrl=     500 IOpCl=  0 I1Cent=   200000004 NGrid=           0
         NMat0=    1 NMatS0=      1 NMatT0=    0 NMatD0=    1 NMtDS0=    0 NMtDT0=    0
 Petite list used in FoFCou.
 Requested convergence on RMS density matrix=1.00D-08 within 128 cycles.
 Requested convergence on MAX density matrix=1.00D-06.
 Requested convergence on             energy=1.00D-06.
 No special actions if energy rises.
 Integral accuracy reduced to 1.0D-05 until final iterations.
 Initial convergence to 1.0D-05 achieved.  Increase integral accuracy.
 SCF Done:  E(RB3LYP) =  -467.282162032     A.U. after   14 cycles
            NFock= 14  Conv=0.75D-08     -V/T= 2.0041

 **********************************************************************

            Population analysis using the SCF density.

 **********************************************************************

 Orbital symmetries:
       Occupied  (A) (A) (A) (A) (A) (A) (A) (A) (A) (A) (A) (A)
                 (A) (A) (A) (A) (A) (A) (A) (A) (A) (A) (A) (A)
                 (A) (A) (A) (A) (A) (A) (A) (A) (A) (A) (A) (A)
                 (A) (A) (A) (A) (A) (A) (A)
       Virtual   (A) (A) (A) (A) (A) (A) (A) (A) (A) (A) (A) (A)
                 (A) (A) (A) (A) (A) (A) (A) (A) (A) (A) (A) (A)
                 (A) (A) (A) (A) (A) (A) (A) (A) (A) (A) (A) (A)
                 (A) (A) (A) (A) (A) (A) (A) (A) (A) (A) (A) (A)
                 (A) (A) (A) (A) (A) (A) (A) (A) (A) (A) (A) (A)
                 (A) (A) (A) (A) (A) (A) (A) (A) (A) (A) (A) (A)
                 (A) (A) (A) (A) (A) (A) (A) (A) (A) (A) (A) (A)
                 (A) (A) (A) (A) (A) (A) (A) (A) (A) (A) (A) (A)
                 (A) (A) (A) (A) (A) (A) (A) (A) (A) (A) (A) (A)
                 (A) (A) (A) (A) (A) (A) (A) (A) (A) (A) (A) (A)
                 (A) (A) (A) (A) (A) (A) (A) (A) (A) (A) (A) (A)
                 (A) (A) (A) (A) (A) (A) (A) (A) (A) (A) (A) (A)
                 (A) (A) (A) (A) (A) (A) (A) (A) (A) (A) (A) (A)
                 (A) (A) (A) (A) (A) (A) (A) (A) (A) (A) (A) (A)
                 (A) (A) (A) (A) (A) (A) (A) (A) (A) (A) (A) (A)
                 (A) (A) (A) (A) (A) (A) (A) (A) (A) (A) (A) (A)
                 (A) (A) (A) (A) (A) (A) (A) (A) (A) (A) (A) (A)
                 (A) (A) (A) (A) (A) (A) (A) (A) (A) (A) (A) (A)
                 (A) (A) (A) (A) (A) (A) (A) (A) (A) (A) (A) (A)
                 (A) (A) (A) (A) (A) (A) (A) (A) (A) (A) (A) (A)
                 (A) (A) (A) (A) (A) (A) (A) (A) (A) (A) (A) (A)
                 (A) (A) (A) (A) (A) (A) (A) (A) (A) (A) (A) (A)
                 (A) (A) (A) (A) (A) (A) (A) (A) (A) (A) (A) (A)
                 (A) (A) (A) (A) (A) (A) (A) (A) (A) (A) (A) (A)
                 (A) (A) (A) (A) (A) (A) (A) (A) (A) (A) (A) (A)
                 (A) (A) (A) (A) (A) (A) (A) (A) (A) (A) (A) (A)
                 (A) (A) (A) (A) (A) (A) (A) (A) (A) (A) (A) (A)
                 (A) (A) (A) (A) (A) (A) (A) (A) (A) (A) (A) (A)
                 (A) (A) (A) (A) (A) (A) (A) (A) (A) (A) (A) (A)
                 (A) (A) (A) (A) (A) (A) (A) (A) (A) (A) (A) (A)
                 (A) (A) (A) (A) (A) (A) (A) (A) (A) (A) (A) (A)
                 (A) (A) (A) (A) (A) (A) (A) (A) (A) (A) (A) (A)
                 (A) (A) (A) (A) (A) (A) (A) (A) (A) (A) (A) (A)
                 (A) (A) (A) (A) (A) (A) (A) (A) (A) (A)
 The electronic state is 1-A.
 Alpha  occ. eigenvalues --  -19.12816 -10.20927 -10.16412 -10.16078 -10.16044
 Alpha  occ. eigenvalues --  -10.15904 -10.15825 -10.15712 -10.15601 -10.15474
 Alpha  occ. eigenvalues --  -10.15140  -1.04202  -0.89980  -0.77361  -0.76463
 Alpha  occ. eigenvalues --   -0.74952  -0.67592  -0.66691  -0.63067  -0.61411
 Alpha  occ. eigenvalues --   -0.55920  -0.52013  -0.50648  -0.48853  -0.47431
 Alpha  occ. eigenvalues --   -0.45406  -0.44970  -0.42529  -0.41617  -0.40169
 Alpha  occ. eigenvalues --   -0.39725  -0.38061  -0.37462  -0.36613  -0.35398
 Alpha  occ. eigenvalues --   -0.34290  -0.33503  -0.32220  -0.31606  -0.30531
 Alpha  occ. eigenvalues --   -0.29633  -0.28369  -0.26645
 Alpha virt. eigenvalues --    0.02147   0.03453   0.05193   0.05634   0.06258
 Alpha virt. eigenvalues --    0.07346   0.08256   0.08852   0.09226   0.10159
 Alpha virt. eigenvalues --    0.11063   0.11334   0.12557   0.13365   0.13429
 Alpha virt. eigenvalues --    0.14482   0.14830   0.15555   0.16235   0.16765
 Alpha virt. eigenvalues --    0.17928   0.18773   0.20158   0.20844   0.21149
 Alpha virt. eigenvalues --    0.22131   0.23530   0.23924   0.24522   0.25612
 Alpha virt. eigenvalues --    0.26180   0.28012   0.28446   0.28611   0.29767
 Alpha virt. eigenvalues --    0.30820   0.32605   0.33153   0.33978   0.34706
 Alpha virt. eigenvalues --    0.35116   0.36550   0.37550   0.38202   0.38576
 Alpha virt. eigenvalues --    0.39759   0.40227   0.40502   0.40905   0.41182
 Alpha virt. eigenvalues --    0.42062   0.42759   0.43080   0.43645   0.44298
 Alpha virt. eigenvalues --    0.44476   0.45064   0.45239   0.46211   0.46653
 Alpha virt. eigenvalues --    0.47100   0.47278   0.47701   0.48993   0.49496
 Alpha virt. eigenvalues --    0.50002   0.50937   0.51334   0.51874   0.52452
 Alpha virt. eigenvalues --    0.52820   0.53447   0.55088   0.56477   0.56882
 Alpha virt. eigenvalues --    0.57851   0.59197   0.60677   0.62072   0.62868
 Alpha virt. eigenvalues --    0.63751   0.66672   0.67890   0.69069   0.71790
 Alpha virt. eigenvalues --    0.73489   0.73663   0.76005   0.77127   0.78723
 Alpha virt. eigenvalues --    0.80302   0.81236   0.84625   0.86057   0.87600
 Alpha virt. eigenvalues --    0.88943   0.90741   0.91584   0.92520   0.93477
 Alpha virt. eigenvalues --    0.95537   0.96831   0.97772   0.99144   1.01099
 Alpha virt. eigenvalues --    1.03020   1.04273   1.05153   1.05625   1.06137
 Alpha virt. eigenvalues --    1.07572   1.08215   1.08763   1.11016   1.11366
 Alpha virt. eigenvalues --    1.13159   1.14068   1.15045   1.16290   1.17426
 Alpha virt. eigenvalues --    1.18718   1.19989   1.20923   1.22800   1.23854
 Alpha virt. eigenvalues --    1.24516   1.27970   1.28411   1.30928   1.31959
 Alpha virt. eigenvalues --    1.32568   1.33204   1.36742   1.37751   1.39196
 Alpha virt. eigenvalues --    1.40504   1.41570   1.42312   1.43469   1.45658
 Alpha virt. eigenvalues --    1.47787   1.51082   1.52255   1.53358   1.55296
 Alpha virt. eigenvalues --    1.55746   1.56135   1.57269   1.58247   1.59215
 Alpha virt. eigenvalues --    1.59633   1.60048   1.61452   1.62343   1.63797
 Alpha virt. eigenvalues --    1.65777   1.67247   1.67677   1.68711   1.69165
 Alpha virt. eigenvalues --    1.70397   1.71616   1.72875   1.74416   1.76950
 Alpha virt. eigenvalues --    1.78031   1.79209   1.81870   1.85301   1.86418
 Alpha virt. eigenvalues --    1.87830   1.88058   1.90765   1.91417   1.92834
 Alpha virt. eigenvalues --    1.94110   1.94895   1.97943   1.98159   2.00890
 Alpha virt. eigenvalues --    2.01589   2.02471   2.04475   2.06731   2.07467
 Alpha virt. eigenvalues --    2.08445   2.09708   2.10146   2.12355   2.15750
 Alpha virt. eigenvalues --    2.16541   2.17310   2.18271   2.19381   2.23313
 Alpha virt. eigenvalues --    2.25006   2.25135   2.26362   2.27874   2.29116
 Alpha virt. eigenvalues --    2.30651   2.31429   2.32619   2.33444   2.35932
 Alpha virt. eigenvalues --    2.36662   2.37973   2.38944   2.40540   2.41512
 Alpha virt. eigenvalues --    2.42603   2.43604   2.45360   2.46782   2.47281
 Alpha virt. eigenvalues --    2.48453   2.50009   2.50237   2.51093   2.52238
 Alpha virt. eigenvalues --    2.53111   2.54792   2.56620   2.57213   2.58933
 Alpha virt. eigenvalues --    2.59489   2.60247   2.61377   2.62164   2.63144
 Alpha virt. eigenvalues --    2.64178   2.65661   2.66302   2.68601   2.69103
 Alpha virt. eigenvalues --    2.69888   2.70500   2.72338   2.74054   2.75061
 Alpha virt. eigenvalues --    2.75897   2.76452   2.77666   2.79360   2.82201
 Alpha virt. eigenvalues --    2.84100   2.86068   2.87566   2.89403   2.91696
 Alpha virt. eigenvalues --    2.93047   2.94876   2.95600   2.97236   2.99064
 Alpha virt. eigenvalues --    3.00039   3.02422   3.02478   3.04141   3.04779
 Alpha virt. eigenvalues --    3.05346   3.07589   3.08436   3.09841   3.11766
 Alpha virt. eigenvalues --    3.12250   3.14565   3.15239   3.15976   3.16555
 Alpha virt. eigenvalues --    3.17444   3.20941   3.21725   3.22382   3.24057
 Alpha virt. eigenvalues --    3.24925   3.25294   3.27230   3.28436   3.29819
 Alpha virt. eigenvalues --    3.31576   3.32504   3.33293   3.34060   3.35032
 Alpha virt. eigenvalues --    3.36649   3.38897   3.40345   3.41353   3.42067
 Alpha virt. eigenvalues --    3.43027   3.44695   3.44838   3.47028   3.48153
 Alpha virt. eigenvalues --    3.49276   3.51945   3.52739   3.54587   3.56129
 Alpha virt. eigenvalues --    3.56950   3.58329   3.59628   3.59964   3.64319
 Alpha virt. eigenvalues --    3.65067   3.65138   3.67879   3.69483   3.70511
 Alpha virt. eigenvalues --    3.72469   3.73037   3.75615   3.76930   3.77351
 Alpha virt. eigenvalues --    3.81643   3.83518   3.83927   3.85296   3.87534
 Alpha virt. eigenvalues --    3.90102   3.91624   3.92449   3.93767   3.94637
 Alpha virt. eigenvalues --    3.96993   3.98742   4.00112   4.02355   4.04073
 Alpha virt. eigenvalues --    4.05569   4.07370   4.08443   4.09868   4.13302
 Alpha virt. eigenvalues --    4.14676   4.15654   4.17392   4.20146   4.23102
 Alpha virt. eigenvalues --    4.24310   4.25121   4.26765   4.29215   4.30179
 Alpha virt. eigenvalues --    4.30558   4.32800   4.34076   4.35155   4.36871
 Alpha virt. eigenvalues --    4.37916   4.39118   4.41801   4.44970   4.47378
 Alpha virt. eigenvalues --    4.48716   4.50410   4.51803   4.54530   4.58144
 Alpha virt. eigenvalues --    4.60947   4.65347   4.69423   4.71399   4.73997
 Alpha virt. eigenvalues --    4.76775   4.78970   4.81590   4.84626   4.87732
 Alpha virt. eigenvalues --    4.91433   4.91813   4.95757   4.97234   4.99074
 Alpha virt. eigenvalues --    5.04734   5.05630   5.12384   5.15806   5.22292
 Alpha virt. eigenvalues --    5.25239   5.31444   5.35648   5.39832   5.47074
 Alpha virt. eigenvalues --    5.53658   5.89443   5.92614   6.04049   6.31752
 Alpha virt. eigenvalues --    6.52116   6.73894   6.85562   7.01449   7.23282
 Alpha virt. eigenvalues --   22.37396  22.45058  22.47226  22.60887  22.64347
 Alpha virt. eigenvalues --   22.66990  22.72972  22.86657  23.01294  23.26493
 Alpha virt. eigenvalues --   44.15954
          Condensed to atoms (all electrons):
               1          2          3          4          5          6
     1  C    5.803416   0.404119  -0.773267   0.211454  -0.041851  -0.076922
     2  O    0.404119   7.990311  -0.160984   0.017391  -0.000337   0.000751
     3  C   -0.773267  -0.160984   6.777070  -0.200177   0.013569   0.006385
     4  C    0.211454   0.017391  -0.200177   5.497824   0.191094   0.242804
     5  C   -0.041851  -0.000337   0.013569   0.191094   5.183502  -0.067214
     6  C   -0.076922   0.000751   0.006385   0.242804  -0.067214   5.169091
     7  C    0.034813  -0.022636   0.265609  -0.040843   0.008508   0.008716
     8  C    0.031354   0.008377  -0.178092   0.050809  -0.021784   0.008472
     9  C    0.051751   0.017941  -0.053269   0.232701  -0.081170  -0.081353
    10  C    0.037103  -0.105072   0.278490  -0.026744   0.022354   0.003161
    11  C   -0.188108   0.016629   0.179803  -0.015364  -0.005120  -0.007242
    12  H    0.624670  -0.053956  -0.183223  -0.010516  -0.003964  -0.015970
    13  H   -0.066523   0.294170   0.022364  -0.003854   0.000135   0.000212
    14  H    0.001812   0.000005  -0.015932  -0.037924   0.411677   0.011994
    15  H    0.001124   0.000003  -0.018107  -0.033400   0.400321   0.002129
    16  H    0.000182   0.000006   0.014520  -0.052773   0.407471  -0.031121
    17  H    0.008694  -0.000032   0.008949  -0.037822  -0.040762   0.394724
    18  H   -0.011854   0.000124  -0.004077  -0.077457   0.007892   0.428338
    19  H   -0.008099   0.000602  -0.011594  -0.026781   0.011833   0.417709
    20  H    0.001915  -0.000171  -0.023153  -0.022422   0.006060  -0.000184
    21  H    0.014854   0.026742  -0.072113   0.026072  -0.003602  -0.001293
    22  H   -0.003162  -0.000287  -0.002945   0.001315   0.000881  -0.000298
    23  H    0.001642   0.000003   0.003731   0.004300  -0.010830  -0.000368
    24  H    0.004621  -0.000506   0.017446  -0.065602   0.006291   0.006292
    25  H    0.014614   0.003052  -0.053686   0.009806  -0.001360  -0.000853
    26  H   -0.044454   0.006816   0.002764   0.001060  -0.000190  -0.009508
    27  H   -0.001204   0.000005  -0.073198   0.008738  -0.005503  -0.003394
    28  H    0.005812  -0.000118  -0.048050   0.002069  -0.000130   0.001371
    29  H   -0.030071   0.003912  -0.026786  -0.010629   0.002386   0.000270
               7          8          9         10         11         12
     1  C    0.034813   0.031354   0.051751   0.037103  -0.188108   0.624670
     2  O   -0.022636   0.008377   0.017941  -0.105072   0.016629  -0.053956
     3  C    0.265609  -0.178092  -0.053269   0.278490   0.179803  -0.183223
     4  C   -0.040843   0.050809   0.232701  -0.026744  -0.015364  -0.010516
     5  C    0.008508  -0.021784  -0.081170   0.022354  -0.005120  -0.003964
     6  C    0.008716   0.008472  -0.081353   0.003161  -0.007242  -0.015970
     7  C    5.116451   0.351408  -0.049962  -0.056825  -0.098746   0.010938
     8  C    0.351408   5.070796   0.183610   0.040923   0.019785   0.001679
     9  C   -0.049962   0.183610   5.422537   0.011535  -0.030386   0.035640
    10  C   -0.056825   0.040923   0.011535   5.460993   0.052838  -0.134777
    11  C   -0.098746   0.019785  -0.030386   0.052838   5.288826  -0.032997
    12  H    0.010938   0.001679   0.035640  -0.134777  -0.032997   0.690578
    13  H    0.007119  -0.002434   0.004582  -0.008185  -0.002692  -0.001215
    14  H    0.001150  -0.000700  -0.012441  -0.001822   0.000164   0.000067
    15  H    0.001397  -0.002171   0.010072  -0.000577  -0.000008   0.000058
    16  H    0.000875  -0.001610   0.004018  -0.000857  -0.001033   0.000117
    17  H   -0.000928  -0.000805   0.009557  -0.003307  -0.002726   0.002020
    18  H    0.000294  -0.000025   0.009212  -0.003578   0.004636  -0.000523
    19  H   -0.000087  -0.001304  -0.019176   0.004758   0.000930  -0.011857
    20  H    0.413222  -0.044605   0.012780   0.000068  -0.008562  -0.000772
    21  H    0.358668   0.001988  -0.011776  -0.004425   0.004954   0.002908
    22  H   -0.006065   0.342089   0.006772  -0.024123  -0.001134  -0.000240
    23  H   -0.042963   0.419418  -0.039541   0.004810  -0.000394   0.000250
    24  H    0.009172  -0.046042   0.403285  -0.030193  -0.000139  -0.000646
    25  H   -0.003173  -0.014239   0.012546   0.326958  -0.003120   0.014386
    26  H    0.002458   0.003758  -0.022351   0.393100  -0.001209  -0.015276
    27  H    0.000557  -0.000285  -0.000583   0.000224   0.440185   0.000321
    28  H   -0.021845   0.002857  -0.001204  -0.001557   0.412610   0.000051
    29  H    0.008387  -0.001950   0.000189   0.002323   0.408605   0.002658
              13         14         15         16         17         18
     1  C   -0.066523   0.001812   0.001124   0.000182   0.008694  -0.011854
     2  O    0.294170   0.000005   0.000003   0.000006  -0.000032   0.000124
     3  C    0.022364  -0.015932  -0.018107   0.014520   0.008949  -0.004077
     4  C   -0.003854  -0.037924  -0.033400  -0.052773  -0.037822  -0.077457
     5  C    0.000135   0.411677   0.400321   0.407471  -0.040762   0.007892
     6  C    0.000212   0.011994   0.002129  -0.031121   0.394724   0.428338
     7  C    0.007119   0.001150   0.001397   0.000875  -0.000928   0.000294
     8  C   -0.002434  -0.000700  -0.002171  -0.001610  -0.000805  -0.000025
     9  C    0.004582  -0.012441   0.010072   0.004018   0.009557   0.009212
    10  C   -0.008185  -0.001822  -0.000577  -0.000857  -0.003307  -0.003578
    11  C   -0.002692   0.000164  -0.000008  -0.001033  -0.002726   0.004636
    12  H   -0.001215   0.000067   0.000058   0.000117   0.002020  -0.000523
    13  H    0.452840  -0.000003   0.000006  -0.000005  -0.000011   0.000058
    14  H   -0.000003   0.575898  -0.020331  -0.026677   0.001106  -0.000760
    15  H    0.000006  -0.020331   0.568891  -0.026187   0.000629   0.001237
    16  H   -0.000005  -0.026677  -0.026187   0.600225   0.012632   0.000403
    17  H   -0.000011   0.001106   0.000629   0.012632   0.606474  -0.025969
    18  H    0.000058  -0.000760   0.001237   0.000403  -0.025969   0.572396
    19  H    0.000035  -0.000473  -0.000476   0.001173  -0.021822  -0.022719
    20  H    0.000174  -0.003988  -0.000145  -0.000007   0.000007  -0.000066
    21  H   -0.004078   0.000295  -0.000004   0.000098   0.000077  -0.000114
    22  H    0.000297  -0.000089   0.000057  -0.000033   0.000020   0.000070
    23  H   -0.000032   0.006041   0.000019   0.000483   0.000033   0.000022
    24  H   -0.000142   0.001997  -0.000862   0.001974   0.001055  -0.001085
    25  H    0.003508  -0.000082   0.000056   0.000047   0.000139  -0.000059
    26  H    0.003251  -0.000072   0.000051  -0.000036  -0.000051   0.000826
    27  H    0.000061  -0.000115   0.006779  -0.000524  -0.000623   0.002597
    28  H    0.000076  -0.000037  -0.001029   0.000083   0.000067  -0.000092
    29  H   -0.000679  -0.000012  -0.000035   0.000005   0.000025  -0.001127
              19         20         21         22         23         24
     1  C   -0.008099   0.001915   0.014854  -0.003162   0.001642   0.004621
     2  O    0.000602  -0.000171   0.026742  -0.000287   0.000003  -0.000506
     3  C   -0.011594  -0.023153  -0.072113  -0.002945   0.003731   0.017446
     4  C   -0.026781  -0.022422   0.026072   0.001315   0.004300  -0.065602
     5  C    0.011833   0.006060  -0.003602   0.000881  -0.010830   0.006291
     6  C    0.417709  -0.000184  -0.001293  -0.000298  -0.000368   0.006292
     7  C   -0.000087   0.413222   0.358668  -0.006065  -0.042963   0.009172
     8  C   -0.001304  -0.044605   0.001988   0.342089   0.419418  -0.046042
     9  C   -0.019176   0.012780  -0.011776   0.006772  -0.039541   0.403285
    10  C    0.004758   0.000068  -0.004425  -0.024123   0.004810  -0.030193
    11  C    0.000930  -0.008562   0.004954  -0.001134  -0.000394  -0.000139
    12  H   -0.011857  -0.000772   0.002908  -0.000240   0.000250  -0.000646
    13  H    0.000035   0.000174  -0.004078   0.000297  -0.000032  -0.000142
    14  H   -0.000473  -0.003988   0.000295  -0.000089   0.006041   0.001997
    15  H   -0.000476  -0.000145  -0.000004   0.000057   0.000019  -0.000862
    16  H    0.001173  -0.000007   0.000098  -0.000033   0.000483   0.001974
    17  H   -0.021822   0.000007   0.000077   0.000020   0.000033   0.001055
    18  H   -0.022719  -0.000066  -0.000114   0.000070   0.000022  -0.001085
    19  H    0.561319   0.000038  -0.000021  -0.000150  -0.000033   0.002428
    20  H    0.000038   0.609736  -0.026758   0.006451  -0.016759  -0.000350
    21  H   -0.000021  -0.026758   0.600346  -0.019160   0.006214  -0.000486
    22  H   -0.000150   0.006451  -0.019160   0.653861  -0.028939   0.002141
    23  H   -0.000033  -0.016759   0.006214  -0.028939   0.598839  -0.004902
    24  H    0.002428  -0.000350  -0.000486   0.002141  -0.004902   0.640595
    25  H   -0.000308  -0.000219   0.003132   0.007509   0.001401   0.000424
    26  H    0.005028   0.000204  -0.000422   0.001755  -0.000759  -0.009023
    27  H   -0.000130   0.001263  -0.000427   0.000028   0.000029  -0.000112
    28  H    0.000003   0.001691   0.002510  -0.000090  -0.000085   0.000023
    29  H    0.000082  -0.000131   0.000116   0.000054   0.000027   0.000048
              25         26         27         28         29
     1  C    0.014614  -0.044454  -0.001204   0.005812  -0.030071
     2  O    0.003052   0.006816   0.000005  -0.000118   0.003912
     3  C   -0.053686   0.002764  -0.073198  -0.048050  -0.026786
     4  C    0.009806   0.001060   0.008738   0.002069  -0.010629
     5  C   -0.001360  -0.000190  -0.005503  -0.000130   0.002386
     6  C   -0.000853  -0.009508  -0.003394   0.001371   0.000270
     7  C   -0.003173   0.002458   0.000557  -0.021845   0.008387
     8  C   -0.014239   0.003758  -0.000285   0.002857  -0.001950
     9  C    0.012546  -0.022351  -0.000583  -0.001204   0.000189
    10  C    0.326958   0.393100   0.000224  -0.001557   0.002323
    11  C   -0.003120  -0.001209   0.440185   0.412610   0.408605
    12  H    0.014386  -0.015276   0.000321   0.000051   0.002658
    13  H    0.003508   0.003251   0.000061   0.000076  -0.000679
    14  H   -0.000082  -0.000072  -0.000115  -0.000037  -0.000012
    15  H    0.000056   0.000051   0.006779  -0.001029  -0.000035
    16  H    0.000047  -0.000036  -0.000524   0.000083   0.000005
    17  H    0.000139  -0.000051  -0.000623   0.000067   0.000025
    18  H   -0.000059   0.000826   0.002597  -0.000092  -0.001127
    19  H   -0.000308   0.005028  -0.000130   0.000003   0.000082
    20  H   -0.000219   0.000204   0.001263   0.001691  -0.000131
    21  H    0.003132  -0.000422  -0.000427   0.002510   0.000116
    22  H    0.007509   0.001755   0.000028  -0.000090   0.000054
    23  H    0.001401  -0.000759   0.000029  -0.000085   0.000027
    24  H    0.000424  -0.009023  -0.000112   0.000023   0.000048
    25  H    0.638033  -0.023919   0.000026   0.000066  -0.000077
    26  H   -0.023919   0.608945   0.000044   0.000037  -0.000262
    27  H    0.000026   0.000044   0.562597  -0.025165  -0.029063
    28  H    0.000066   0.000037  -0.025165   0.579436  -0.024175
    29  H   -0.000077  -0.000262  -0.029063  -0.024175   0.580485
 Mulliken charges:
               1
     1  C   -0.008432
     2  O   -0.446861
     3  C    0.307952
     4  C    0.164870
     5  C   -0.390156
     6  C   -0.406698
     7  C   -0.255671
     8  C   -0.221276
     9  C   -0.025520
    10  C   -0.237598
    11  C   -0.430986
    12  H    0.079590
    13  H    0.300964
    14  H    0.109252
    15  H    0.110502
    16  H    0.096551
    17  H    0.088648
    18  H    0.121400
    19  H    0.119089
    20  H    0.094683
    21  H    0.095702
    22  H    0.063416
    23  H    0.098343
    24  H    0.062296
    25  H    0.065393
    26  H    0.097434
    27  H    0.116874
    28  H    0.114816
    29  H    0.115423
 Sum of Mulliken charges =   0.00000
 Mulliken charges with hydrogens summed into heavy atoms:
               1
     1  C    0.071158
     2  O   -0.145897
     3  C    0.307952
     4  C    0.164870
     5  C   -0.073851
     6  C   -0.077561
     7  C   -0.065286
     8  C   -0.059518
     9  C    0.036777
    10  C   -0.074770
    11  C   -0.083873
 Electronic spatial extent (au):  <R**2>=           1471.3557
 Charge=              0.0000 electrons
 Dipole moment (field-independent basis, Debye):
    X=             -0.1287    Y=             -0.8462    Z=              1.1242  Tot=              1.4130
 Quadrupole moment (field-independent basis, Debye-Ang):
   XX=            -69.9129   YY=            -72.5127   ZZ=            -71.1111
   XY=             -2.7516   XZ=              3.6867   YZ=             -0.3280
 Traceless Quadrupole moment (field-independent basis, Debye-Ang):
   XX=              1.2660   YY=             -1.3338   ZZ=              0.0678
   XY=             -2.7516   XZ=              3.6867   YZ=             -0.3280
 Octapole moment (field-independent basis, Debye-Ang**2):
  XXX=             26.2767  YYY=              1.0825  ZZZ=              1.7496  XYY=              1.4084
  XXY=            -10.0772  XXZ=              9.3802  XZZ=              5.1142  YZZ=             -0.9304
  YYZ=              0.0427  XYZ=              0.7690
 Hexadecapole moment (field-independent basis, Debye-Ang**3):
 XXXX=           -784.1966 YYYY=           -660.8674 ZZZZ=           -554.4069 XXXY=            -25.2386
 XXXZ=             28.0037 YYYX=              4.1687 YYYZ=              0.9589 ZZZX=              9.4137
 ZZZY=             -7.5680 XXYY=           -247.8815 XXZZ=           -229.2211 YYZZ=           -204.4903
 XXYZ=              0.8958 YYXZ=              2.1885 ZZXY=              5.9213
 N-N= 7.333990318105D+02 E-N=-2.552854289278D+03  KE= 4.653912013404D+02
 Calling FoFJK, ICntrl=      2127 FMM=F ISym2X=0 I1Cent= 0 IOpClX= 0 NMat=1 NMatS=1 NMatT=0.
 ***** Axes restored to original set *****
 -------------------------------------------------------------------
 Center     Atomic                   Forces (Hartrees/Bohr)
 Number     Number              X              Y              Z
 -------------------------------------------------------------------
      1        6          -0.021432167   -0.011584462   -0.027693052
      2        8           0.036308556   -0.002227223    0.015249076
      3        6          -0.005075413    0.017672231   -0.008923732
      4        6           0.004137278    0.004530965   -0.014784767
      5        6          -0.053083662    0.013121060   -0.009447547
      6        6          -0.042991241   -0.045590537   -0.000548405
      7        6           0.017273641    0.009132772    0.008482801
      8        6           0.032323667    0.033483715    0.003758207
      9        6          -0.003260681   -0.018777269   -0.000453355
     10        6           0.019257519    0.021858168   -0.008923811
     11        6           0.036058932   -0.033176407    0.046701974
     12        1           0.013988912    0.006484989    0.011694826
     13        1          -0.007112243   -0.003486861    0.005884033
     14        1           0.003862527   -0.019530043    0.004773604
     15        1           0.002464353    0.004316381   -0.002677104
     16        1           0.011340433    0.007238223    0.015985133
     17        1           0.021207170    0.002636889   -0.000978649
     18        1          -0.002870495    0.009271035   -0.021704547
     19        1          -0.001607953   -0.004130589    0.003074717
     20        1           0.006354597    0.000066405    0.002018969
     21        1          -0.011169666    0.003024784    0.009854943
     22        1          -0.016423010   -0.001652354    0.003216843
     23        1          -0.003589361    0.000873848   -0.001679686
     24        1          -0.005423391    0.008077356   -0.011333938
     25        1          -0.004332061   -0.005498030   -0.010124263
     26        1           0.003034795    0.001315323   -0.001476832
     27        1          -0.002887997    0.002732150   -0.000969340
     28        1          -0.009057460   -0.010872867   -0.013981848
     29        1          -0.017295580    0.010690347    0.005005749
 -------------------------------------------------------------------
 Cartesian Forces:  Max     0.053083662 RMS     0.016375250

 GradGradGradGradGradGradGradGradGradGradGradGradGradGradGradGradGradGrad
 Berny optimization.
 FormGI is forming the generalized inverse of G from B-inverse, IUseBI=4.
 Internal  Forces:  Max     0.045443297 RMS     0.009676384
 Search for a local minimum.
 Step number   1 out of a maximum of  174
 All quantities printed in internal units (Hartrees-Bohrs-Radians)
 Mixed Optimization -- RFO/linear search
 Second derivative matrix not updated -- first step.
 ITU=  0
     Eigenvalues ---    0.00526   0.00873   0.00909   0.01027   0.01253
     Eigenvalues ---    0.01910   0.02124   0.02481   0.02877   0.03281
     Eigenvalues ---    0.03589   0.03976   0.04102   0.04349   0.04903
     Eigenvalues ---    0.04915   0.05167   0.05309   0.05331   0.05458
     Eigenvalues ---    0.05553   0.05623   0.05735   0.05953   0.06262
     Eigenvalues ---    0.06369   0.06419   0.06507   0.06757   0.06945
     Eigenvalues ---    0.07046   0.07195   0.07927   0.08177   0.09176
     Eigenvalues ---    0.09768   0.10747   0.11559   0.11802   0.13349
     Eigenvalues ---    0.16000   0.16000   0.16000   0.16000   0.16000
     Eigenvalues ---    0.16000   0.16000   0.16000   0.16000   0.16000
     Eigenvalues ---    0.17597   0.21700   0.25052   0.25766   0.27084
     Eigenvalues ---    0.28460   0.29361   0.30140   0.30511   0.30601
     Eigenvalues ---    0.30669   0.30719   0.31008   0.31538   0.31576
     Eigenvalues ---    0.31930   0.32285   0.32912   0.33472   0.33537
     Eigenvalues ---    0.33816   0.34541   0.34559   0.35041   0.35144
     Eigenvalues ---    0.35260   0.35527   0.36568   0.37334   0.51497
     Eigenvalues ---    0.53165
 RFO step:  Lambda=-5.87643505D-02 EMin= 5.25970416D-03
 Linear search not attempted -- first point.
 Maximum step size (   0.300) exceeded in Quadratic search.
    -- Step size scaled by   0.764
 Iteration  1 RMS(Cart)=  0.06236239 RMS(Int)=  0.00119240
 Iteration  2 RMS(Cart)=  0.00161548 RMS(Int)=  0.00028829
 Iteration  3 RMS(Cart)=  0.00000278 RMS(Int)=  0.00028828
 Iteration  4 RMS(Cart)=  0.00000000 RMS(Int)=  0.00028828
 Variable       Old X    -DE/DX   Delta X   Delta X   Delta X     New X
                                 (Linear)    (Quad)   (Total)
    R1        2.58384   0.03474   0.00000   0.04624   0.04624   2.63008
    R2        2.87302   0.02089   0.00000   0.04479   0.04463   2.91765
    R3        2.89021   0.02333   0.00000   0.04697   0.04642   2.93663
    R4        2.10971  -0.01262   0.00000  -0.02548  -0.02548   2.08423
    R5        1.83500  -0.00967   0.00000  -0.01251  -0.01251   1.82249
    R6        2.86915   0.04007   0.00000   0.08923   0.08963   2.95879
    R7        2.86477   0.02434   0.00000   0.05094   0.05089   2.91565
    R8        2.76502   0.04544   0.00000   0.08176   0.08176   2.84679
    R9        2.79726   0.03591   0.00000   0.06785   0.06785   2.86511
   R10        2.81419   0.04471   0.00000   0.08664   0.08664   2.90083
   R11        2.90511   0.02236   0.00000   0.05117   0.05178   2.95689
   R12        2.11626  -0.01924   0.00000  -0.03923  -0.03923   2.07703
   R13        2.07641  -0.00489   0.00000  -0.00941  -0.00941   2.06700
   R14        2.13656  -0.02039   0.00000  -0.04279  -0.04279   2.09377
   R15        2.13349  -0.02036   0.00000  -0.04254  -0.04254   2.09095
   R16        2.13251  -0.02077   0.00000  -0.04334  -0.04334   2.08917
   R17        2.05609  -0.00334   0.00000  -0.00623  -0.00623   2.04986
   R18        2.90250   0.01307   0.00000   0.02742   0.02725   2.92976
   R19        2.06397  -0.00259   0.00000  -0.00488  -0.00488   2.05908
   R20        2.08231  -0.00763   0.00000  -0.01481  -0.01481   2.06750
   R21        2.81591   0.02904   0.00000   0.05565   0.05563   2.87154
   R22        2.11697  -0.01503   0.00000  -0.03068  -0.03068   2.08629
   R23        2.04828   0.00292   0.00000   0.00539   0.00539   2.05367
   R24        2.87866   0.01781   0.00000   0.03530   0.03524   2.91389
   R25        2.02046   0.01445   0.00000   0.02553   0.02553   2.04599
   R26        2.09207  -0.00764   0.00000  -0.01505  -0.01505   2.07702
   R27        2.05441   0.00084   0.00000   0.00156   0.00156   2.05596
   R28        2.05256   0.00157   0.00000   0.00291   0.00291   2.05547
   R29        2.12698  -0.01868   0.00000  -0.03867  -0.03867   2.08831
   R30        2.13480  -0.01982   0.00000  -0.04149  -0.04149   2.09331
    A1        1.98033  -0.00451   0.00000  -0.01613  -0.01644   1.96388
    A2        1.97022   0.00528   0.00000   0.02566   0.02603   1.99626
    A3        1.99267  -0.00690   0.00000  -0.04377  -0.04410   1.94857
    A4        1.79011   0.00051   0.00000   0.00346   0.00328   1.79339
    A5        1.85801   0.00287   0.00000   0.01051   0.01012   1.86813
    A6        1.85612   0.00387   0.00000   0.02687   0.02679   1.88292
    A7        1.93348  -0.00135   0.00000  -0.00473  -0.00473   1.92875
    A8        1.73829   0.00236   0.00000   0.01901   0.01936   1.75766
    A9        1.90416  -0.00488   0.00000  -0.02521  -0.02537   1.87878
   A10        2.00600   0.00152   0.00000   0.00011  -0.00051   2.00549
   A11        1.75595   0.00370   0.00000   0.01265   0.01282   1.76877
   A12        2.01499  -0.00130   0.00000   0.00588   0.00578   2.02077
   A13        2.01082  -0.00094   0.00000  -0.00834  -0.00853   2.00229
   A14        1.99111   0.00087   0.00000  -0.00513  -0.00477   1.98633
   A15        1.90628   0.01308   0.00000   0.06302   0.06294   1.96922
   A16        1.67000  -0.01016   0.00000  -0.03759  -0.03766   1.63234
   A17        1.95187  -0.01333   0.00000  -0.04887  -0.04861   1.90327
   A18        1.96770   0.00593   0.00000   0.01233   0.01193   1.97963
   A19        1.95988   0.00535   0.00000   0.02326   0.02351   1.98338
   A20        1.99785  -0.00016   0.00000  -0.00325  -0.00352   1.99434
   A21        2.00001  -0.00223   0.00000  -0.01180  -0.01196   1.98804
   A22        1.87671   0.00817   0.00000   0.03506   0.03498   1.91169
   A23        1.92019  -0.00247   0.00000  -0.01809  -0.01838   1.90181
   A24        1.81279  -0.00117   0.00000   0.00363   0.00344   1.81624
   A25        1.83854  -0.00167   0.00000  -0.00124  -0.00120   1.83735
   A26        1.92010   0.00336   0.00000   0.01157   0.01117   1.93126
   A27        1.86876   0.01583   0.00000   0.05883   0.05839   1.92715
   A28        2.02069  -0.00045   0.00000  -0.00549  -0.00549   2.01520
   A29        1.80498  -0.00452   0.00000  -0.00673  -0.00763   1.79735
   A30        1.88695  -0.00462   0.00000  -0.02245  -0.02243   1.86452
   A31        1.95033  -0.00995   0.00000  -0.03543  -0.03545   1.91487
   A32        1.82709  -0.00006   0.00000  -0.00154  -0.00176   1.82533
   A33        1.93103  -0.00086   0.00000  -0.00435  -0.00429   1.92674
   A34        1.87207   0.00373   0.00000   0.02441   0.02438   1.89645
   A35        1.94251   0.00207   0.00000   0.00927   0.00935   1.95186
   A36        1.90913   0.00111   0.00000   0.01085   0.01070   1.91983
   A37        1.97494  -0.00548   0.00000  -0.03531  -0.03523   1.93971
   A38        1.80383   0.00031   0.00000  -0.00636  -0.00659   1.79724
   A39        1.89402   0.00174   0.00000   0.01731   0.01730   1.91131
   A40        1.96702   0.00095   0.00000   0.00292   0.00274   1.96977
   A41        1.90041   0.00314   0.00000   0.01957   0.01957   1.91997
   A42        2.02723  -0.00374   0.00000  -0.01816  -0.01810   2.00913
   A43        1.86767  -0.00188   0.00000  -0.01163  -0.01158   1.85609
   A44        1.76605   0.00521   0.00000   0.02181   0.02208   1.78813
   A45        1.74056   0.00921   0.00000   0.04003   0.04056   1.78112
   A46        1.98747  -0.00635   0.00000  -0.01678  -0.01703   1.97043
   A47        1.87056  -0.00648   0.00000  -0.02265  -0.02325   1.84731
   A48        2.05293  -0.00119   0.00000  -0.01678  -0.01685   2.03608
   A49        2.00670   0.00144   0.00000   0.00438   0.00387   2.01057
   A50        1.83677  -0.00280   0.00000  -0.01606  -0.01616   1.82061
   A51        1.85092   0.00278   0.00000   0.02148   0.02151   1.87243
   A52        1.97190   0.00175   0.00000   0.00543   0.00554   1.97744
   A53        1.89801   0.00070   0.00000   0.00440   0.00467   1.90269
   A54        1.97780   0.00182   0.00000   0.00998   0.00991   1.98771
   A55        1.92186  -0.00407   0.00000  -0.02369  -0.02375   1.89811
   A56        2.05688  -0.00935   0.00000  -0.03700  -0.03670   2.02019
   A57        1.90188   0.00908   0.00000   0.03243   0.03198   1.93387
   A58        1.89600   0.00988   0.00000   0.03764   0.03728   1.93329
   A59        1.90458  -0.00313   0.00000  -0.01658  -0.01640   1.88818
   A60        1.88031  -0.00217   0.00000  -0.00960  -0.00926   1.87105
   A61        1.80787  -0.00379   0.00000  -0.00306  -0.00424   1.80363
    D1       -2.71493  -0.00318   0.00000  -0.02475  -0.02417  -2.73909
    D2       -0.68779  -0.00196   0.00000  -0.01360  -0.01343  -0.70122
    D3        1.43494   0.00205   0.00000   0.00883   0.00807   1.44302
    D4        2.82653   0.00617   0.00000   0.02686   0.02669   2.85322
    D5        0.99671   0.00248   0.00000   0.01211   0.01212   1.00883
    D6       -1.29239   0.00697   0.00000   0.04691   0.04683  -1.24556
    D7        0.69583   0.00184   0.00000   0.00207   0.00187   0.69770
    D8       -1.13399  -0.00185   0.00000  -0.01267  -0.01271  -1.14670
    D9        2.86010   0.00264   0.00000   0.02213   0.02200   2.88210
   D10       -1.25025  -0.00365   0.00000  -0.03267  -0.03289  -1.28314
   D11       -3.08007  -0.00734   0.00000  -0.04742  -0.04747  -3.12754
   D12        0.91402  -0.00285   0.00000  -0.01262  -0.01276   0.90126
   D13       -2.23417   0.00088   0.00000   0.00463   0.00456  -2.22960
   D14       -0.22440   0.00163   0.00000   0.01180   0.01180  -0.21259
   D15        1.88239  -0.00053   0.00000   0.00001   0.00008   1.88248
   D16       -0.09662  -0.00144   0.00000   0.00102   0.00082  -0.09580
   D17        1.91315  -0.00069   0.00000   0.00819   0.00806   1.92121
   D18       -2.26324  -0.00284   0.00000  -0.00360  -0.00366  -2.26690
   D19        1.85087   0.00330   0.00000   0.02355   0.02331   1.87418
   D20       -2.42254   0.00405   0.00000   0.03072   0.03055  -2.39199
   D21       -0.31575   0.00190   0.00000   0.01893   0.01883  -0.29692
   D22       -3.07897   0.00108   0.00000   0.02769   0.02750  -3.05147
   D23        1.00574   0.00762   0.00000   0.04583   0.04528   1.05102
   D24       -1.01890   0.00252   0.00000   0.01905   0.01907  -0.99982
   D25       -1.12992  -0.00246   0.00000   0.00959   0.00958  -1.12034
   D26        2.95480   0.00408   0.00000   0.02773   0.02735   2.98215
   D27        0.93016  -0.00101   0.00000   0.00095   0.00115   0.93130
   D28        1.04626  -0.00173   0.00000   0.01149   0.01144   1.05770
   D29       -1.15221   0.00482   0.00000   0.02963   0.02921  -1.12299
   D30        3.10634  -0.00028   0.00000   0.00285   0.00301   3.10935
   D31        1.24847   0.00093   0.00000   0.00608   0.00606   1.25453
   D32       -2.94039   0.00291   0.00000   0.01393   0.01391  -2.92648
   D33       -0.77874  -0.00196   0.00000  -0.01639  -0.01646  -0.79520
   D34       -0.56918  -0.00178   0.00000  -0.01278  -0.01285  -0.58203
   D35        1.52515   0.00020   0.00000  -0.00493  -0.00501   1.52014
   D36       -2.59639  -0.00467   0.00000  -0.03525  -0.03537  -2.63176
   D37       -2.74820  -0.00226   0.00000  -0.02433  -0.02425  -2.77246
   D38       -0.65388  -0.00028   0.00000  -0.01648  -0.01641  -0.67028
   D39        1.50777  -0.00515   0.00000  -0.04679  -0.04677   1.46100
   D40       -2.16137  -0.00439   0.00000  -0.03379  -0.03387  -2.19524
   D41        1.94032  -0.00073   0.00000  -0.01043  -0.01019   1.93013
   D42       -0.01810  -0.00591   0.00000  -0.04237  -0.04290  -0.06100
   D43       -0.15175  -0.00107   0.00000  -0.00408  -0.00398  -0.15573
   D44       -2.33325   0.00258   0.00000   0.01927   0.01970  -2.31355
   D45        1.99152  -0.00259   0.00000  -0.01266  -0.01301   1.97851
   D46        1.88515   0.00220   0.00000   0.01105   0.01114   1.89629
   D47       -0.29635   0.00585   0.00000   0.03440   0.03483  -0.26152
   D48       -2.25476   0.00068   0.00000   0.00246   0.00211  -2.25265
   D49        1.53591  -0.00954   0.00000  -0.06077  -0.06078   1.47513
   D50       -0.70605  -0.00368   0.00000  -0.02032  -0.02043  -0.72648
   D51       -2.74323  -0.00578   0.00000  -0.03542  -0.03539  -2.77861
   D52       -2.57295  -0.00206   0.00000  -0.01958  -0.01960  -2.59254
   D53        1.46829   0.00380   0.00000   0.02087   0.02075   1.48904
[...]
 96,0.00003877,-0.00064516,-0.00151112,0.00005288,0.00001162,-0.0002474
 2,-0.00026573,-0.00000136,0.00007595,-0.00003002,0.00001368,0.00000723
 ,0.00002692,0.00001523,0.00007958,0.00000086,-0.00000198,-0.00002646,-
 0.00001401,0.00133393,-0.00044003,-0.00007267,0.00042730,0.00106613,-0
 .00065130,-0.02094600,0.01356819,0.00386074,0.24169470,-0.00054735,0.0
 0079401,-0.00009353,0.00016630,-0.00001147,0.00008907,0.00033354,-0.00
 077232,0.00233333,0.00115629,0.00016686,-0.00021016,-0.00030292,-0.000
 80216,-0.00066876,-0.00034884,0.00015815,-0.00001478,0.01170138,-0.008
 28882,-0.00165939,0.11612791,-0.12842895,-0.02059549,0.01772471,-0.010
 80160,-0.00206922,-0.00189931,-0.00221073,-0.00310968,0.00002250,-0.00
 047281,-0.00054556,-0.00003068,-0.00000149,0.00000326,-0.00006286,-0.0
 0003460,-0.00006133,-0.00100283,-0.00052928,0.00115240,-0.00002377,0.0
 0049626,0.00024724,-0.00013735,-0.00006209,-0.00002992,-0.00003186,-0.
 00005655,-0.00009388,-0.00003256,-0.00005559,0.00004304,-0.00002461,0.
 00016125,0.00009227,-0.00029566,0.00139879,0.00010409,-0.00001062,-0.0
 0135899,0.00083243,-0.01581346,0.01216432,0.00281195,-0.12745671,0.137
 92096,-0.00011038,0.00021921,-0.00094667,0.00012968,-0.00002291,0.0004
 3673,-0.00122929,0.00064743,-0.00276823,0.00015893,0.00046842,0.000053
 47,0.00007185,0.00039273,0.00039973,0.00015418,0.00004587,-0.00003597,
 -0.02182672,0.01548700,0.00212924,0.02961866,-0.02129121,-0.04983706,0
 .02218994,-0.01268706,-0.00350386,-0.00111236,-0.00416941,-0.00390526,
 0.00001179,0.00061603,0.00051940,-0.00009128,0.00000584,0.00019201,-0.
 00007019,0.00008646,0.00001693,0.00037108,0.00051776,0.00013292,-0.000
 09351,-0.00000390,-0.00003997,-0.00007938,-0.00011698,-0.00011508,0.00
 000069,0.00001693,0.00001694,-0.00009500,-0.00001939,0.00005652,-0.000
 00325,0.00009084,-0.00000590,-0.00012560,-0.00029775,0.00166204,-0.000
 67985,0.00244272,-0.00227824,0.00565865,-0.00382963,-0.00083923,-0.034
 11639,0.02146575,0.05860263,-0.00352781,0.00102560,0.00314993,-0.00104
 809,0.00037109,-0.00178888,-0.00151863,-0.00204432,0.00200457,0.008100
 00,-0.00417331,0.01255394,0.00133301,0.00028570,-0.00012249,0.00044402
 ,0.00084464,0.00007474,0.00081423,-0.00111942,0.00048235,-0.00168499,0
 .00172692,-0.00202193,-0.11018274,0.04287337,-0.10140425,-0.01039377,0
 .00975670,-0.02248300,0.00112373,-0.00002439,0.00052918,0.00000075,0.0
 0071976,-0.00066971,0.00028389,-0.00009300,0.00002027,-0.00007884,-0.0
 0000247,0.00006255,0.00002852,0.00004433,-0.00023025,-0.00005276,0.000
 13842,-0.00034687,0.00003969,0.00014534,-0.00020616,-0.00005320,0.0001
 5368,0.00002915,-0.00004427,-0.00006518,-0.00012173,-0.00003384,0.0000
 8781,-0.00008612,0.00001604,0.00011485,0.00008039,-0.00021977,-0.00011
 602,-0.00007843,0.00072850,-0.00041299,0.00019483,0.11500857,0.0012932
 2,-0.00049978,-0.00002490,0.00073266,-0.00015269,0.00062681,-0.0017793
 6,-0.00398393,0.00188906,0.01278842,-0.00610442,0.01613348,0.00081302,
 0.00040595,-0.00062645,0.00086127,0.00099020,0.00028119,-0.00081592,-0
 .00323625,-0.00309629,-0.01050496,0.01000125,-0.01846905,0.04262491,-0
 .07880499,0.07212031,0.00385076,-0.00421886,0.00857731,0.00122549,0.00
 058969,0.00073597,0.00011980,-0.00034991,0.00027549,-0.00005797,0.0000
 5317,0.00005894,-0.00012787,0.00003109,0.00001357,-0.00010209,-0.00004
 983,-0.00019017,-0.00052743,0.00025278,-0.00015060,-0.00045537,-0.0001
 5303,-0.00044439,-0.00020895,0.00015889,-0.00021522,0.00000221,-0.0001
 4257,0.00001468,-0.00021146,0.00044488,-0.00068805,-0.00001740,0.00050
 233,-0.00064223,-0.00029657,-0.00004487,0.00049808,0.00050240,0.001018
 23,0.00093535,-0.04969699,0.08350022,0.00229531,-0.00072357,-0.0006591
 3,0.00023036,-0.00012163,0.00081895,0.00127663,0.00122998,-0.00184630,
 -0.00717614,0.00159823,-0.00918173,-0.00066874,-0.00023611,0.00003733,
 -0.00008886,-0.00034434,0.00018805,-0.00065161,-0.00178833,-0.00210106
 ,-0.00793478,0.00874794,-0.01400017,-0.10120015,0.07259904,-0.21466725
 ,0.00486975,-0.00441614,0.00842202,-0.00096892,-0.00008485,-0.00015000
 ,-0.00010782,-0.00024003,0.00021037,-0.00007859,0.00005581,-0.00000200
 ,-0.00001874,0.00004541,-0.00006070,0.00022155,-0.00004352,0.00019480,
 0.00069162,-0.00000887,0.00010512,0.00026604,0.00035382,0.00041386,0.0
 0018555,0.00005367,0.00007446,0.00004287,0.00005336,0.00003670,-0.0002
 6387,0.00028342,-0.00071846,0.00004994,0.00025943,-0.00067980,-0.00032
 081,-0.00040490,-0.00004381,0.00066783,-0.00004099,0.00043198,0.109583
 88,-0.07791333,0.23264933,0.00323017,0.00592561,-0.00173038,0.00158292
 ,0.00086802,0.00008778,-0.00061926,0.00015247,-0.00069966,-0.00472804,
 0.00349175,0.00026534,-0.00016851,-0.00173575,0.00091295,0.00022402,0.
 00070857,0.00022254,0.00018209,-0.00018194,0.00013212,0.00074577,-0.00
 227898,-0.00130772,-0.01919067,-0.01960143,0.00462189,-0.17405757,-0.1
 3034575,0.01506559,0.00023028,0.00006220,0.00000464,-0.00054351,0.0008
 3828,-0.00068978,0.00007165,0.00023758,0.00006297,-0.00002319,0.000099
 58,0.00008272,-0.00063388,0.00015476,0.00035118,0.00006964,-0.00000038
 ,-0.00007805,-0.00001689,-0.00000837,0.00001453,0.00001920,-0.00011569
 ,-0.00001811,0.00013546,0.00002984,-0.00008999,0.00001825,0.00005656,-
 0.00006912,0.00002845,0.00003615,0.00012449,0.00077892,0.00137656,0.00
 053525,0.00051540,0.00006919,-0.00051198,-0.00038528,0.00019988,-0.000
 25818,0.19196096,-0.01319306,-0.01492149,-0.00012786,0.00056536,0.0033
 2026,-0.00265095,0.00053489,-0.00112022,0.00029787,0.00264664,-0.00128
 174,-0.00085369,0.00032657,0.00079419,-0.00049533,0.00030003,-0.000398
 30,-0.00005493,-0.00020290,-0.00007588,-0.00004731,0.00150518,0.001310
 83,-0.00033182,0.01001330,0.01008563,-0.00203071,-0.13146504,-0.175760
 22,0.01484853,-0.00050924,0.00019689,0.00018008,0.00049299,-0.00108056
 ,0.00263602,0.00053319,-0.00098059,0.00079780,-0.00006462,0.00003902,0
 .00004558,0.00031668,0.00003411,-0.00014617,-0.00006312,0.00000243,0.0
 0002069,-0.00008145,0.00002964,-0.00000037,-0.00011875,0.00009536,0.00
 007665,-0.00009268,0.00030067,0.00022763,0.00002281,0.00006600,0.00004
 933,-0.00001264,0.00005807,0.00008455,0.00026598,-0.00002270,0.0000072
 2,0.00015673,0.00027185,0.00005507,-0.00032419,-0.00000266,0.00031754,
 0.14010464,0.19084659,0.01709999,0.01806377,-0.00272675,0.00098258,-0.
 00168037,0.00318941,-0.00044803,0.00124894,-0.00125020,0.00128745,-0.0
 0054251,-0.00114942,0.00015467,0.00047161,0.00002461,0.00000011,-0.000
 59875,0.00007562,0.00024472,0.00026729,-0.00008910,0.00168318,0.000532
 10,0.00003590,0.00375479,0.00264189,-0.00134659,0.01225764,0.01204179,
 -0.04795996,0.00069261,-0.00037183,-0.00044563,-0.00031964,0.00122441,
 -0.00204419,-0.00069530,0.00067452,-0.00014888,-0.00003462,0.00001732,
 -0.00000219,0.00014978,0.00002361,-0.00008711,0.00005629,-0.00002920,0
 .00000235,-0.00000035,0.00003124,0.00000950,-0.00021119,0.00007652,0.0
 0010350,-0.00034150,0.00032700,0.00006658,-0.00006415,-0.00015108,0.00
 003249,0.00002381,-0.00005353,-0.00020858,0.00016559,-0.00061883,0.000
 02496,-0.00022616,-0.00005853,-0.00001939,0.00000890,-0.00009813,-0.00
 002274,-0.01637640,-0.01416524,0.05136487,-0.00053280,-0.00546549,-0.0
 0445618,-0.00127378,0.00183895,-0.00195342,-0.00025506,-0.00003809,0.0
 0014375,0.00088370,0.00061291,-0.00008296,0.00004687,-0.00004428,-0.00
 014713,-0.00065922,-0.00068575,0.00032162,-0.00009585,0.00010576,-0.00
 051491,-0.00557974,0.00132067,0.00068885,0.00276597,0.01626225,0.02516
 485,-0.04846740,-0.00405506,-0.00419796,0.00007098,0.00000090,-0.00002
 049,0.00047526,-0.00036799,0.00012359,0.00007420,-0.00018346,-0.000171
 06,0.00009442,-0.00002274,-0.00010160,-0.00003014,-0.00008423,-0.00000
 462,-0.00001846,0.00001487,0.00000392,-0.00013551,-0.00001673,-0.00003
 256,0.00008562,-0.00002664,-0.00018499,-0.00060624,-0.00124907,0.00049
 935,0.00004328,-0.00007281,-0.00002085,-0.00003319,-0.00005346,0.00017
 275,0.00013400,0.00019420,-0.00029104,0.00030153,0.00127068,0.00141090
 ,0.00136278,-0.00015647,-0.00080923,0.00053768,-0.01167198,-0.01990756
 ,0.05081452,-0.00116035,0.01059219,0.01740155,0.00103935,-0.00050198,0
 .00188108,0.00053429,-0.00149494,0.00209706,0.00000970,-0.00027672,0.0
 0016977,-0.00006742,-0.00004742,-0.00011448,-0.00080765,-0.00068345,0.
 00041044,-0.00004253,-0.00036508,0.00037887,0.00388293,-0.00165306,-0.
 00040324,-0.00158240,-0.00823488,-0.01108890,-0.00327899,-0.12127140,-
 0.11949649,-0.00051200,0.00029716,0.00025470,0.00021399,0.00140637,-0.
 00007457,0.00007955,-0.00006200,-0.00015185,-0.00003639,-0.00002061,0.
 00006597,0.00006123,0.00007762,-0.00001399,-0.00001419,-0.00000014,0.0
 0001462,0.00008327,-0.00002667,-0.00004167,-0.00010299,0.00012345,0.00
 006517,-0.00132980,-0.00053097,0.00062963,-0.00000885,0.00011782,-0.00
 003673,-0.00000291,0.00002967,-0.00001618,0.00034776,0.00057143,0.0002
 4816,0.00025924,-0.00049898,-0.00121406,-0.00001463,0.00016111,0.00040
 796,-0.00010614,-0.01183696,-0.01933548,0.00260910,0.13428916,0.001267
 61,-0.01389560,-0.01689444,-0.00182225,0.00213749,-0.00307248,-0.00139
 055,0.00287685,-0.00153402,-0.00013199,-0.00079058,-0.00043658,0.00011
 171,0.00023679,0.00019172,0.00061015,-0.00105378,0.00000584,-0.0002540
 0,0.00024688,0.00077773,0.00127207,-0.00023974,0.00093570,-0.00073367,
 -0.00171013,-0.00303807,-0.00269827,-0.11779462,-0.23235653,0.00081619
 ,-0.00053528,-0.00031025,-0.00064936,0.00035804,0.00134188,0.00021209,
 -0.00032219,-0.00019659,-0.00009819,0.00005637,0.00006319,0.00005270,0
 .00001846,-0.00007198,0.00008215,-0.00004270,0.00001245,-0.00001596,0.
 00007978,0.00001416,-0.00047558,0.00019304,0.00026234,-0.00024536,0.00
 088141,0.00037725,0.00006328,0.00000997,-0.00000342,-0.00002124,0.0000
 4888,0.00005406,-0.00009369,0.00007687,0.00009734,-0.00020340,-0.00014
 742,-0.00027468,0.00060590,0.00002554,0.00079286,-0.00067651,0.0010965
 3,0.00282828,0.00435855,0.12783903,0.25066849,0.00098730,-0.00079196,-
 0.00031920,0.00024991,-0.00019402,0.00035592,-0.00277838,0.00019155,0.
 00198595,-0.00023720,-0.00023148,-0.00027394,-0.00024073,0.00010154,-0
 .00030871,-0.00000017,-0.00007061,-0.00000330,-0.00010246,0.00041516,0
 .00013464,0.00028276,-0.00007926,-0.00006306,-0.00001564,0.00015996,0.
 00006794,-0.00031433,0.00005493,0.00002881,-0.21621868,0.04056980,0.11
 597063,0.00006964,0.00007214,-0.00014366,0.00010473,0.00003156,-0.0000
 2960,0.00000034,-0.00011442,0.00004482,-0.00032979,0.00049375,-0.00059
 423,0.00018647,0.00000651,-0.00011800,0.00002957,-0.00000888,0.0000416
 4,-0.00001220,0.00001011,0.00001746,0.00000413,-0.00002216,-0.00003053
 ,0.00030165,-0.00067637,-0.00029055,0.00000398,0.00009173,-0.00000385,
 -0.00002568,0.00003729,-0.00007572,0.00001826,-0.00005486,0.00002352,0
 .00001727,-0.00009004,0.00002665,0.00002926,-0.00004706,0.00012259,0.0
 0000244,-0.00007715,0.00009527,0.23488667,0.00064111,-0.00339608,0.002
 73851,0.00000416,0.00025533,-0.00012622,-0.02026670,0.00413218,0.01175
 412,0.00033916,0.00060911,-0.00037028,0.00034731,0.00021617,0.00017739
 ,-0.00000842,0.00000051,-0.00006613,-0.00108745,0.00122772,0.00070498,
 0.00012871,0.00016936,-0.00014779,-0.00029146,0.00030308,-0.00021287,-
 0.00077132,0.00038955,0.00075606,0.04149340,-0.05764652,-0.02877255,-0
 .00005534,0.00031273,0.00022851,-0.00001835,-0.00004548,-0.00000621,0.
 00006888,-0.00018424,0.00002133,0.00014192,-0.00007888,0.00020721,-0.0
 0004342,-0.00008821,-0.00006731,-0.00002153,0.00006195,-0.00001421,0.0
 0009299,-0.00002568,-0.00004282,-0.00003596,-0.00008054,0.00007267,0.0
 0024812,-0.00059654,-0.00031196,0.00006048,-0.00003874,-0.00001514,0.0
 0000757,0.00006586,-0.00009563,0.00002664,0.00001195,-0.00002110,0.000
 06995,-0.00000883,-0.00006269,0.00000499,-0.00006241,0.00014339,0.0000
 3044,-0.00018562,0.00025906,-0.04508981,0.06059663,-0.00183990,0.00399
 713,-0.00277237,0.00041410,-0.00009748,0.00045354,0.02050444,-0.005309
 15,-0.01465443,0.00087108,-0.00072438,0.00047865,0.00020279,0.00049937
 ,-0.00022405,-0.00013282,0.00009795,-0.00014399,-0.00026849,-0.0010918
 1,0.00040798,-0.00029691,-0.00018821,0.00008344,0.00028923,-0.00015871
 ,0.00008038,0.00114454,-0.00010987,-0.00062716,0.11512835,-0.02788944,
 -0.12479819,-0.00030323,0.00011272,0.00031049,0.00005442,0.00004242,0.
 00005835,-0.00004910,0.00013862,-0.00002578,-0.00093876,-0.00023140,-0
 .00022091,-0.00016679,-0.00023329,0.00031187,-0.00005798,-0.00001318,-
 0.00005962,0.00003787,-0.00012566,-0.00008983,-0.00006058,0.00006598,0
 .00021197,-0.00018168,0.00058375,0.00060711,-0.00007625,-0.00007708,0.
 00011795,-0.00000713,-0.00007190,0.00007440,-0.00002559,0.00010416,0.0
 0001103,-0.00010919,0.00003846,-0.00001599,-0.00006543,0.00021387,-0.0
 0030658,-0.00000980,0.00018154,-0.00029609,-0.12867302,0.02805694,0.13
 642941,-0.00018373,0.00038411,0.00013944,0.00013937,-0.00017450,0.0004
 8462,0.00394984,0.00074002,0.00204645,0.00050221,-0.00075277,0.0012710
 1,-0.00005641,-0.00027008,0.00000954,-0.00001543,-0.00009997,0.0000373
 2,0.00041186,0.00003303,0.00003956,0.00003625,0.00017682,-0.00009714,0
 .00017309,-0.00010473,0.00011426,0.00004231,-0.00004027,-0.00011226,-0
 .21540207,-0.00099649,-0.12588203,-0.00002141,0.00002962,-0.00008159,0
 .00007458,0.00006894,-0.00009038,0.00000995,-0.00001529,0.00002763,0.0
 0028890,0.00015777,-0.00000721,0.00008643,0.00008810,-0.00010945,-0.00
 001222,-0.00000550,-0.00001253,0.00000690,0.00009384,0.00004966,0.0000
 2351,0.00001499,-0.00003616,-0.00023246,0.00007045,-0.00004633,0.00012
 423,0.00025860,-0.00007331,0.00001934,0.00000138,0.00001046,-0.0000002
 0,-0.00000981,0.00001332,-0.00003284,0.00001153,0.00011381,0.00004226,
 0.00001798,-0.00001525,-0.00002923,0.00001583,-0.00004181,-0.02041228,
 -0.00066741,-0.01541363,0.23198619,0.00030206,0.00067709,-0.00027878,-
 0.00008316,-0.00021343,-0.00009101,0.02052627,-0.00043091,0.01468412,-
 0.00217045,-0.00298175,0.00186518,-0.00045608,0.00009862,0.00015262,-0
 .00029188,-0.00036032,-0.00001150,0.00067632,0.00092325,-0.00015907,-0
 .00002028,0.00026441,0.00006704,0.00095641,-0.00006073,0.00106052,0.00
 016873,-0.00011494,-0.00013715,-0.00160171,-0.04650282,-0.00223224,-0.
 00016369,-0.00003795,-0.00005387,-0.00005498,0.00007327,-0.00025793,0.
 00003600,0.00002000,-0.00005678,0.00002209,-0.00001164,-0.00012624,0.0
 0006877,-0.00001287,0.00000726,0.00010663,0.00025217,0.00000185,0.0002
 9293,0.00029299,-0.00001065,-0.00000276,0.00004543,0.00005628,0.000099
 40,-0.00005476,-0.00008365,-0.00027989,-0.00020964,0.00000565,-0.00001
 694,-0.00001702,-0.00005795,-0.00004109,0.00006458,-0.00008479,-0.0002
 9559,-0.00039349,0.00028525,-0.00005276,0.00000354,0.00001376,-0.00001
 958,0.00001631,-0.00002642,0.00544258,-0.00094942,0.00437969,0.0014683
 1,0.04924077,-0.00189824,-0.00026702,-0.00053786,0.00059447,-0.0004231
 9,0.00104882,-0.02021654,0.00005690,-0.01679071,0.00289066,0.00302508,
 -0.00132172,0.00047312,0.00004040,-0.00006350,0.00004091,0.00039870,0.
 00036165,0.00011180,-0.00072964,0.00082100,0.00018461,-0.00020203,-0.0
 0033242,-0.00116543,0.00016438,-0.00093352,-0.00021672,0.00003602,0.00
 011796,-0.12447965,-0.00177589,-0.13845827,0.00014977,-0.00006833,-0.0
 0009367,0.00014848,-0.00001058,0.00017172,-0.00005869,0.00009501,0.000
 02672,-0.00016276,-0.00019766,0.00005433,-0.00020621,-0.00005320,0.000
 10200,-0.00003735,-0.00003652,-0.00008641,0.00013916,-0.00002238,0.000
 09514,0.00002827,-0.00006786,-0.00004407,0.00009780,0.00012582,0.00004
 142,0.00013040,0.00056816,0.00023957,0.00002467,0.00006010,0.00004677,
 0.00003263,-0.00002956,0.00008475,0.00032600,0.00043089,-0.00023104,0.
 00010647,0.00001061,0.00000143,0.00002051,-0.00002304,0.00005470,0.014
 87652,0.00047402,0.01213764,0.13803174,-0.00144497,0.15164343,0.000259
 50,-0.00134505,-0.00061327,-0.00019579,0.00039395,0.00013033,-0.001984
 88,-0.00281549,-0.00134401,0.00016558,0.00040386,0.00027583,-0.0000254
 2,0.00011329,-0.00004538,0.00022672,0.00033278,-0.00033644,0.00051225,
 -0.00000270,0.00105088,0.00034540,-0.00021062,-0.00027361,0.00005943,0
 .00002355,-0.00017719,0.00001102,0.00013889,0.00001560,-0.04960537,-0.
 02183492,-0.00884146,-0.00018707,0.00020903,0.00045072,-0.00004797,-0.
 00012278,0.00011123,0.00002994,-0.00014834,0.00002949,-0.00008118,0.00
 004788,0.00008166,-0.00001524,-0.00003756,-0.00002943,-0.00007224,-0.0
 0004240,0.00014448,-0.00041045,-0.00010766,-0.00062488,-0.00005231,-0.
 00003959,0.00013173,0.00012661,-0.00021830,-0.00028917,0.00014087,0.00
 040738,-0.00006500,-0.00001400,-0.00002120,-0.00004456,0.00001460,-0.0
 0007345,0.00013713,-0.00004416,0.00002327,0.00002467,-0.00003559,0.000
 04378,-0.00004457,0.00002335,0.00000815,0.00000417,0.00351318,0.024651
 31,0.01002944,-0.00151895,-0.02461567,-0.00996637,0.04886217,0.0005751
 6,-0.00015476,-0.00125092,0.00001488,0.00038467,0.00016122,-0.00191956
 ,-0.02236800,-0.00939206,-0.00052779,-0.00004166,-0.00101730,0.0000215
 6,-0.00006547,0.00017738,-0.00038983,-0.00023321,0.00012767,-0.0001211
 8,-0.00078120,0.00487855,-0.00040693,-0.00111635,-0.00066074,-0.000004
 12,-0.00010426,-0.00032771,0.00021789,0.00040378,0.00006788,-0.0217221
 8,-0.25905504,-0.09270152,-0.00069653,0.00074513,0.00074045,-0.0000451
 6,-0.00008598,0.00007965,-0.00012905,0.00017118,0.00002477,0.00013441,
 -0.00005252,-0.00007760,0.00008364,0.00000094,0.00004467,0.00009382,0.
 00042163,-0.00012374,0.00051479,0.00062599,-0.00013386,-0.00002990,-0.
 00001919,0.00012703,0.00004143,0.00048745,0.00010269,-0.00010303,-0.00
 014210,-0.00009231,0.00013254,-0.00025910,0.00038240,0.00006369,-0.000
 24080,0.00026480,0.00002430,0.00003630,0.00013847,0.00001055,0.0000886
 7,-0.00009568,-0.00004693,0.00000857,0.00011751,-0.00013057,-0.0049649
 4,-0.00219102,-0.00049450,0.00037925,-0.00013421,0.02483860,0.28593102
 ,-0.00027793,0.00083578,0.00130567,-0.00013942,-0.00019298,-0.00007909
 ,0.00309684,0.02243399,0.01086760,-0.00048575,-0.00033342,0.00069220,-
 0.00005605,-0.00005284,-0.00002548,-0.00027160,0.00012046,-0.00041474,
 0.00050722,0.00227190,-0.00336621,-0.00002039,0.00110844,0.00030478,0.
 00018186,-0.00002582,0.00042939,-0.00010942,-0.00016715,0.00021976,-0.
 00872152,-0.09399118,-0.08839234,0.00024010,-0.00032497,-0.00020002,0.
 00005596,-0.00002549,0.00005039,0.00005174,0.00002784,-0.00004815,-0.0
 0002990,-0.00004237,-0.00002281,-0.00001727,-0.00000236,0.00005300,0.0
 0006288,-0.00002850,0.00010554,-0.00059112,0.00006342,-0.00083385,0.00
 001357,-0.00002600,-0.00010565,-0.00026473,0.00006650,0.00005258,0.000
 09733,0.00017161,0.00001239,-0.00007039,0.00012033,-0.00016227,-0.0000
 3621,0.00014922,-0.00017679,-0.00003758,-0.00009633,0.00000434,-0.0000
 1917,-0.00006121,0.00004782,-0.00000228,-0.00003487,0.00000712,-0.0028
 6497,-0.01526128,-0.00753922,-0.00036973,-0.01746622,-0.00815587,0.010
 07794,0.10076352,0.09536991\\0.00000031,-0.00000016,0.00000015,-0.0000
 0028,0.00000007,0.00000004,-0.00000068,0.00000006,0.00000007,0.0000007
 4,0.00000009,0.00000015,-0.00000038,0.00000015,-0.00000014,-0.00000010
 ,-0.00000066,0.00000052,0.00000014,0.00000063,-0.00000043,-0.00000018,
 0.00000020,-0.00000043,-0.00000015,-0.00000090,-0.00000050,0.00000028,
 -0.00000062,-0.00000009,0.00000006,0.00000089,0.00000035,-0.00000001,-
 0.00000020,0.00000070,0.00000003,-0.00000007,0.00000036,0.00000003,0.0
 0000037,-0.00000057,-0.00000002,0.00000037,0.00000009,0.00000008,-0.00
 000015,-0.00000034,0.00000008,-0.00000074,0.00000038,0.,-0.00000019,0.
 00000082,0.00000002,-0.00000065,0.00000075,-0.00000009,0.00000079,-0.0
 0000058,-0.00000005,0.00000068,-0.00000042,0.00000018,-0.00000018,-0.0
 0000103,0.00000010,0.00000011,-0.00000110,0.00000010,-0.00000080,-0.00
 000051,0.00000016,-0.00000061,-0.00000041,0.00000013,-0.00000096,0.000
 00020,-0.00000017,0.00000097,0.00000043,-0.00000017,0.00000096,0.00000
 059,-0.00000014,0.00000056,0.00000094\\\@


 MEMORIES ARE LIKE AN ENGLISH GRAMMER LESSON -
 PRESENT TENSE, AND PAST PERFECT.
 Job cpu time:       0 days 13 hours 43 minutes 54.6 seconds.
 File lengths (MBytes):  RWF=    486 Int=      0 D2E=      0 Chk=     19 Scr=      1
 Normal termination of Gaussian 09 at Fri Jun 18 21:55:51 2021.
