
                                 *****************
                                 * O   R   C   A *
                                 *****************

           --- An Ab Initio, DFT and Semiempirical electronic structure package ---

                  #######################################################
                  #                        -***-                        #
                  #          Department of theory and spectroscopy      #
                  #               Directorship: Frank Neese             #
                  #        Max Planck Institute fuer Kohlenforschung    #
                  #                Kaiser Wilhelm Platz 1               #
                  #                 D-45470 Muelheim/Ruhr               #
                  #                      Germany                        #
                  #                                                     #
                  #                  All rights reserved                #
                  #                        -***-                        #
                  #######################################################


                         Program Version 4.2.0 -  RELEASE  -


 With contributions from (in alphabetic order):
   Daniel Aravena         : Magnetic Suceptibility
   Michael Atanasov       : Ab Initio Ligand Field Theory (pilot matlab implementation)
   Alexander A. Auer      : GIAO ZORA, VPT2
   Ute Becker             : Parallelization
   Giovanni Bistoni       : ED, misc. LED, open-shell LED, HFLED
   Martin Brehm           : Molecular dynamics
   Dmytro Bykov           : SCF Hessian
   Vijay G. Chilkuri      : MRCI spin determinant printing, contributions to CSF-ICE
   Dipayan Datta          : RHF DLPNO-CCSD density
   Achintya Kumar Dutta   : EOM-CC, STEOM-CC
   Dmitry Ganyushin       : Spin-Orbit,Spin-Spin,Magnetic field MRCI
   Miquel Garcia          : C-PCM Hessian, Gaussian charge scheme
   Yang Guo               : DLPNO-NEVPT2, CIM, IAO-localization
   Andreas Hansen         : Spin unrestricted coupled pair/coupled cluster methods
   Benjamin Helmich-Paris : CASSCF linear response (MC-RPA)
   Lee Huntington         : MR-EOM, pCC
   Robert Izsak           : Overlap fitted RIJCOSX, COSX-SCS-MP3, EOM
   Christian Kollmar      : KDIIS, OOCD, Brueckner-CCSD(T), CCSD density
   Simone Kossmann        : Meta GGA functionals, TD-DFT gradient, OOMP2, MP2 Hessian
   Martin Krupicka        : AUTO-CI
   Lucas Lang             : DCDCAS
   Dagmar Lenk            : GEPOL surface, SMD
   Dimitrios Liakos       : Extrapolation schemes; Compound Job, initial MDCI parallelization
   Dimitrios Manganas     : Further ROCIS development; embedding schemes
   Dimitrios Pantazis     : SARC Basis sets
   Taras Petrenko         : DFT Hessian,TD-DFT gradient, ASA, ECA, R-Raman, ABS, FL, XAS/XES, NRVS
   Peter Pinski           : DLPNO-MP2, DLPNO-MP2 Gradient
   Christoph Reimann      : Effective Core Potentials
   Marius Retegan         : Local ZFS, SOC
   Christoph Riplinger    : Optimizer, TS searches, QM/MM, DLPNO-CCSD(T), (RO)-DLPNO pert. Triples
   Tobias Risthaus        : Range-separated hybrids, TD-DFT gradient, RPA, STAB
   Michael Roemelt        : Original ROCIS implementation
   Masaaki Saitow         : Open-shell DLPNO-CCSD energy and density
   Barbara Sandhoefer     : DKH picture change effects
   Avijit Sen             : IP-ROCIS
   Kantharuban Sivalingam : CASSCF convergence, NEVPT2, FIC-MRCI
   Bernardo de Souza      : ESD, SOC TD-DFT
   Georgi Stoychev        : AutoAux, RI-MP2 NMR
   Willem Van den Heuvel  : Paramagnetic NMR
   Boris Wezisla          : Elementary symmetry handling
   Frank Wennmohs         : Technical directorship


 We gratefully acknowledge several colleagues who have allowed us to
 interface, adapt or use parts of their codes:
   Stefan Grimme, W. Hujo, H. Kruse,             : VdW corrections, initial TS optimization,
                  C. Bannwarth                     DFT functionals, gCP, sTDA/sTD-DF
   Ed Valeev, F. Pavosevic, A. Kumar             : LibInt (2-el integral package), F12 methods
   Garnet Chan, S. Sharma, J. Yang, R. Olivares  : DMRG
   Ulf Ekstrom                                   : XCFun DFT Library
   Mihaly Kallay                                 : mrcc  (arbitrary order and MRCC methods)
   Andreas Klamt, Michael Diedenhofen            : otool_cosmo (COSMO solvation model)
   Jiri Pittner, Ondrej Demel                    : Mk-CCSD
   Frank Weinhold                                : gennbo (NPA and NBO analysis)
   Christopher J. Cramer and Donald G. Truhlar   : smd solvation model
   Lars Goerigk                                  : TD-DFT with DH, B97 family of functionals
   V. Asgeirsson, H. Jonsson                     : NEB implementation
   FAccTs GmbH                                   : IRC, NEB, NEB-TS, Multilevel, MM, QM/MM, CI optimization
   S Lehtola, MJT Oliveira, MAL Marques          : LibXC Library


 Your calculation uses the libint2 library for the computation of 2-el integrals
 For citations please refer to: http://libint.valeyev.net

 Your ORCA version has been built with support for libXC version: 4.2.3
 For citations please refer to: https://tddft.org/programs/libxc/

 This ORCA versions uses:
   CBLAS   interface :  Fast vector & matrix operations
   LAPACKE interface :  Fast linear algebra routines
   SCALAPACK package :  Parallel linear algebra routines




***************************************
The coordinates will be read from file: 12.xyz
***************************************


Your calculation utilizes the atom-pairwise dispersion correction
with the Becke-Johnson damping scheme (D3BJ)
Cite in your paper:
S.Grimme, S.Ehrlich, L.Goerigk, J Comput Chem, (2011), 32, 1456–1465 
S.Grimme, J.Antony, S.Ehrlich and H.Krieg, J.Chem.Phys., 132, (2010), 154104 
   

----- Orbital basis set information -----
Your calculation utilizes the basis: def2-TZVP
   F. Weigend and R. Ahlrichs, Phys. Chem. Chem. Phys. 7, 3297 (2005).

----- AuxJ basis set information -----
Your calculation utilizes the auxiliary basis: def2/J
   F. Weigend, Phys. Chem. Chem. Phys. 8, 1057 (2006).

================================================================================
                                        WARNINGS
                       Please study these warnings very carefully!
================================================================================


WARNING: Geometry Optimization
  ===> : Switching off AutoStart
         For restart on a previous wavefunction, please use MOREAD

INFO   : the flag for use of LIBINT has been found!

================================================================================
                                       INPUT FILE
================================================================================
NAME = 12.inp
|  1> !RI BP86 def2-tzvp def2/J D3BJ TIGHTSCF TightOpt Grid5 FinalGrid6 freq
|  2> %maxcore 4000
|  3> %pal nprocs 24
|  4> end
|  5> * xyzfile 0 1 12.xyz 
|  6> 
|  7>                          ****END OF INPUT****
================================================================================

                       *****************************
                       * Geometry Optimization Run *
                       *****************************

Geometry optimization settings:
Update method            Update   .... BFGS
Choice of coordinates    CoordSys .... Z-matrix Internals
Initial Hessian          InHess   .... Almoef's Model

Convergence Tolerances:
Energy Change            TolE     ....  1.0000e-06 Eh
Max. Gradient            TolMAXG  ....  1.0000e-04 Eh/bohr
RMS Gradient             TolRMSG  ....  3.0000e-05 Eh/bohr
Max. Displacement        TolMAXD  ....  1.0000e-03 bohr
RMS Displacement         TolRMSD  ....  6.0000e-04 bohr
Strict Convergence                ....  False
------------------------------------------------------------------------------
                        ORCA OPTIMIZATION COORDINATE SETUP
------------------------------------------------------------------------------

The optimization will be done in new redundant internal coordinates
Making redundant internal coordinates   ...  (new redundants) done
Evaluating the initial hessian          ...  (Almloef) done
Evaluating the coordinates              ...  done
Calculating the B-matrix                .... done
Calculating the G-matrix                .... done
Diagonalizing the G-matrix              .... done
Small eigenvalue found = 5.794e-04
Small eigenvalue found = 1.735e-03
Small eigenvalue found = 2.697e-03
Small eigenvalue found = 3.507e-03
Small eigenvalue found = 4.351e-03
Small eigenvalue found = 5.252e-03
Small eigenvalue found = 6.674e-03
Small eigenvalue found = 9.161e-03
Small eigenvalue found = 9.718e-03
Small eigenvalue found = 1.119e-02
Small eigenvalue found = 1.155e-02
Small eigenvalue found = 1.321e-02
Small eigenvalue found = 1.576e-02
Small eigenvalue found = 1.815e-02
Small eigenvalue found = 1.966e-02
Small eigenvalue found = 2.011e-02
Small eigenvalue found = 2.268e-02
Small eigenvalue found = 2.429e-02
Small eigenvalue found = 2.675e-02
Small eigenvalue found = 2.927e-02
The first mode is                       ....  326
The number of degrees of freedom        ....  339

    -----------------------------------------------------------------
                    Redundant Internal Coordinates


    -----------------------------------------------------------------
         Definition                    Initial Value    Approx d2E/dq
    -----------------------------------------------------------------
      1. B(C   1,O   0)                  1.2336         0.994215   
      2. B(C   2,C   1)                  1.5522         0.344371   
      3. B(C   3,C   2)                  1.5271         0.377570   
      4. B(C   4,C   3)                  1.5383         0.362323   
      5. B(C   5,C   4)                  1.5387         0.361856   
      6. B(N   6,C   2)                  1.4795         0.402814   
      7. B(N   6,C   5)                  1.4769         0.406681   
      8. B(C   7,N   6)                  1.3482         0.652525   
      9. B(O   8,C   7)                  1.2451         0.952810   
     10. B(N   9,C   1)                  1.3555         0.635224   
     11. B(C  10,N   9)                  1.4515         0.446472   
     12. B(C  11,C  10)                  1.5455         0.352869   
     13. B(N  12,C  11)                  1.3728         0.596094   
     14. B(C  13,N  12)                  1.4528         0.444325   
     15. B(C  14,C  13)                  1.5369         0.364253   
     16. B(N  15,C  14)                  1.3560         0.633959   
     17. B(C  16,N  15)                  1.4557         0.439523   
     18. B(C  17,C  16)                  1.5297         0.374035   
     19. B(C  18,C  17)                  1.5767         0.314693   
     20. B(C  19,C  18)                  1.5418         0.357787   
     21. B(N  20,C  19)                  1.3619         0.620443   
     22. B(C  21,N  20)                  1.4545         0.441615   
     23. B(C  22,C  21)                  1.5515         0.345252   
     24. B(N  23,C  22)                  1.3656         0.611964   
     25. B(C  24,N  23)                  1.4553         0.440294   
     26. B(C  24,C   7)                  1.5396         0.360617   
     27. B(C  25,C  24)                  1.5325         0.370102   
     28. B(O  26,C  22)                  1.2295         1.009180   
     29. B(C  27,C  21)                  1.5363         0.365071   
     30. B(C  28,C  27)                  1.5328         0.369818   
     31. B(C  29,C  28)                  1.5321         0.370674   
     32. B(C  30,C  28)                  1.5324         0.370288   
     33. B(O  31,C  19)                  1.2312         1.002896   
     34. B(C  32,C  18)                  1.5240         0.381867   
     35. B(C  33,C  32)                  1.4972         0.421483   
     36. B(C  34,C  33)                  1.5225         0.384046   
     37. B(C  35,C  34)                  1.5287         0.375373   
     38. B(C  36,C  35)                  1.5303         0.373201   
     39. B(C  37,C  36)                  1.5296         0.374088   
     40. B(C  38,C  37)                  1.5303         0.373115   
     41. B(C  39,C  38)                  1.5301         0.373414   
     42. B(C  40,C  39)                  1.5310         0.372228   
     43. B(C  41,C  40)                  1.5299         0.373705   
     44. B(O  42,C  32)                  1.2360         0.985338   
     45. B(O  43,C  17)                  1.4189         0.503271   
     46. B(O  44,C  14)                  1.2398         0.971664   
     47. B(C  45,C  13)                  1.5399         0.360200   
     48. B(C  46,C  45)                  1.5297         0.374040   
     49. B(O  47,C  11)                  1.2265         1.020322   
     50. B(C  48,C  10)                  1.5593         0.335512   
     51. B(C  49,C  48)                  1.5327         0.369928   
     52. B(C  50,C  48)                  1.5370         0.364080   
     53. B(H  51,C   2)                  1.0985         0.349027   
     54. B(H  52,C   3)                  1.0998         0.347361   
     55. B(H  53,C   3)                  1.0952         0.353238   
     56. B(H  54,C   4)                  1.0969         0.351084   
     57. B(H  55,C   4)                  1.0970         0.351013   
     58. B(H  56,C   5)                  1.0992         0.348165   
     59. B(H  57,C   5)                  1.1007         0.346209   
     60. B(H  58,N   9)                  1.0236         0.411564   
     61. B(H  58,O  42)                  2.1966         0.005535   
     62. B(H  59,C  10)                  1.1040         0.342003   
     63. B(H  60,N  12)                  1.0137         0.426814   
     64. B(H  61,C  13)                  1.0996         0.347670   
     65. B(H  62,N  15)                  1.0179         0.420275   
     66. B(H  63,C  16)                  1.0977         0.350012   
     67. B(H  64,C  16)                  1.0996         0.347639   
     68. B(H  65,C  17)                  1.1047         0.341231   
     69. B(H  66,C  18)                  1.0992         0.348110   
     70. B(H  67,N  20)                  1.0270         0.406448   
     71. B(H  68,C  21)                  1.1012         0.345600   
     72. B(H  69,N  23)                  1.0198         0.417438   
     73. B(H  70,C  24)                  1.0985         0.349051   
     74. B(H  71,C  25)                  1.0973         0.350541   
     75. B(H  72,C  25)                  1.0995         0.347733   
     76. B(H  73,C  25)                  1.0986         0.348853   
     77. B(H  74,C  27)                  1.0998         0.347316   
     78. B(H  75,C  27)                  1.1017         0.344939   
     79. B(H  76,C  28)                  1.1051         0.340712   
     80. B(H  77,C  29)                  1.0993         0.347966   
     81. B(H  78,C  29)                  1.1000         0.347173   
     82. B(H  79,C  29)                  1.1017         0.345012   
     83. B(H  80,H  60)                  4.1836         0.000001   
     84. B(H  80,C  30)                  1.1007         0.346259   
     85. B(H  81,C  30)                  1.1011         0.345771   
     86. B(H  82,C  30)                  1.0996         0.347644   
     87. B(H  83,C  33)                  1.1051         0.340619   
     88. B(H  84,C  33)                  1.1087         0.336142   
     89. B(H  85,C  34)                  1.0998         0.347362   
     90. B(H  86,O   8)                  2.4776         0.001971   
     91. B(H  86,C  34)                  1.1012         0.345590   
     92. B(H  87,C  35)                  1.1049         0.340866   
     93. B(H  88,C  35)                  1.1043         0.341684   
     94. B(H  89,O  47)                  3.6038         0.000031   
     95. B(H  89,C  36)                  1.1033         0.342947   
     96. B(H  90,C  36)                  1.1048         0.341005   
     97. B(H  91,C  37)                  1.1046         0.341270   
     98. B(H  92,C  37)                  1.1043         0.341684   
     99. B(H  93,C  38)                  1.1042         0.341797   
    100. B(H  94,C  38)                  1.1046         0.341281   
    101. B(H  95,C  39)                  1.1047         0.341199   
    102. B(H  96,C  39)                  1.1045         0.341382   
    103. B(H  97,C  40)                  1.1034         0.342842   
    104. B(H  98,C  40)                  1.1035         0.342661   
    105. B(H  99,C  41)                  1.0995         0.347733   
    106. B(H 100,C  41)                  1.1007         0.346164   
    107. B(H 101,C  41)                  1.1008         0.346083   
    108. B(H 102,O  43)                  0.9881         0.468915   
    109. B(H 103,C  45)                  1.1002         0.346874   
    110. B(H 104,C  45)                  1.0991         0.348322   
    111. B(H 105,C  46)                  1.0982         0.349354   
    112. B(H 106,C  46)                  1.1014         0.345379   
    113. B(H 107,C  46)                  1.0997         0.347430   
    114. B(H 108,C  48)                  1.1061         0.339419   
    115. B(H 109,C  49)                  1.0964         0.351789   
    116. B(H 110,H  75)                  2.2482         0.000979   
    117. B(H 110,C  49)                  1.0985         0.349085   
    118. B(H 111,C  49)                  1.0994         0.347937   
    119. B(H 112,C  50)                  1.1004         0.346604   
    120. B(H 113,C  50)                  1.1003         0.346730   
    121. B(H 114,C  50)                  1.0990         0.348425   
    122. A(O   0,C   1,N   9)          123.8562         0.468777   
    123. A(C   2,C   1,N   9)          114.4399         0.390231   
    124. A(O   0,C   1,C   2)          121.6287         0.422376   
    125. A(C   1,C   2,H  51)          109.7165         0.318396   
    126. A(N   6,C   2,H  51)          108.7137         0.324725   
    127. A(C   1,C   2,N   6)          109.2248         0.360722   
    128. A(C   1,C   2,C   3)          111.8393         0.358992   
    129. A(C   3,C   2,H  51)          114.3235         0.323224   
    130. A(C   3,C   2,N   6)          102.6871         0.366442   
    131. A(C   4,C   3,H  53)          112.2682         0.321680   
    132. A(C   4,C   3,H  52)          111.1890         0.320798   
    133. A(C   2,C   3,C   4)          103.2647         0.362116   
    134. A(C   2,C   3,H  53)          111.4818         0.323861   
    135. A(C   2,C   3,H  52)          109.3217         0.322971   
    136. A(H  52,C   3,H  53)          109.1940         0.288331   
    137. A(H  54,C   4,H  55)          108.4280         0.288527   
    138. A(C   3,C   4,H  55)          113.0777         0.321348   
    139. A(C   3,C   4,C   5)          104.5179         0.359501   
    140. A(C   3,C   4,H  54)          108.9543         0.321358   
    141. A(C   5,C   4,H  55)          111.6602         0.321280   
    142. A(C   5,C   4,H  54)          110.1376         0.321290   
    143. A(H  56,C   5,H  57)          108.2162         0.287530   
    144. A(C   4,C   5,N   6)          103.9118         0.364380   
    145. A(C   4,C   5,H  56)          112.3429         0.320852   
    146. A(N   6,C   5,H  57)          109.6584         0.324802   
    147. A(N   6,C   5,H  56)          110.9344         0.325103   
    148. A(C   4,C   5,H  57)          111.7438         0.320556   
    149. A(C   5,N   6,C   7)          126.5077         0.401105   
    150. A(C   2,N   6,C   7)          121.3813         0.400431   
    151. A(C   2,N   6,C   5)          111.9714         0.368824   
    152. A(O   8,C   7,C  24)          119.2786         0.422645   
    153. A(N   6,C   7,O   8)          122.3309         0.467433   
    154. A(N   6,C   7,C  24)          118.3765         0.395247   
    155. A(C   1,N   9,C  10)          120.9256         0.405836   
    156. A(C  10,N   9,H  58)          118.8364         0.336532   
    157. A(C   1,N   9,H  58)          120.0780         0.357096   
    158. A(C  48,C  10,H  59)          107.4411         0.316000   
    159. A(C  11,C  10,H  59)          106.2986         0.318606   
    160. A(N   9,C  10,C  11)          107.8475         0.368664   
    161. A(N   9,C  10,C  48)          113.0604         0.365489   
    162. A(N   9,C  10,H  59)          104.8043         0.329172   
    163. A(C  11,C  10,C  48)          116.5390         0.353326   
    164. A(N  12,C  11,O  47)          122.2574         0.465554   
    165. A(C  10,C  11,O  47)          121.1026         0.426193   
    166. A(C  10,C  11,N  12)          116.6387         0.387570   
    167. A(C  13,N  12,H  60)          118.5959         0.338306   
    168. A(C  11,N  12,C  13)          122.2331         0.400969   
    169. A(C  11,N  12,H  60)          119.1020         0.355451   
    170. A(C  14,C  13,C  45)          109.9747         0.359545   
    171. A(N  12,C  13,H  61)          105.5758         0.329804   
    172. A(C  14,C  13,H  61)          106.2023         0.321124   
    173. A(N  12,C  13,C  14)          112.6463         0.370374   
    174. A(C  45,C  13,H  61)          109.2808         0.320537   
    175. A(N  12,C  13,C  45)          112.8100         0.369662   
    176. A(C  13,C  14,N  15)          116.2512         0.393945   
    177. A(N  15,C  14,O  44)          123.0544         0.466640   
    178. A(C  13,C  14,O  44)          120.6681         0.424889   
    179. A(C  14,N  15,H  62)          116.2465         0.358248   
    180. A(C  16,N  15,H  62)          118.0407         0.336826   
    181. A(C  14,N  15,C  16)          122.2416         0.404571   
    182. A(H  63,C  16,H  64)          107.8715         0.287953   
    183. A(C  17,C  16,H  64)          107.9815         0.322516   
    184. A(N  15,C  16,H  63)          108.3790         0.329578   
    185. A(C  17,C  16,H  63)          109.7021         0.322875   
    186. A(N  15,C  16,C  17)          114.8394         0.371371   
    187. A(N  15,C  16,H  64)          107.8467         0.329208   
    188. A(O  43,C  17,H  65)          109.4153         0.335644   
    189. A(C  18,C  17,H  65)          103.9417         0.312618   
    190. A(C  16,C  17,H  65)          106.5054         0.321534   
    191. A(C  16,C  17,C  18)          114.6434         0.352978   
    192. A(C  18,C  17,O  43)          109.6923         0.368996   
    193. A(C  16,C  17,O  43)          112.1721         0.380161   
    194. A(C  19,C  18,H  66)          105.3175         0.320251   
    195. A(C  17,C  18,H  66)          103.8821         0.313630   
    196. A(C  17,C  18,C  32)          113.4704         0.354219   
    197. A(C  17,C  18,C  19)          108.5100         0.350338   
    198. A(C  19,C  18,C  32)          117.0055         0.362037   
    199. A(C  32,C  18,H  66)          107.5103         0.323685   
    200. A(C  18,C  19,N  20)          115.9178         0.391233   
    201. A(N  20,C  19,O  31)          124.3134         0.467503   
    202. A(C  18,C  19,O  31)          119.7580         0.425935   
    203. A(C  19,N  20,H  67)          115.3727         0.354917   
    204. A(C  19,N  20,C  21)          124.4390         0.403373   
    205. A(C  21,N  20,H  67)          119.8169         0.335221   
    206. A(C  27,C  21,H  68)          110.5235         0.320928   
    207. A(C  22,C  21,H  68)          108.0092         0.318016   
    208. A(N  20,C  21,H  68)          106.0407         0.329146   
    209. A(N  20,C  21,C  22)          110.9911         0.366598   
    210. A(C  22,C  21,C  27)          109.2161         0.357098   
    211. A(N  20,C  21,C  27)          111.9577         0.370127   
    212. A(C  21,C  22,N  23)          114.4018         0.387871   
    213. A(C  21,C  22,O  26)          121.8621         0.423699   
    214. A(N  23,C  22,O  26)          123.7359         0.466860   
    215. A(C  22,N  23,C  24)          122.1646         0.402183   
    216. A(C  24,N  23,H  69)          113.2183         0.336545   
    217. A(C  22,N  23,H  69)          117.0124         0.355696   
    218. A(C  25,C  24,H  70)          110.3630         0.322171   
    219. A(N  23,C  24,H  70)          106.4430         0.329524   
    220. A(C   7,C  24,H  70)          111.4721         0.320805   
    221. A(N  23,C  24,C  25)          112.1991         0.370808   
    222. A(C   7,C  24,N  23)          105.5115         0.369157   
    223. A(C   7,C  24,C  25)          110.7011         0.360593   
    224. A(H  71,C  25,H  73)          108.8347         0.288179   
    225. A(C  24,C  25,H  73)          110.2294         0.322142   
    226. A(H  71,C  25,H  72)          108.6007         0.288034   
    227. A(C  24,C  25,H  72)          111.0707         0.321972   
    228. A(C  24,C  25,H  71)          109.7540         0.322396   
    229. A(H  72,C  25,H  73)          108.2963         0.287816   
    230. A(C  28,C  27,H  75)          109.1076         0.321506   
    231. A(C  21,C  27,C  28)          115.0654         0.361302   
    232. A(H  74,C  27,H  75)          105.6287         0.287255   
    233. A(C  21,C  27,H  75)          108.5328         0.320828   
    234. A(C  28,C  27,H  74)          110.3863         0.321868   
    235. A(C  21,C  27,H  74)          107.6862         0.321188   
    236. A(C  29,C  28,C  30)          111.3537         0.362321   
    237. A(C  27,C  28,C  30)          109.8054         0.362178   
    238. A(C  27,C  28,C  29)          112.5919         0.362242   
    239. A(C  30,C  28,H  76)          107.3432         0.320925   
    240. A(C  29,C  28,H  76)          108.0575         0.320980   
    241. A(C  27,C  28,H  76)          107.4583         0.320858   
    242. A(C  28,C  29,H  79)          110.4445         0.321639   
    243. A(H  78,C  29,H  79)          107.5096         0.287246   
    244. A(H  77,C  29,H  79)          107.8283         0.287349   
    245. A(H  77,C  29,H  78)          107.8202         0.287629   
    246. A(C  28,C  29,H  78)          110.8520         0.321968   
    247. A(C  28,C  29,H  77)          112.2062         0.322089   
    248. A(H  81,C  30,H  82)          107.7530         0.287406   
    249. A(H  80,C  30,H  82)          107.9903         0.287469   
    250. A(C  28,C  30,H  82)          111.2024         0.321985   
    251. A(H  80,C  30,H  81)          107.6051         0.287227   
    252. A(C  28,C  30,H  81)          110.7786         0.321700   
    253. A(C  28,C  30,H  80)          111.3501         0.321774   
    254. A(C  33,C  32,O  42)          121.6015         0.437269   
    255. A(C  18,C  32,O  42)          122.0681         0.429574   
    256. A(C  18,C  32,C  33)          116.3271         0.372352   
    257. A(C  32,C  33,C  34)          115.0262         0.372717   
    258. A(C  34,C  33,H  84)          112.7524         0.322134   
    259. A(H  83,C  33,H  84)          104.1289         0.285233   
    260. A(C  32,C  33,H  84)          104.9005         0.327095   
    261. A(C  34,C  33,H  83)          111.7250         0.322834   
    262. A(C  32,C  33,H  83)          107.4892         0.327809   
    263. A(C  33,C  34,C  35)          113.0336         0.365374   
    264. A(H  85,C  34,H  86)          106.1725         0.287346   
    265. A(C  35,C  34,H  86)          109.6020         0.322392   
    266. A(C  33,C  34,H  86)          108.2445         0.323602   
    267. A(C  35,C  34,H  85)          109.7932         0.322662   
    268. A(C  33,C  34,H  85)          109.7536         0.323873   
    269. A(C  34,C  35,C  36)          112.2586         0.363588   
    270. A(H  87,C  35,H  88)          106.0273         0.285993   
    271. A(C  36,C  35,H  88)          109.3680         0.321487   
    272. A(C  34,C  35,H  88)          109.5945         0.321792   
    273. A(C  36,C  35,H  87)          109.3671         0.321361   
    274. A(C  34,C  35,H  87)          110.0312         0.321666   
    275. A(C  35,C  36,C  37)          113.7015         0.363375   
    276. A(H  89,C  36,H  90)          105.8359         0.286176   
    277. A(C  37,C  36,H  90)          109.2694         0.321507   
    278. A(C  35,C  36,H  90)          109.0242         0.321382   
    279. A(C  37,C  36,H  89)          109.6176         0.321806   
    280. A(C  35,C  36,H  89)          109.0922         0.321681   
    281. A(C  36,C  37,C  38)          113.4280         0.363360   
    282. A(H  91,C  37,H  92)          105.9013         0.286045   
    283. A(C  38,C  37,H  92)          109.2659         0.321474   
    284. A(C  36,C  37,H  92)          109.2484         0.321612   
    285. A(C  38,C  37,H  91)          109.2926         0.321411   
    286. A(C  36,C  37,H  91)          109.4293         0.321548   
    287. A(C  37,C  38,C  39)          113.5942         0.363248   
    288. A(H  93,C  38,H  94)          105.8680         0.286062   
    289. A(C  39,C  38,H  94)          109.2739         0.321455   
    290. A(C  37,C  38,H  94)          109.2557         0.321412   
    291. A(C  39,C  38,H  93)          109.3282         0.321534   
    292. A(C  37,C  38,H  93)          109.2321         0.321492   
    293. A(C  38,C  39,C  40)          113.6010         0.363101   
    294. A(H  95,C  39,H  96)          105.8519         0.285997   
    295. A(C  40,C  39,H  96)          109.2289         0.321303   
    296. A(C  38,C  39,H  96)          109.2893         0.321470   
    297. A(C  40,C  39,H  95)          109.2362         0.321275   
    298. A(C  38,C  39,H  95)          109.3431         0.321442   
    299. A(C  39,C  40,C  41)          113.1504         0.363149   
    300. A(H  97,C  40,H  98)          105.9281         0.286378   
    301. A(C  41,C  40,H  98)          109.6312         0.321708   
    302. A(C  39,C  40,H  98)          109.1231         0.321500   
    303. A(C  41,C  40,H  97)          109.6385         0.321736   
    304. A(C  39,C  40,H  97)          109.1129         0.321527   
    305. A(H 100,C  41,H 101)          107.4293         0.287255   
    306. A(H  99,C  41,H 101)          107.6927         0.287458   
    307. A(C  40,C  41,H 101)          111.0920         0.322232   
    308. A(H  99,C  41,H 100)          107.6866         0.287468   
    309. A(C  40,C  41,H 100)          111.0731         0.322244   
    310. A(C  40,C  41,H  99)          111.6743         0.322483   
    311. A(C  17,O  43,H 102)          108.3236         0.350954   
    312. A(C  13,C  45,C  46)          113.8406         0.361173   
    313. A(C  46,C  45,H 104)          109.9688         0.322620   
    314. A(C  13,C  45,H 104)          107.1507         0.320635   
    315. A(C  46,C  45,H 103)          110.5196         0.322400   
    316. A(C  13,C  45,H 103)          107.7017         0.320417   
    317. A(H 103,C  45,H 104)          107.4012         0.287636   
    318. A(H 106,C  46,H 107)          107.8997         0.287327   
    319. A(H 105,C  46,H 107)          107.6189         0.287842   
    320. A(C  45,C  46,H 107)          111.4786         0.322485   
    321. A(H 105,C  46,H 106)          106.7693         0.287575   
    322. A(C  45,C  46,H 106)          112.1866         0.322172   
    323. A(C  45,C  46,H 105)          110.6546         0.322776   
    324. A(C  50,C  48,H 108)          109.2924         0.319841   
    325. A(C  49,C  48,H 108)          107.1456         0.320675   
    326. A(C  10,C  48,H 108)          108.3698         0.315610   
    327. A(C  49,C  48,C  50)          109.2936         0.361153   
    328. A(C  10,C  48,C  50)          110.6503         0.355204   
    329. A(C  10,C  48,C  49)          111.9922         0.356165   
    330. A(H 110,C  49,H 111)          108.1112         0.287873   
    331. A(H 109,C  49,H 111)          108.0796         0.288220   
    332. A(C  48,C  49,H 111)          110.5938         0.321978   
    333. A(H 109,C  49,H 110)          107.5645         0.288369   
    334. A(C  48,C  49,H 110)          110.4601         0.322152   
    335. A(C  48,C  49,H 109)          111.8922         0.322559   
    336. A(H 113,C  50,H 114)          107.8360         0.287631   
    337. A(H 112,C  50,H 114)          107.8770         0.287615   
    338. A(C  48,C  50,H 114)          110.9301         0.321213   
    339. A(H 112,C  50,H 113)          106.6062         0.287396   
    340. A(C  48,C  50,H 113)          109.5702         0.320957   
    341. A(C  48,C  50,H 112)          113.7716         0.320938   
    342. D(H  51,C   2,C   1,N   9)    -50.1710         0.008988   
    343. D(C   3,C   2,C   1,N   9)   -178.1225         0.008988   
    344. D(N   6,C   2,C   1,N   9)     68.9020         0.008988   
    345. D(N   6,C   2,C   1,O   0)   -108.0580         0.008988   
    346. D(C   3,C   2,C   1,O   0)      4.9175         0.008988   
    347. D(H  51,C   2,C   1,O   0)    132.8690         0.008988   
    348. D(C   4,C   3,C   2,N   6)     34.8797         0.011370   
    349. D(H  53,C   3,C   2,H  51)    -86.8196         0.011370   
    350. D(H  53,C   3,C   2,C   1)     38.6314         0.011370   
    351. D(C   4,C   3,C   2,H  51)    152.4388         0.011370   
    352. D(H  53,C   3,C   2,N   6)    155.6213         0.011370   
    353. D(H  52,C   3,C   2,H  51)     34.0031         0.011370   
    354. D(C   4,C   3,C   2,C   1)    -82.1102         0.011370   
    355. D(H  52,C   3,C   2,C   1)    159.4541         0.011370   
    356. D(H  52,C   3,C   2,N   6)    -83.5560         0.011370   
    357. D(H  55,C   4,C   3,H  53)     82.4431         0.010523   
    358. D(H  55,C   4,C   3,H  52)    -40.2241         0.010523   
    359. D(H  54,C   4,C   3,H  52)   -160.8639         0.010523   
    360. D(H  55,C   4,C   3,C   2)   -157.3518         0.010523   
    361. D(H  54,C   4,C   3,H  53)    -38.1966         0.010523   
    362. D(C   5,C   4,C   3,C   2)    -35.6987         0.010523   
    363. D(H  54,C   4,C   3,C   2)     82.0084         0.010523   
    364. D(C   5,C   4,C   3,H  53)   -155.9038         0.010523   
    365. D(C   5,C   4,C   3,H  52)     81.4290         0.010523   
    366. D(N   6,C   5,C   4,C   3)     22.1330         0.010498   
    367. D(H  57,C   5,C   4,C   3)    -96.0256         0.010498   
    368. D(H  56,C   5,C   4,H  55)    -95.2994         0.010498   
    369. D(H  56,C   5,C   4,C   3)    142.1182         0.010498   
    370. D(H  57,C   5,C   4,H  54)    147.0812         0.010498   
    371. D(H  56,C   5,C   4,H  54)     25.2250         0.010498   
    372. D(H  57,C   5,C   4,H  55)     26.5568         0.010498   
    373. D(N   6,C   5,C   4,H  54)    -94.7602         0.010498   
    374. D(N   6,C   5,C   4,H  55)    144.7154         0.010498   
    375. D(C   5,N   6,C   2,C   3)    -22.1595         0.013850   
    376. D(C   7,N   6,C   5,H  57)    -56.1095         0.014112   
    377. D(C   7,N   6,C   5,H  56)     63.3673         0.014112   
    378. D(C   7,N   6,C   5,C   4)   -175.6974         0.014112   
    379. D(C   2,N   6,C   5,H  57)    119.6104         0.014112   
    380. D(C   2,N   6,C   5,H  56)   -120.9127         0.014112   
    381. D(C   7,N   6,C   2,H  51)     32.3434         0.013850   
    382. D(C   2,N   6,C   5,C   4)      0.0226         0.014112   
    383. D(C   7,N   6,C   2,C   3)    153.8113         0.013850   
    384. D(C   5,N   6,C   2,C   1)     96.6788         0.013850   
    385. D(C   7,N   6,C   2,C   1)    -87.3504         0.013850   
    386. D(C   5,N   6,C   2,H  51)   -143.6274         0.013850   
    387. D(C  24,C   7,N   6,C   5)     -6.3491         0.034772   
    388. D(C  24,C   7,N   6,C   2)    178.3009         0.034772   
    389. D(O   8,C   7,N   6,C   5)    175.0237         0.034772   
    390. D(O   8,C   7,N   6,C   2)     -0.3263         0.034772   
    391. D(H  58,N   9,C   1,O   0)   -178.8518         0.032802   
    392. D(C  10,N   9,C   1,C   2)   -171.0824         0.032802   
    393. D(H  58,N   9,C   1,C   2)      4.2653         0.032802   
    394. D(C  10,N   9,C   1,O   0)      5.8005         0.032802   
    395. D(H  59,C  10,N   9,C   1)    -19.9018         0.017002   
    396. D(C  48,C  10,N   9,H  58)    -78.5975         0.017002   
    397. D(C  48,C  10,N   9,C   1)     96.8069         0.017002   
    398. D(C  11,C  10,N   9,C   1)   -132.8596         0.017002   
    399. D(H  59,C  10,N   9,H  58)    164.6937         0.017002   
    400. D(C  11,C  10,N   9,H  58)     51.7360         0.017002   
    401. D(O  47,C  11,C  10,N   9)     39.8100         0.009395   
    402. D(N  12,C  11,C  10,H  59)    108.2602         0.009395   
    403. D(N  12,C  11,C  10,C  48)    -11.4152         0.009395   
    404. D(N  12,C  11,C  10,N   9)   -139.7883         0.009395   
    405. D(O  47,C  11,C  10,H  59)    -72.1414         0.009395   
    406. D(O  47,C  11,C  10,C  48)    168.1831         0.009395   
    407. D(H  60,N  12,C  11,O  47)    172.0982         0.028605   
    408. D(H  60,N  12,C  11,C  10)     -8.3085         0.028605   
    409. D(C  13,N  12,C  11,O  47)     -4.8383         0.028605   
    410. D(C  13,N  12,C  11,C  10)    174.7550         0.028605   
    411. D(H  61,C  13,N  12,C  11)      5.6935         0.016837   
    412. D(H  61,C  13,N  12,H  60)   -171.2579         0.016837   
    413. D(C  45,C  13,N  12,H  60)    -51.9764         0.016837   
    414. D(C  45,C  13,N  12,C  11)    124.9750         0.016837   
    415. D(C  14,C  13,N  12,C  11)   -109.7844         0.016837   
    416. D(C  14,C  13,N  12,H  60)     73.2642         0.016837   
    417. D(O  44,C  14,C  13,C  45)    -62.1104         0.009959   
    418. D(O  44,C  14,C  13,N  12)    171.1203         0.009959   
    419. D(N  15,C  14,C  13,H  61)   -125.7898         0.009959   
    420. D(N  15,C  14,C  13,C  45)    116.0799         0.009959   
    421. D(O  44,C  14,C  13,H  61)     56.0198         0.009959   
    422. D(N  15,C  14,C  13,N  12)    -10.6893         0.009959   
    423. D(H  62,N  15,C  14,O  44)   -161.7574         0.032661   
    424. D(H  62,N  15,C  14,C  13)     20.0997         0.032661   
    425. D(C  16,N  15,C  14,O  44)     -3.2143         0.032661   
    426. D(C  16,N  15,C  14,C  13)    178.6428         0.032661   
    427. D(H  64,C  16,N  15,H  62)   -159.8350         0.016472   
    428. D(H  64,C  16,N  15,C  14)     41.9869         0.016472   
    429. D(H  63,C  16,N  15,H  62)    -43.3029         0.016472   
    430. D(H  63,C  16,N  15,C  14)    158.5189         0.016472   
    431. D(C  17,C  16,N  15,C  14)    -78.4385         0.016472   
    432. D(C  17,C  16,N  15,H  62)     79.7397         0.016472   
    433. D(H  65,C  17,C  16,H  64)     62.5266         0.011170   
    434. D(H  65,C  17,C  16,H  63)    -54.7914         0.011170   
    435. D(H  65,C  17,C  16,N  15)   -177.1224         0.011170   
    436. D(O  43,C  17,C  16,H  64)    -57.1524         0.011170   
    437. D(O  43,C  17,C  16,H  63)   -174.4704         0.011170   
    438. D(O  43,C  17,C  16,N  15)     63.1987         0.011170   
    439. D(C  18,C  17,C  16,H  64)    176.8826         0.011170   
    440. D(C  18,C  17,C  16,H  63)     59.5646         0.011170   
    441. D(C  18,C  17,C  16,N  15)    -62.7663         0.011170   
    442. D(H  66,C  18,C  17,H  65)    -53.4453         0.008150   
    443. D(H  66,C  18,C  17,O  43)     63.4669         0.008150   
    444. D(H  66,C  18,C  17,C  16)   -169.2909         0.008150   
    445. D(C  32,C  18,C  17,O  43)    -52.9689         0.008150   
    446. D(C  32,C  18,C  17,C  16)     74.2734         0.008150   
    447. D(C  32,C  18,C  17,H  65)   -169.8811         0.008150   
    448. D(C  19,C  18,C  17,H  65)     58.2519         0.008150   
    449. D(C  19,C  18,C  17,O  43)    175.1641         0.008150   
    450. D(C  19,C  18,C  17,C  16)    -57.5936         0.008150   
    451. D(O  31,C  19,C  18,H  66)     39.2960         0.009636   
    452. D(O  31,C  19,C  18,C  32)    158.6187         0.009636   
    453. D(O  31,C  19,C  18,C  17)    -71.4381         0.009636   
    454. D(N  20,C  19,C  18,H  66)   -141.8462         0.009636   
    455. D(N  20,C  19,C  18,C  17)    107.4198         0.009636   
    456. D(N  20,C  19,C  18,C  32)    -22.5234         0.009636   
    457. D(H  67,N  20,C  19,O  31)   -178.7610         0.031175   
    458. D(H  67,N  20,C  19,C  18)      2.4395         0.031175   
    459. D(C  21,N  20,C  19,O  31)     -5.7976         0.031175   
    460. D(C  21,N  20,C  19,C  18)    175.4028         0.031175   
    461. D(H  68,C  21,N  20,H  67)    176.4078         0.016631   
    462. D(H  68,C  21,N  20,C  19)      3.7374         0.016631   
    463. D(C  27,C  21,N  20,H  67)    -62.9787         0.016631   
    464. D(C  27,C  21,N  20,C  19)    124.3508         0.016631   
    465. D(C  22,C  21,N  20,H  67)     59.3509         0.016631   
    466. D(C  22,C  21,N  20,C  19)   -113.3196         0.016631   
    467. D(N  23,C  22,C  21,C  27)    150.9986         0.009030   
    468. D(N  23,C  22,C  21,N  20)     27.0903         0.009030   
    469. D(O  26,C  22,C  21,H  68)     91.4211         0.009030   
    470. D(O  26,C  22,C  21,C  27)    -28.8253         0.009030   
    471. D(O  26,C  22,C  21,N  20)   -152.7336         0.009030   
    472. D(N  23,C  22,C  21,H  68)    -88.7551         0.009030   
    473. D(H  69,N  23,C  22,O  26)    168.4731         0.030264   
    474. D(H  69,N  23,C  22,C  21)    -11.3470         0.030264   
    475. D(C  24,N  23,C  22,O  26)     20.9789         0.030264   
    476. D(C  24,N  23,C  22,C  21)   -158.8412         0.030264   
    477. D(H  70,C  24,N  23,H  69)   -155.2464         0.016531   
    478. D(H  70,C  24,N  23,C  22)     -6.6426         0.016531   
    479. D(C  25,C  24,N  23,H  69)     83.9374         0.016531   
    480. D(C  25,C  24,N  23,C  22)   -127.4588         0.016531   
    481. D(C   7,C  24,N  23,H  69)    -36.6918         0.016531   
    482. D(C   7,C  24,N  23,C  22)    111.9120         0.016531   
    483. D(H  70,C  24,C   7,O   8)    151.1216         0.009776   
    484. D(H  70,C  24,C   7,N   6)    -27.5485         0.009776   
    485. D(C  25,C  24,C   7,O   8)    -85.6233         0.009776   
    486. D(C  25,C  24,C   7,N   6)     95.7065         0.009776   
    487. D(N  23,C  24,C   7,O   8)     35.9810         0.009776   
    488. D(N  23,C  24,C   7,N   6)   -142.6891         0.009776   
    489. D(H  73,C  25,C  24,H  70)   -178.4525         0.010950   
    490. D(H  73,C  25,C  24,N  23)    -59.9261         0.010950   
    491. D(H  73,C  25,C  24,C   7)     57.6537         0.010950   
    492. D(H  72,C  25,C  24,H  70)     61.5130         0.010950   
    493. D(H  72,C  25,C  24,N  23)   -179.9606         0.010950   
    494. D(H  72,C  25,C  24,C   7)    -62.3808         0.010950   
    495. D(H  71,C  25,C  24,H  70)    -58.5904         0.010950   
    496. D(H  71,C  25,C  24,N  23)     59.9360         0.010950   
    497. D(H  71,C  25,C  24,C   7)    177.5159         0.010950   
    498. D(H  75,C  27,C  21,H  68)   -170.6185         0.010672   
    499. D(H  75,C  27,C  21,C  22)    -51.9276         0.010672   
    500. D(H  75,C  27,C  21,N  20)     71.4088         0.010672   
    501. D(H  74,C  27,C  21,H  68)    -56.7192         0.010672   
    502. D(H  74,C  27,C  21,C  22)     61.9717         0.010672   
    503. D(H  74,C  27,C  21,N  20)   -174.6919         0.010672   
    504. D(C  28,C  27,C  21,H  68)     66.8388         0.010672   
    505. D(C  28,C  27,C  21,C  22)   -174.4704         0.010672   
    506. D(C  28,C  27,C  21,N  20)    -51.1339         0.010672   
    507. D(H  76,C  28,C  27,H  75)    -61.1321         0.010934   
    508. D(H  76,C  28,C  27,H  74)   -176.7841         0.010934   
    509. D(H  76,C  28,C  27,C  21)     61.1018         0.010934   
    510. D(C  30,C  28,C  27,H  75)     55.3164         0.010934   
    511. D(C  30,C  28,C  27,H  74)    -60.3355         0.010934   
    512. D(C  30,C  28,C  27,C  21)    177.5504         0.010934   
    513. D(C  29,C  28,C  27,H  75)    179.9990         0.010934   
    514. D(C  29,C  28,C  27,H  74)     64.3470         0.010934   
    515. D(C  29,C  28,C  27,C  21)    -57.7671         0.010934   
    516. D(H  79,C  29,C  28,C  30)     64.3740         0.010981   
    517. D(H  79,C  29,C  28,C  27)    -59.4549         0.010981   
    518. D(H  78,C  29,C  28,H  76)     62.9758         0.010981   
    519. D(H  78,C  29,C  28,C  30)    -54.6771         0.010981   
    520. D(H  78,C  29,C  28,C  27)   -178.5060         0.010981   
    521. D(H  77,C  29,C  28,H  76)    -57.6352         0.010981   
    522. D(H  77,C  29,C  28,C  30)   -175.2880         0.010981   
    523. D(H  79,C  29,C  28,H  76)   -177.9732         0.010981   
    524. D(H  77,C  29,C  28,C  27)     60.8831         0.010981   
    525. D(H  82,C  30,C  28,H  76)    -59.7970         0.010960   
    526. D(H  82,C  30,C  28,C  29)     58.2870         0.010960   
    527. D(H  82,C  30,C  28,C  27)   -176.3180         0.010960   
    528. D(H  81,C  30,C  28,H  76)   -179.5985         0.010960   
    529. D(H  81,C  30,C  28,C  29)    -61.5145         0.010960   
    530. D(H  81,C  30,C  28,C  27)     63.8805         0.010960   
    531. D(H  80,C  30,C  28,H  76)     60.6888         0.010960   
    532. D(H  80,C  30,C  28,C  29)    178.7729         0.010960   
    533. D(H  80,C  30,C  28,C  27)    -55.8321         0.010960   
    534. D(O  42,C  32,C  18,H  66)    157.2391         0.010875   
    535. D(O  42,C  32,C  18,C  19)     39.0947         0.010875   
    536. D(O  42,C  32,C  18,C  17)    -88.4767         0.010875   
    537. D(C  33,C  32,C  18,H  66)    -23.4145         0.010875   
    538. D(C  33,C  32,C  18,C  19)   -141.5589         0.010875   
    539. D(C  33,C  32,C  18,C  17)     90.8697         0.010875   
    540. D(H  84,C  33,C  32,O  42)    119.7582         0.013133   
    541. D(H  84,C  33,C  32,C  18)    -59.5915         0.013133   
    542. D(H  83,C  33,C  32,O  42)   -129.8350         0.013133   
    543. D(H  83,C  33,C  32,C  18)     50.8153         0.013133   
    544. D(C  34,C  33,C  32,O  42)     -4.7068         0.013133   
    545. D(C  34,C  33,C  32,C  18)    175.9435         0.013133   
    546. D(H  86,C  34,C  33,H  84)    176.7019         0.011743   
    547. D(H  86,C  34,C  33,H  83)     59.8269         0.011743   
    548. D(H  86,C  34,C  33,C  32)    -63.0644         0.011743   
    549. D(H  85,C  34,C  33,H  84)    -67.8313         0.011743   
    550. D(H  85,C  34,C  33,H  83)    175.2937         0.011743   
    551. D(H  85,C  34,C  33,C  32)     52.4024         0.011743   
    552. D(C  35,C  34,C  33,H  84)     55.1011         0.011743   
    553. D(C  35,C  34,C  33,H  83)    -61.7740         0.011743   
    554. D(C  35,C  34,C  33,C  32)    175.3347         0.011743   
    555. D(H  88,C  35,C  34,H  86)    178.3613         0.011245   
    556. D(H  88,C  35,C  34,H  85)     62.1045         0.011245   
    557. D(H  88,C  35,C  34,C  33)    -60.8058         0.011245   
    558. D(H  87,C  35,C  34,H  86)    -65.4250         0.011245   
    559. D(H  87,C  35,C  34,H  85)    178.3183         0.011245   
    560. D(H  87,C  35,C  34,C  33)     55.4079         0.011245   
    561. D(C  36,C  35,C  34,H  86)     56.6217         0.011245   
    562. D(C  36,C  35,C  34,H  85)    -59.6350         0.011245   
    563. D(C  36,C  35,C  34,C  33)    177.4546         0.011245   
    564. D(H  90,C  36,C  35,H  87)     62.9045         0.011123   
    565. D(H  90,C  36,C  35,C  34)    -59.5193         0.011123   
    566. D(H  89,C  36,C  35,H  88)    -66.2504         0.011123   
    567. D(H  89,C  36,C  35,H  87)    178.0422         0.011123   
    568. D(H  89,C  36,C  35,C  34)     55.6184         0.011123   
    569. D(C  37,C  36,C  35,H  88)     56.4307         0.011123   
    570. D(C  37,C  36,C  35,H  87)    -59.2768         0.011123   
    571. D(H  90,C  36,C  35,H  88)    178.6120         0.011123   
    572. D(C  37,C  36,C  35,C  34)    178.2994         0.011123   
    573. D(H  92,C  37,C  36,H  90)    179.3649         0.011173   
    574. D(H  92,C  37,C  36,H  89)     63.8023         0.011173   
    575. D(H  92,C  37,C  36,C  35)    -58.5894         0.011173   
    576. D(H  91,C  37,C  36,H  90)    -65.1105         0.011173   
    577. D(H  91,C  37,C  36,H  89)    179.3269         0.011173   
    578. D(H  91,C  37,C  36,C  35)     56.9351         0.011173   
    579. D(C  38,C  37,C  36,H  90)     57.2108         0.011173   
    580. D(C  38,C  37,C  36,H  89)    -58.3518         0.011173   
    581. D(C  38,C  37,C  36,C  35)    179.2564         0.011173   
    582. D(H  94,C  38,C  37,H  92)    179.7259         0.011118   
    583. D(H  94,C  38,C  37,H  91)     64.2675         0.011118   
    584. D(H  94,C  38,C  37,C  36)    -58.1296         0.011118   
    585. D(H  93,C  38,C  37,H  92)    -64.8946         0.011118   
    586. D(H  93,C  38,C  37,H  91)    179.6470         0.011118   
    587. D(H  93,C  38,C  37,C  36)     57.2499         0.011118   
    588. D(C  39,C  38,C  37,H  92)     57.4420         0.011118   
    589. D(C  39,C  38,C  37,H  91)    -58.0164         0.011118   
    590. D(C  39,C  38,C  37,C  36)    179.5865         0.011118   
    591. D(H  95,C  39,C  38,H  94)    -64.7146         0.011135   
    592. D(H  95,C  39,C  38,H  93)    179.8427         0.011135   
    593. D(H  95,C  39,C  38,C  37)     57.5593         0.011135   
    594. D(C  40,C  39,C  38,H  94)     57.5898         0.011135   
    595. D(C  40,C  39,C  38,H  93)    -57.8529         0.011135   
    596. D(C  40,C  39,C  38,C  37)    179.8637         0.011135   
    597. D(H  96,C  39,C  38,H  94)    179.8452         0.011135   
    598. D(H  96,C  39,C  38,H  93)     64.4025         0.011135   
    599. D(H  96,C  39,C  38,C  37)    -57.8809         0.011135   
    600. D(H  98,C  40,C  39,H  95)     64.6189         0.011068   
    601. D(H  98,C  40,C  39,C  38)    -57.7445         0.011068   
    602. D(H  97,C  40,C  39,H  96)    -64.7206         0.011068   
    603. D(H  97,C  40,C  39,H  95)    179.9317         0.011068   
    604. D(H  97,C  40,C  39,C  38)     57.5682         0.011068   
    605. D(C  41,C  40,C  39,H  96)     57.6240         0.011068   
    606. D(C  41,C  40,C  39,H  95)    -57.7237         0.011068   
    607. D(H  98,C  40,C  39,H  96)    179.9666         0.011068   
    608. D(C  41,C  40,C  39,C  38)    179.9128         0.011068   
    609. D(H 101,C  41,C  40,H  98)    -62.3118         0.011151   
    610. D(H 101,C  41,C  40,H  97)   -178.2019         0.011151   
    611. D(H 101,C  41,C  40,C  39)     59.7470         0.011151   
    612. D(H 100,C  41,C  40,H  98)    178.1720         0.011151   
    613. D(H 100,C  41,C  40,H  97)     62.2819         0.011151   
    614. D(H 100,C  41,C  40,C  39)    -59.7691         0.011151   
    615. D(H  99,C  41,C  40,H  98)     57.9404         0.011151   
    616. D(H  99,C  41,C  40,H  97)    -57.9496         0.011151   
    617. D(H  99,C  41,C  40,C  39)    179.9993         0.011151   
    618. D(H 102,O  43,C  17,H  65)   -118.8943         0.020032   
    619. D(H 102,O  43,C  17,C  18)    127.6854         0.020032   
    620. D(H 102,O  43,C  17,C  16)     -0.9298         0.020032   
    621. D(H 104,C  45,C  13,H  61)    -60.2609         0.010408   
    622. D(H 104,C  45,C  13,C  14)     55.9502         0.010408   
    623. D(H 104,C  45,C  13,N  12)   -177.3725         0.010408   
    624. D(H 103,C  45,C  13,H  61)     55.0185         0.010408   
    625. D(H 103,C  45,C  13,C  14)    171.2296         0.010408   
    626. D(H 103,C  45,C  13,N  12)    -62.0931         0.010408   
    627. D(C  46,C  45,C  13,H  61)    177.9283         0.010408   
    628. D(C  46,C  45,C  13,C  14)    -65.8606         0.010408   
    629. D(C  46,C  45,C  13,N  12)     60.8167         0.010408   
    630. D(H 107,C  46,C  45,H 104)    -61.3661         0.011170   
    631. D(H 107,C  46,C  45,H 103)   -179.7738         0.011170   
    632. D(H 107,C  46,C  45,C  13)     58.8712         0.011170   
    633. D(H 106,C  46,C  45,H 104)    177.4915         0.011170   
    634. D(H 106,C  46,C  45,H 103)     59.0838         0.011170   
    635. D(H 106,C  46,C  45,C  13)    -62.2712         0.011170   
    636. D(H 105,C  46,C  45,H 104)     58.3659         0.011170   
    637. D(H 105,C  46,C  45,H 103)    -60.0418         0.011170   
    638. D(H 105,C  46,C  45,C  13)    178.6032         0.011170   
    639. D(H 108,C  48,C  10,H  59)   -157.7469         0.009137   
    640. D(H 108,C  48,C  10,C  11)    -38.6871         0.009137   
    641. D(H 108,C  48,C  10,N   9)     87.1126         0.009137   
    642. D(C  50,C  48,C  10,H  59)    -37.9332         0.009137   
    643. D(C  50,C  48,C  10,C  11)     81.1265         0.009137   
    644. D(C  50,C  48,C  10,N   9)   -153.0738         0.009137   
    645. D(C  49,C  48,C  10,H  59)     84.2761         0.009137   
    646. D(C  49,C  48,C  10,C  11)   -156.6642         0.009137   
    647. D(C  49,C  48,C  10,N   9)    -30.8645         0.009137   
    648. D(H 111,C  49,C  48,C  50)     67.5582         0.010940   
    649. D(H 111,C  49,C  48,C  10)    -55.4222         0.010940   
    650. D(H 110,C  49,C  48,H 108)     66.2283         0.010940   
    651. D(H 110,C  49,C  48,C  50)    -52.0873         0.010940   
    652. D(H 110,C  49,C  48,C  10)   -175.0677         0.010940   
    653. D(H 109,C  49,C  48,H 108)    -53.5769         0.010940   
    654. D(H 109,C  49,C  48,C  50)   -171.8926         0.010940   
    655. D(H 111,C  49,C  48,H 108)   -174.1262         0.010940   
    656. D(H 109,C  49,C  48,C  10)     65.1270         0.010940   
    657. D(H 114,C  50,C  48,H 108)    -52.8752         0.010618   
    658. D(H 114,C  50,C  48,C  49)     64.0910         0.010618   
    659. D(H 114,C  50,C  48,C  10)   -172.1335         0.010618   
    660. D(H 113,C  50,C  48,H 108)   -171.8223         0.010618   
    661. D(H 113,C  50,C  48,C  49)    -54.8561         0.010618   
    662. D(H 113,C  50,C  48,C  10)     68.9194         0.010618   
    663. D(H 112,C  50,C  48,H 108)     68.9675         0.010618   
    664. D(H 112,C  50,C  48,C  49)   -174.0663         0.010618   
    665. D(H 112,C  50,C  48,C  10)    -50.2908         0.010618   
    -----------------------------------------------------------------

Number of atoms                         .... 115
Number of degrees of freedom            .... 665

         *************************************************************
         *                GEOMETRY OPTIMIZATION CYCLE   1            *
         *************************************************************
---------------------------------
CARTESIAN COORDINATES (ANGSTROEM)
---------------------------------
  O      3.790472   -2.636800   -0.697974
  C      3.127092   -1.621407   -0.922810
  C      3.476579   -0.663317   -2.092903
  C      4.619838   -1.204778   -2.948372
  C      5.875455   -0.795612   -2.159415
  C      5.521950    0.574685   -1.555394
  N      4.045160    0.587790   -1.544879
  C      3.254773    1.616687   -1.178477
  O      2.014927    1.574774   -1.285116
  N      2.090658   -1.210431   -0.151922
  C      1.766384   -1.892714    1.087481
  C      0.241042   -2.140928    1.106485
  N     -0.397915   -1.954973    2.307209
  C     -1.841922   -2.045265    2.438687
  C     -2.498498   -0.681102    2.703192
  N     -1.658404    0.341959    2.997175
  C     -2.137665    1.694612    3.241787
  C     -2.490702    2.488719    1.982965
  C     -1.278420    2.750997    1.009552
  C     -0.177425    3.497459    1.789045
  N      0.929394    2.768043    2.101591
  C      2.115808    3.308746    2.746184
  C      3.333901    3.275802    1.785873
  N      3.009161    3.331282    0.460556
  C      3.917018    2.870883   -0.579461
  C      4.144405    3.932463   -1.661141
  O      4.487891    3.202174    2.203623
  C      2.466689    2.548523    4.034230
  C      1.310048    2.383331    5.026308
  C      0.713107    3.725066    5.463123
  C      1.774175    1.559968    6.232512
  O     -0.344821    4.675236    2.106272
  C     -0.853689    1.516785    0.222803
  C     -1.510973    1.318835   -1.107710
  C     -0.995981    0.131984   -1.910266
  C     -1.773131   -0.095767   -3.206826
  C     -1.202132   -1.253080   -4.029214
  C     -1.980745   -1.536600   -5.314957
  C     -1.393878   -2.683119   -6.141399
  C     -2.175720   -2.976588   -7.423529
  C     -1.586830   -4.121392   -8.252107
  C     -2.377497   -4.407398   -9.530251
  O     -0.022047    0.713840    0.660213
  O     -3.563603    1.902196    1.263181
  O     -3.731832   -0.557306    2.677597
  C     -2.281463   -3.057684    3.512548
  C     -1.782787   -2.722520    4.919264
  O     -0.358487   -2.479361    0.091439
  C      2.374990   -1.198597    2.344090
  C      3.699294   -0.495446    2.026483
  C      2.599344   -2.218821    3.471566
  H      2.565922   -0.419280   -2.656688
  H      4.595848   -0.721406   -3.935968
  H      4.545613   -2.289935   -3.076702
  H      6.048412   -1.527153   -1.360586
  H      6.776689   -0.743068   -2.782578
  H      5.923050    0.699626   -0.539670
  H      5.895188    1.402846   -2.177007
  H      1.567969   -0.366694   -0.402394
  H      2.240715   -2.885408    0.995484
  H      0.156067   -1.793947    3.140774
  H     -2.207724   -2.376457    1.456069
  H     -0.687258    0.221751    2.716781
  H     -1.373961    2.233618    3.817331
  H     -3.041827    1.624484    3.863610
  H     -2.783960    3.498676    2.320962
  H     -1.671670    3.482854    0.289816
  H      0.933869    1.802795    1.750745
  H      1.887065    4.362421    2.969923
  H      2.025981    3.208834    0.219074
  H      4.863890    2.625715   -0.079469
  H      4.575611    4.835094   -1.210101
  H      4.831689    3.565432   -2.436936
  H      3.191860    4.196064   -2.140908
  H      3.309076    3.070451    4.511328
  H      2.851281    1.553287    3.759718
  H      0.517358    1.804989    4.518042
  H      0.300241    4.291525    4.616250
  H     -0.095372    3.574642    6.193621
  H      1.482296    4.350117    5.944052
  H      2.183071    0.586996    5.920102
  H      2.563724    2.090448    6.787057
  H      0.944102    1.371780    6.928677
  H     -1.414708    2.265458   -1.669823
  H     -2.594231    1.246670   -0.882647
  H     -1.028488   -0.777010   -1.292010
  H      0.066140    0.307396   -2.142131
  H     -1.768505    0.825022   -3.817582
  H     -2.832592   -0.300823   -2.972411
  H     -1.176078   -2.161707   -3.403950
  H     -0.149810   -1.030617   -4.281764
  H     -2.015270   -0.621677   -5.932943
  H     -3.029824   -1.770118   -5.061266
  H     -1.353928   -3.595520   -5.520766
  H     -0.346032   -2.447124   -6.399255
  H     -2.218265   -2.063159   -8.043326
  H     -3.222881   -3.215332   -7.165765
  H     -1.544129   -5.032229   -7.630838
  H     -0.540980   -3.880828   -8.509139
  H     -1.934128   -5.232584  -10.105944
  H     -3.417948   -4.682271   -9.298855
  H     -2.407894   -3.522063  -10.183729
  H     -3.843857    1.081701    1.737141
  H     -1.923122   -4.050674    3.202756
  H     -3.380079   -3.086273    3.500675
  H     -2.145834   -3.462134    5.645429
  H     -0.683284   -2.727797    4.983001
  H     -2.135597   -1.733669    5.246602
  H      1.667894   -0.421460    2.689823
  H      3.561870    0.339574    1.329451
  H      4.148963   -0.091177    2.943528
  H      4.413527   -1.200463    1.577708
  H      1.717884   -2.840618    3.688993
  H      3.408694   -2.908519    3.188853
  H      2.895502   -1.716003    4.402803

----------------------------
CARTESIAN COORDINATES (A.U.)
----------------------------
  NO LB      ZA    FRAG     MASS         X           Y           Z
   0 O     8.0000    0    15.999    7.162953   -4.982830   -1.318979
   1 C     6.0000    0    12.011    5.909347   -3.064014   -1.743859
   2 C     6.0000    0    12.011    6.569783   -1.253487   -3.955013
   3 C     6.0000    0    12.011    8.730229   -2.276701   -5.571615
   4 C     6.0000    0    12.011   11.103000   -1.503489   -4.080703
   5 C     6.0000    0    12.011   10.434974    1.085998   -2.939268
   6 N     7.0000    0    14.007    7.644244    1.110762   -2.919397
   7 C     6.0000    0    12.011    6.150631    3.055095   -2.226999
   8 O     8.0000    0    15.999    3.807660    2.975891   -2.428517
   9 N     7.0000    0    14.007    3.950771   -2.287384   -0.287090
  10 C     6.0000    0    12.011    3.337981   -3.576711    2.055042
  11 C     6.0000    0    12.011    0.455504   -4.045767    2.090953
  12 N     7.0000    0    14.007   -0.751950   -3.694363    4.359992
  13 C     6.0000    0    12.011   -3.480728   -3.864991    4.608450
  14 C     6.0000    0    12.011   -4.721476   -1.287095    5.108292
  15 N     7.0000    0    14.007   -3.133929    0.646209    5.663839
  16 C     6.0000    0    12.011   -4.039601    3.202353    6.126089
  17 C     6.0000    0    12.011   -4.706746    4.702998    3.747261
  18 C     6.0000    0    12.011   -2.415864    5.198630    1.907777
  19 C     6.0000    0    12.011   -0.335284    6.609239    3.380804
  20 N     7.0000    0    14.007    1.756301    5.230843    3.971431
  21 C     6.0000    0    12.011    3.998297    6.252624    5.189535
  22 C     6.0000    0    12.011    6.300159    6.190369    3.374810
  23 N     7.0000    0    14.007    5.686490    6.295210    0.870325
  24 C     6.0000    0    12.011    7.402092    5.425183   -1.095023
  25 C     6.0000    0    12.011    7.831790    7.431277   -3.139101
  26 O     8.0000    0    15.999    8.480885    6.051233    4.164244
  27 C     6.0000    0    12.011    4.661367    4.816011    7.623589
  28 C     6.0000    0    12.011    2.475631    4.503843    9.498345
  29 C     6.0000    0    12.011    1.347577    7.039354   10.323806
  30 C     6.0000    0    12.011    3.352704    2.947913   11.777740
  31 O     8.0000    0    15.999   -0.651618    8.834917    3.980277
  32 C     6.0000    0    12.011   -1.613238    2.866309    0.421036
  33 C     6.0000    0    12.011   -2.855326    2.492237   -2.093269
  34 C     6.0000    0    12.011   -1.882131    0.249413   -3.609880
  35 C     6.0000    0    12.011   -3.350732   -0.180974   -6.060023
  36 C     6.0000    0    12.011   -2.271700   -2.367977   -7.614112
  37 C     6.0000    0    12.011   -3.743066   -2.903754  -10.043812
  38 C     6.0000    0    12.011   -2.634047   -5.070361  -11.605562
  39 C     6.0000    0    12.011   -4.111515   -5.624936  -14.028437
  40 C     6.0000    0    12.011   -2.998674   -7.788301  -15.594221
  41 C     6.0000    0    12.011   -4.492819   -8.328776  -18.009565
  42 O     8.0000    0    15.999   -0.041662    1.348963    1.247621
  43 O     8.0000    0    15.999   -6.734234    3.594629    2.387066
  44 O     8.0000    0    15.999   -7.052141   -1.053156    5.059926
  45 C     6.0000    0    12.011   -4.311341   -5.778186    6.637754
  46 C     6.0000    0    12.011   -3.368980   -5.144816    9.296062
  47 O     8.0000    0    15.999   -0.677442   -4.685313    0.172795
  48 C     6.0000    0    12.011    4.488080   -2.265021    4.429688
  49 C     6.0000    0    12.011    6.990652   -0.936257    3.829498
  50 C     6.0000    0    12.011    4.912048   -4.192964    6.560308
  51 H     1.0000    0     1.008    4.848889   -0.792325   -5.020414
  52 H     1.0000    0     1.008    8.684893   -1.363261   -7.437901
  53 H     1.0000    0     1.008    8.589965   -4.327351   -5.814123
  54 H     1.0000    0     1.008   11.429841   -2.885902   -2.571135
  55 H     1.0000    0     1.008   12.806086   -1.404195   -5.258310
  56 H     1.0000    0     1.008   11.192942    1.322102   -1.019829
  57 H     1.0000    0     1.008   11.140291    2.650994   -4.113947
  58 H     1.0000    0     1.008    2.963031   -0.692951   -0.760414
  59 H     1.0000    0     1.008    4.234338   -5.452630    1.881192
  60 H     1.0000    0     1.008    0.294924   -3.390069    5.935202
  61 H     1.0000    0     1.008   -4.171993   -4.490852    2.751571
  62 H     1.0000    0     1.008   -1.298730    0.419048    5.133972
  63 H     1.0000    0     1.008   -2.596410    4.220926    7.213711
  64 H     1.0000    0     1.008   -5.748220    3.069829    7.301164
  65 H     1.0000    0     1.008   -5.260923    6.611539    4.385982
  66 H     1.0000    0     1.008   -3.158998    6.581639    0.547673
  67 H     1.0000    0     1.008    1.764757    3.406789    3.308429
  68 H     1.0000    0     1.008    3.566036    8.243782    5.612341
  69 H     1.0000    0     1.008    3.828548    6.063817    0.413991
  70 H     1.0000    0     1.008    9.191420    4.961882   -0.150175
  71 H     1.0000    0     1.008    8.646651    9.137003   -2.286759
  72 H     1.0000    0     1.008    9.130569    6.737691   -4.605142
  73 H     1.0000    0     1.008    6.031741    7.929411   -4.045730
  74 H     1.0000    0     1.008    6.253247    5.802312    8.525174
  75 H     1.0000    0     1.008    5.388140    2.935287    7.104837
  76 H     1.0000    0     1.008    0.977666    3.410936    8.537863
  77 H     1.0000    0     1.008    0.567374    8.109807    8.723449
  78 H     1.0000    0     1.008   -0.180226    6.755095   11.704248
  79 H     1.0000    0     1.008    2.801134    8.220530   11.232631
  80 H     1.0000    0     1.008    4.125407    1.109261   11.187372
  81 H     1.0000    0     1.008    4.844737    3.950374   12.825678
  82 H     1.0000    0     1.008    1.784093    2.592289   13.093303
  83 H     1.0000    0     1.008   -2.673410    4.281095   -3.155507
  84 H     1.0000    0     1.008   -4.902386    2.355865   -1.667961
  85 H     1.0000    0     1.008   -1.943561   -1.468336   -2.441544
  86 H     1.0000    0     1.008    0.124987    0.580893   -4.048040
  87 H     1.0000    0     1.008   -3.341991    1.559066   -7.214184
  88 H     1.0000    0     1.008   -5.352823   -0.568474   -5.617043
  89 H     1.0000    0     1.008   -2.222465   -4.085034   -6.432534
  90 H     1.0000    0     1.008   -0.283101   -1.947584   -8.091361
  91 H     1.0000    0     1.008   -3.808309   -1.174799  -11.211638
  92 H     1.0000    0     1.008   -5.725538   -3.345039   -9.564407
  93 H     1.0000    0     1.008   -2.558553   -6.794548  -10.432735
  94 H     1.0000    0     1.008   -0.653905   -4.624393  -12.092840
  95 H     1.0000    0     1.008   -4.191914   -3.898806  -15.199684
  96 H     1.0000    0     1.008   -6.090363   -6.076096  -13.541334
  97 H     1.0000    0     1.008   -2.917981   -9.509534  -14.420195
  98 H     1.0000    0     1.008   -1.022303   -7.333702  -16.079942
  99 H     1.0000    0     1.008   -3.654972   -9.888150  -19.097467
 100 H     1.0000    0     1.008   -6.458986   -8.848211  -17.572289
 101 H     1.0000    0     1.008   -4.550260   -6.655734  -19.244460
 102 H     1.0000    0     1.008   -7.263837    2.044118    3.282721
 103 H     1.0000    0     1.008   -3.634174   -7.654665    6.052332
 104 H     1.0000    0     1.008   -6.387424   -5.832211    6.615318
 105 H     1.0000    0     1.008   -4.055038   -6.542484   10.668315
 106 H     1.0000    0     1.008   -1.291220   -5.154790    9.416508
 107 H     1.0000    0     1.008   -4.035693   -3.276160    9.914641
 108 H     1.0000    0     1.008    3.151863   -0.796443    5.083029
 109 H     1.0000    0     1.008    6.730960    0.641701    2.512298
 110 H     1.0000    0     1.008    7.840403   -0.172299    5.562462
 111 H     1.0000    0     1.008    8.340358   -2.268546    2.981435
 112 H     1.0000    0     1.008    3.246331   -5.367990    6.971186
 113 H     1.0000    0     1.008    6.441499   -5.496304    6.026060
 114 H     1.0000    0     1.008    5.471707   -3.242776    8.320092

--------------------------------
INTERNAL COORDINATES (ANGSTROEM)
--------------------------------
 O      0   0   0     0.000000000000     0.00000000     0.00000000
 C      1   0   0     1.233550824200     0.00000000     0.00000000
 C      2   1   0     1.552157778420   121.62868184     0.00000000
 C      3   2   1     1.527104535661   111.83927686     4.91753227
 C      4   3   2     1.538324545209   103.26467068   277.88980152
 C      5   4   3     1.538675566959   104.51787460   324.30130181
 N      6   5   4     1.476886263272   103.91180445    22.13303234
 C      7   6   5     1.348179767568   126.50767735   184.30263640
 O      8   7   6     1.245129948511   122.33092361   175.02366865
 N      2   1   3     1.355494218239   123.85615028   183.33301479
 C     10   2   1     1.451476204078   120.92556888     5.80052064
 C     11  10   2     1.545521736099   107.84752900   227.14041155
 N     12  11  10     1.372801287827   116.63870219   220.21169372
 C     13  12  11     1.452788598863   122.23306955   174.75499008
 C     14  13  12     1.536878800794   112.64626478   250.21558445
 N     15  14  13     1.356037013341   116.25116883   349.31067132
 C     16  15  14     1.455746300974   122.24157146   178.64282217
 C     17  16  15     1.529664510306   114.83935804   281.56153969
 C     18  17  16     1.576689991520   114.64338321   297.23366395
 C     19  18  17     1.541754219568   108.51001421   302.40636802
 N     20  19  18     1.361903247398   115.91781892   107.41976163
 C     21  20  19     1.454453918324   124.43896394   175.40281231
 C     22  21  20     1.551461663607   110.99105855   246.68039763
 N     23  22  21     1.365648934357   114.40176841    27.09027180
 C     24  23  22     1.455268907498   122.16462685   201.15876360
 C     25  24  23     1.532542302281   112.19909428   232.54124679
 O     23  22  21     1.229483858511   121.86210391   207.26642847
 C     22  21  20     1.536267759983   111.95765748   124.35082168
 C     28  22  21     1.532751343865   115.06539061   308.86605878
 C     29  28  22     1.532121818166   112.59187270   302.23291804
 C     29  28  22     1.532405704332   109.80536377   177.55035537
 O     20  19  18     1.231184311940   119.75798149   288.56190477
 C     19  18  17     1.524023712181   113.47040904    74.27335178
 C     33  19  18     1.497154727757   116.32711514    90.86965747
 C     34  33  19     1.522474769258   115.02619905   175.94353665
 C     35  34  33     1.528692690842   113.03358107   175.33472514
 C     36  35  34     1.530272534004   112.25856348   177.45464285
 C     37  36  35     1.529625900257   113.70152673   178.29939420
 C     38  37  36     1.530335401347   113.42804307   179.25641896
 C     39  38  37     1.530117222427   113.59415981   179.58646851
 C     40  39  38     1.530982732425   113.60099530   179.86366205
 C     41  40  39     1.529904724592   113.15035005   179.91281048
 O     33  19  18     1.235992132233   122.06809411   271.52330117
 O     18  17  16     1.418878288719   112.17213281    63.19868115
 O     15  14  13     1.239796138121   120.66813249   171.12032582
 C     14  13  12     1.539924653536   112.81000296   124.97503171
 C     46  14  13     1.529661325730   113.84057014    60.81665200
 O     12  11  10     1.226494887338   121.10258391    39.81003495
 C     11  10   2     1.559251472061   113.06042164    96.80688149
 C     49  11  10     1.532670253470   111.99222356   329.13552307
 C     49  11  10     1.537007537032   110.65027323   206.92624651
 H      3   2   1     1.098501557559   109.71653762   132.86904546
 H      4   3   2     1.099804533218   109.32166941   159.45409399
 H      4   3   2     1.095236945597   111.48183422    38.63143724
 H      5   4   3     1.096902087936   108.95426190    82.00843397
 H      5   4   3     1.096957369670   113.07770326   202.64821376
 H      6   5   4     1.099174549893   112.34286030   142.11822713
 H      6   5   4     1.100708414368   111.74377083   263.97441203
 H     10   2   1     1.023637170273   120.07796906   181.14822267
 H     11  10   2     1.104035609762   104.80427184   340.09815510
 H     13  12  11     1.013733628515   119.10203547   351.69151129
 H     14  13  12     1.099562175890   105.57583438     5.69350357
 H     16  15  14     1.017936302873   116.24652317    20.09971460
 H     17  16  15     1.097734878536   108.37901338   158.51894512
 H     17  16  15     1.099586308252   107.84674016    41.98688407
 H     18  17  16     1.104650941709   106.50543101   182.87762529
 H     19  18  17     1.099217782468   103.88212333   190.70910727
 H     21  20  19     1.027042356289   115.37274765     2.43946297
 H     22  21  20     1.101187685771   106.04074131     3.73736204
 H     24  23  22     1.019779962335   117.01242868   348.65296557
 H     25  24  23     1.098483295926   106.44301507   353.35740675
 H     26  25  24     1.097323343550   109.75402611    59.93600658
 H     26  25  24     1.099513067599   111.07072764   180.03935501
 H     26  25  24     1.098637257619   110.22940243   300.07387688
 H     28  22  21     1.099839297231   107.68617403   185.30809244
 H     28  22  21     1.101709218346   108.53280464    71.40880423
 H     29  28  22     1.105065320932   107.45825721    61.10177521
 H     30  29  28     1.099330591718   112.20615049    60.88305720
 H     30  29  28     1.099951314118   110.85204536   181.49401468
 H     30  29  28     1.101651008465   110.44449448   300.54508195
 H     31  29  28     1.100668930143   111.35011721   304.16787750
 H     31  29  28     1.101052781960   110.77859859    63.88049851
 H     31  29  28     1.099582826977   111.20239476   183.68198859
 H     34  33  19     1.105139330589   107.48918496    50.81529822
 H     34  33  19     1.108741557241   104.90052525   300.40851013
 H     35  34  33     1.099803305138   109.75357178    52.40236194
 H     35  34  33     1.101195633146   108.24454672   296.93557526
 H     36  35  34     1.104942084969   110.03117737    55.40789819
 H     36  35  34     1.104289746513   109.59446729   299.19417925
 H     37  36  35     1.103285172330   109.09217180    55.61835102
 H     37  36  35     1.104831077541   109.02416945   300.48070406
 H     38  37  36     1.104619557933   109.42933244    56.93509873
 H     38  37  36     1.104290189979   109.24841920   301.41057548
 H     39  38  37     1.104199488314   109.23211407    57.24987681
 H     39  38  37     1.104610785152   109.25570476   301.87037406
 H     40  39  38     1.104676625254   109.34305679    57.55928078
 H     40  39  38     1.104530348641   109.28932854   302.11905593
 H     41  40  39     1.103368466623   109.11287225    57.56817570
 H     41  40  39     1.103512313146   109.12307565   302.25545770
 H     42  41  40     1.099513231468   111.67434262   179.99930419
 H     42  41  40     1.100744155855   111.07307108   300.23087621
 H     42  41  40     1.100807239052   111.09197111    59.74704787
 H     44  18  17     0.988125687626   108.32360846   359.07020280
 H     46  14  13     1.100185991275   107.70172953   297.90692147
 H     46  14  13     1.099052017230   107.15070823   182.62746911
 H     47  46  14     1.098247241768   110.65459610   178.60321594
 H     47  46  14     1.101361752242   112.18657716   297.72881348
 H     47  46  14     1.099749922183   111.47864633    58.87124229
 H     49  11  10     1.106100575024   108.36976148    87.11259564
 H     50  49  11     1.096356130030   111.89215163    65.12704845
 H     50  49  11     1.098456562091   110.46008708   184.93228555
 H     50  49  11     1.099353231618   110.59377508   304.57781592
 H     51  49  11     1.100398454024   113.77155910   309.70916708
 H     51  49  11     1.100298904142   109.57019955    68.91936224
 H     51  49  11     1.098971813265   110.93010953   187.86646300

---------------------------
INTERNAL COORDINATES (A.U.)
---------------------------
 O      0   0   0     0.000000000000     0.00000000     0.00000000
 C      1   0   0     2.331073230011     0.00000000     0.00000000
 C      2   1   0     2.933153117850   121.62868184     0.00000000
 C      3   2   1     2.885809350268   111.83927686     4.91753227
 C      4   3   2     2.907012095535   103.26467068   277.88980152
 C      5   4   3     2.907675430509   104.51787460   324.30130181
 N      6   5   4     2.790910568534   103.91180445    22.13303234
 C      7   6   5     2.547690539997   126.50767735   184.30263640
 O      8   7   6     2.352954603830   122.33092361   175.02366865
 N      2   1   3     2.561512848586   123.85615028   183.33301479
 C     10   2   1     2.742892515611   120.92556888     5.80052064
 C     11  10   2     2.920612815250   107.84752900   227.14041155
 N     12  11  10     2.594218470287   116.63870219   220.21169372
 C     13  12  11     2.745372582333   122.23306955   174.75499008
 C     14  13  12     2.904280034530   112.64626478   250.21558445
 N     15  14  13     2.562538582674   116.25116883   349.31067132
 C     16  15  14     2.750961829311   122.24157146   178.64282217
 C     17  16  15     2.890647001258   114.83935804   281.56153969
 C     18  17  16     2.979512282068   114.64338321   297.23366395
 C     19  18  17     2.913493240801   108.51001421   302.40636802
 N     20  19  18     2.573624158481   115.91781892   107.41976163
 C     21  20  19     2.748519580041   124.43896394   175.40281231
 C     22  21  20     2.931837651495   110.99105855   246.68039763
 N     23  22  21     2.580702481016   114.40176841    27.09027180
 C     24  23  22     2.750059686382   122.16462685   201.15876360
 C     25  24  23     2.896085239960   112.19909428   232.54124679
 O     23  22  21     2.323387778663   121.86210391   207.26642847
 C     22  21  20     2.903125334740   111.95765748   124.35082168
 C     28  22  21     2.896480271305   115.06539061   308.86605878
 C     29  28  22     2.895290640139   112.59187270   302.23291804
 C     29  28  22     2.895827107246   109.80536377   177.55035537
 O     20  19  18     2.326601169946   119.75798149   288.56190477
 C     19  18  17     2.879987437625   113.47040904    74.27335178
 C     33  19  18     2.829212415567   116.32711514    90.86965747
 C     34  33  19     2.877060359703   115.02619905   175.94353665
 C     35  34  33     2.888810528619   113.03358107   175.33472514
 C     36  35  34     2.891795999530   112.25856348   177.45464285
 C     37  36  35     2.890574038838   113.70152673   178.29939420
 C     38  37  36     2.891914801591   113.42804307   179.25641896
 C     39  38  37     2.891502503184   113.59415981   179.58646851
 C     40  39  38     2.893138080046   113.60099530   179.86366205
 C     41  40  39     2.891100940470   113.15035005   179.91281048
 O     33  19  18     2.335686633601   122.06809411   271.52330117
 O     18  17  16     2.681291383045   112.17213281    63.19868115
 O     15  14  13     2.342875162941   120.66813249   171.12032582
 C     14  13  12     2.910035862056   112.81000296   124.97503171
 C     46  14  13     2.890640983281   113.84057014    60.81665200
 O     12  11  10     2.317739441723   121.10258391    39.81003495
 C     11  10   2     2.946558256109   113.06042164    96.80688149
 C     49  11  10     2.896327032666   111.99222356   329.13552307
 C     49  11  10     2.904523310763   110.65027323   206.92624651
 H      3   2   1     2.075867101472   109.71653762   132.86904546
 H      4   3   2     2.078329368627   109.32166941   159.45409399
 H      4   3   2     2.069697878930   111.48183422    38.63143724
 H      5   4   3     2.072844541925   108.95426190    82.00843397
 H      5   4   3     2.072949009263   113.07770326   202.64821376
 H      6   5   4     2.077138872674   112.34286030   142.11822713
 H      6   5   4     2.080037456458   111.74377083   263.97441203
[...]
freq.      86.28  E(vib)   ...       0.48 
freq.      89.78  E(vib)   ...       0.47 
freq.      94.63  E(vib)   ...       0.47 
freq.      98.68  E(vib)   ...       0.46 
freq.     103.94  E(vib)   ...       0.46 
freq.     109.25  E(vib)   ...       0.45 
freq.     111.56  E(vib)   ...       0.45 
freq.     118.78  E(vib)   ...       0.44 
freq.     124.54  E(vib)   ...       0.43 
freq.     127.44  E(vib)   ...       0.43 
freq.     131.27  E(vib)   ...       0.42 
freq.     135.07  E(vib)   ...       0.42 
freq.     140.06  E(vib)   ...       0.41 
freq.     144.32  E(vib)   ...       0.41 
freq.     154.77  E(vib)   ...       0.40 
freq.     157.09  E(vib)   ...       0.40 
freq.     161.26  E(vib)   ...       0.39 
freq.     165.92  E(vib)   ...       0.39 
freq.     172.56  E(vib)   ...       0.38 
freq.     181.15  E(vib)   ...       0.37 
freq.     182.90  E(vib)   ...       0.37 
freq.     190.95  E(vib)   ...       0.36 
freq.     196.67  E(vib)   ...       0.36 
freq.     205.29  E(vib)   ...       0.35 
freq.     211.41  E(vib)   ...       0.34 
freq.     222.56  E(vib)   ...       0.33 
freq.     227.59  E(vib)   ...       0.33 
freq.     228.47  E(vib)   ...       0.32 
freq.     233.15  E(vib)   ...       0.32 
freq.     237.20  E(vib)   ...       0.32 
freq.     237.63  E(vib)   ...       0.32 
freq.     245.45  E(vib)   ...       0.31 
freq.     251.27  E(vib)   ...       0.30 
freq.     257.39  E(vib)   ...       0.30 
freq.     259.95  E(vib)   ...       0.30 
freq.     263.94  E(vib)   ...       0.29 
freq.     266.68  E(vib)   ...       0.29 
freq.     274.00  E(vib)   ...       0.28 
freq.     279.76  E(vib)   ...       0.28 
freq.     301.61  E(vib)   ...       0.26 
freq.     315.71  E(vib)   ...       0.25 
freq.     319.80  E(vib)   ...       0.25 
freq.     322.46  E(vib)   ...       0.25 
freq.     329.03  E(vib)   ...       0.24 
freq.     340.01  E(vib)   ...       0.23 
freq.     342.18  E(vib)   ...       0.23 
freq.     348.06  E(vib)   ...       0.23 
freq.     353.81  E(vib)   ...       0.22 
freq.     360.49  E(vib)   ...       0.22 
freq.     376.01  E(vib)   ...       0.21 
freq.     378.37  E(vib)   ...       0.21 
freq.     387.40  E(vib)   ...       0.20 
freq.     396.01  E(vib)   ...       0.20 
freq.     406.15  E(vib)   ...       0.19 
freq.     412.44  E(vib)   ...       0.19 
freq.     417.53  E(vib)   ...       0.18 
freq.     424.30  E(vib)   ...       0.18 
freq.     441.21  E(vib)   ...       0.17 
freq.     456.29  E(vib)   ...       0.16 
freq.     464.73  E(vib)   ...       0.16 
freq.     467.19  E(vib)   ...       0.16 
freq.     474.14  E(vib)   ...       0.15 
freq.     479.90  E(vib)   ...       0.15 
freq.     499.59  E(vib)   ...       0.14 
freq.     506.75  E(vib)   ...       0.14 
freq.     529.92  E(vib)   ...       0.13 
freq.     533.03  E(vib)   ...       0.13 
freq.     545.02  E(vib)   ...       0.12 
freq.     568.19  E(vib)   ...       0.11 
freq.     574.49  E(vib)   ...       0.11 
freq.     589.73  E(vib)   ...       0.10 
freq.     597.45  E(vib)   ...       0.10 
freq.     601.60  E(vib)   ...       0.10 
freq.     634.75  E(vib)   ...       0.09 
freq.     638.93  E(vib)   ...       0.09 
freq.     650.38  E(vib)   ...       0.08 
freq.     662.82  E(vib)   ...       0.08 
freq.     671.90  E(vib)   ...       0.08 
freq.     681.44  E(vib)   ...       0.08 
freq.     686.59  E(vib)   ...       0.07 
freq.     702.08  E(vib)   ...       0.07 
freq.     711.65  E(vib)   ...       0.07 
freq.     715.92  E(vib)   ...       0.07 
freq.     718.85  E(vib)   ...       0.07 
freq.     728.51  E(vib)   ...       0.06 
freq.     729.59  E(vib)   ...       0.06 
freq.     732.95  E(vib)   ...       0.06 
freq.     745.87  E(vib)   ...       0.06 
freq.     753.17  E(vib)   ...       0.06 
freq.     759.67  E(vib)   ...       0.06 
freq.     770.24  E(vib)   ...       0.05 
freq.     779.19  E(vib)   ...       0.05 
freq.     791.44  E(vib)   ...       0.05 
freq.     796.49  E(vib)   ...       0.05 
freq.     815.17  E(vib)   ...       0.05 
freq.     824.68  E(vib)   ...       0.04 
freq.     825.31  E(vib)   ...       0.04 
freq.     836.42  E(vib)   ...       0.04 
freq.     839.31  E(vib)   ...       0.04 
freq.     842.24  E(vib)   ...       0.04 
freq.     845.98  E(vib)   ...       0.04 
freq.     860.49  E(vib)   ...       0.04 
freq.     872.09  E(vib)   ...       0.04 
freq.     876.94  E(vib)   ...       0.04 
freq.     877.39  E(vib)   ...       0.04 
freq.     886.03  E(vib)   ...       0.04 
freq.     897.71  E(vib)   ...       0.03 
freq.     902.15  E(vib)   ...       0.03 
freq.     903.46  E(vib)   ...       0.03 
freq.     907.93  E(vib)   ...       0.03 
freq.     912.80  E(vib)   ...       0.03 
freq.     918.71  E(vib)   ...       0.03 
freq.     919.56  E(vib)   ...       0.03 
freq.     933.40  E(vib)   ...       0.03 
freq.     939.33  E(vib)   ...       0.03 
freq.     942.12  E(vib)   ...       0.03 
freq.     942.95  E(vib)   ...       0.03 
freq.     946.18  E(vib)   ...       0.03 
freq.     947.18  E(vib)   ...       0.03 
freq.     964.85  E(vib)   ...       0.03 
freq.     965.88  E(vib)   ...       0.03 
freq.     976.13  E(vib)   ...       0.03 
freq.     977.84  E(vib)   ...       0.03 
freq.     979.76  E(vib)   ...       0.02 
freq.     988.64  E(vib)   ...       0.02 
freq.     993.85  E(vib)   ...       0.02 
freq.    1004.58  E(vib)   ...       0.02 
freq.    1019.77  E(vib)   ...       0.02 
freq.    1024.98  E(vib)   ...       0.02 
freq.    1035.86  E(vib)   ...       0.02 
freq.    1038.78  E(vib)   ...       0.02 
freq.    1041.73  E(vib)   ...       0.02 
freq.    1046.41  E(vib)   ...       0.02 
freq.    1050.67  E(vib)   ...       0.02 
freq.    1051.50  E(vib)   ...       0.02 
freq.    1057.57  E(vib)   ...       0.02 
freq.    1063.18  E(vib)   ...       0.02 
freq.    1063.65  E(vib)   ...       0.02 
freq.    1070.06  E(vib)   ...       0.02 
freq.    1078.01  E(vib)   ...       0.02 
freq.    1080.41  E(vib)   ...       0.02 
freq.    1084.87  E(vib)   ...       0.02 
freq.    1090.70  E(vib)   ...       0.02 
freq.    1099.04  E(vib)   ...       0.02 
freq.    1103.53  E(vib)   ...       0.02 
freq.    1112.00  E(vib)   ...       0.01 
freq.    1115.17  E(vib)   ...       0.01 
freq.    1115.65  E(vib)   ...       0.01 
freq.    1118.23  E(vib)   ...       0.01 
freq.    1129.92  E(vib)   ...       0.01 
freq.    1137.47  E(vib)   ...       0.01 
freq.    1141.89  E(vib)   ...       0.01 
freq.    1143.20  E(vib)   ...       0.01 
freq.    1154.41  E(vib)   ...       0.01 
freq.    1162.69  E(vib)   ...       0.01 
freq.    1165.03  E(vib)   ...       0.01 
freq.    1169.71  E(vib)   ...       0.01 
freq.    1170.84  E(vib)   ...       0.01 
freq.    1182.17  E(vib)   ...       0.01 
freq.    1189.71  E(vib)   ...       0.01 
freq.    1195.09  E(vib)   ...       0.01 
freq.    1197.73  E(vib)   ...       0.01 
freq.    1202.96  E(vib)   ...       0.01 
freq.    1204.99  E(vib)   ...       0.01 
freq.    1206.99  E(vib)   ...       0.01 
freq.    1209.99  E(vib)   ...       0.01 
freq.    1225.80  E(vib)   ...       0.01 
freq.    1227.36  E(vib)   ...       0.01 
freq.    1234.01  E(vib)   ...       0.01 
freq.    1236.09  E(vib)   ...       0.01 
freq.    1240.21  E(vib)   ...       0.01 
freq.    1241.72  E(vib)   ...       0.01 
freq.    1246.76  E(vib)   ...       0.01 
freq.    1255.55  E(vib)   ...       0.01 
freq.    1257.09  E(vib)   ...       0.01 
freq.    1263.40  E(vib)   ...       0.01 
freq.    1266.73  E(vib)   ...       0.01 
freq.    1271.27  E(vib)   ...       0.01 
freq.    1272.18  E(vib)   ...       0.01 
freq.    1278.30  E(vib)   ...       0.01 
freq.    1280.69  E(vib)   ...       0.01 
freq.    1282.45  E(vib)   ...       0.01 
freq.    1283.66  E(vib)   ...       0.01 
freq.    1291.18  E(vib)   ...       0.01 
freq.    1292.03  E(vib)   ...       0.01 
freq.    1294.00  E(vib)   ...       0.01 
freq.    1298.04  E(vib)   ...       0.01 
freq.    1299.35  E(vib)   ...       0.01 
freq.    1302.09  E(vib)   ...       0.01 
freq.    1304.28  E(vib)   ...       0.01 
freq.    1307.39  E(vib)   ...       0.01 
freq.    1308.38  E(vib)   ...       0.01 
freq.    1308.92  E(vib)   ...       0.01 
freq.    1312.86  E(vib)   ...       0.01 
freq.    1317.84  E(vib)   ...       0.01 
freq.    1321.39  E(vib)   ...       0.01 
freq.    1322.69  E(vib)   ...       0.01 
freq.    1326.66  E(vib)   ...       0.01 
freq.    1328.87  E(vib)   ...       0.01 
freq.    1332.53  E(vib)   ...       0.01 
freq.    1334.02  E(vib)   ...       0.01 
freq.    1344.11  E(vib)   ...       0.01 
freq.    1348.20  E(vib)   ...       0.01 
freq.    1352.03  E(vib)   ...       0.01 
freq.    1352.52  E(vib)   ...       0.01 
freq.    1352.70  E(vib)   ...       0.01 
freq.    1353.69  E(vib)   ...       0.01 
freq.    1355.91  E(vib)   ...       0.01 
freq.    1361.15  E(vib)   ...       0.01 
freq.    1363.49  E(vib)   ...       0.01 
freq.    1369.70  E(vib)   ...       0.01 
freq.    1374.91  E(vib)   ...       0.01 
freq.    1376.68  E(vib)   ...       0.01 
freq.    1388.95  E(vib)   ...       0.00 
freq.    1411.57  E(vib)   ...       0.00 
freq.    1413.22  E(vib)   ...       0.00 
freq.    1426.71  E(vib)   ...       0.00 
freq.    1427.91  E(vib)   ...       0.00 
freq.    1428.69  E(vib)   ...       0.00 
freq.    1431.94  E(vib)   ...       0.00 
freq.    1433.70  E(vib)   ...       0.00 
freq.    1434.21  E(vib)   ...       0.00 
freq.    1434.75  E(vib)   ...       0.00 
freq.    1437.96  E(vib)   ...       0.00 
freq.    1438.23  E(vib)   ...       0.00 
freq.    1441.22  E(vib)   ...       0.00 
freq.    1441.65  E(vib)   ...       0.00 
freq.    1445.44  E(vib)   ...       0.00 
freq.    1446.04  E(vib)   ...       0.00 
freq.    1446.87  E(vib)   ...       0.00 
freq.    1448.67  E(vib)   ...       0.00 
freq.    1448.86  E(vib)   ...       0.00 
freq.    1449.14  E(vib)   ...       0.00 
freq.    1449.71  E(vib)   ...       0.00 
freq.    1450.86  E(vib)   ...       0.00 
freq.    1455.17  E(vib)   ...       0.00 
freq.    1456.73  E(vib)   ...       0.00 
freq.    1458.27  E(vib)   ...       0.00 
freq.    1463.22  E(vib)   ...       0.00 
freq.    1465.67  E(vib)   ...       0.00 
freq.    1466.43  E(vib)   ...       0.00 
freq.    1467.36  E(vib)   ...       0.00 
freq.    1468.30  E(vib)   ...       0.00 
freq.    1472.03  E(vib)   ...       0.00 
freq.    1472.64  E(vib)   ...       0.00 
freq.    1485.65  E(vib)   ...       0.00 
freq.    1498.22  E(vib)   ...       0.00 
freq.    1511.96  E(vib)   ...       0.00 
freq.    1621.93  E(vib)   ...       0.00 
freq.    1644.98  E(vib)   ...       0.00 
freq.    1656.35  E(vib)   ...       0.00 
freq.    1672.74  E(vib)   ...       0.00 
freq.    1681.43  E(vib)   ...       0.00 
freq.    1685.58  E(vib)   ...       0.00 
freq.    1686.42  E(vib)   ...       0.00 
freq.    2909.80  E(vib)   ...       0.00 
freq.    2918.77  E(vib)   ...       0.00 
freq.    2923.62  E(vib)   ...       0.00 
freq.    2924.84  E(vib)   ...       0.00 
freq.    2925.20  E(vib)   ...       0.00 
freq.    2926.12  E(vib)   ...       0.00 
freq.    2930.21  E(vib)   ...       0.00 
freq.    2935.78  E(vib)   ...       0.00 
freq.    2936.18  E(vib)   ...       0.00 
freq.    2941.73  E(vib)   ...       0.00 
freq.    2944.90  E(vib)   ...       0.00 
freq.    2949.58  E(vib)   ...       0.00 
freq.    2952.02  E(vib)   ...       0.00 
freq.    2952.41  E(vib)   ...       0.00 
freq.    2954.75  E(vib)   ...       0.00 
freq.    2954.77  E(vib)   ...       0.00 
freq.    2956.29  E(vib)   ...       0.00 
freq.    2959.20  E(vib)   ...       0.00 
freq.    2959.52  E(vib)   ...       0.00 
freq.    2960.47  E(vib)   ...       0.00 
freq.    2963.91  E(vib)   ...       0.00 
freq.    2966.79  E(vib)   ...       0.00 
freq.    2970.68  E(vib)   ...       0.00 
freq.    2971.48  E(vib)   ...       0.00 
freq.    2975.48  E(vib)   ...       0.00 
freq.    2976.21  E(vib)   ...       0.00 
freq.    2979.82  E(vib)   ...       0.00 
freq.    2981.16  E(vib)   ...       0.00 
freq.    2987.65  E(vib)   ...       0.00 
freq.    2988.50  E(vib)   ...       0.00 
freq.    2992.48  E(vib)   ...       0.00 
freq.    2993.39  E(vib)   ...       0.00 
freq.    3003.43  E(vib)   ...       0.00 
freq.    3008.07  E(vib)   ...       0.00 
freq.    3011.54  E(vib)   ...       0.00 
freq.    3011.57  E(vib)   ...       0.00 
freq.    3012.50  E(vib)   ...       0.00 
freq.    3013.72  E(vib)   ...       0.00 
freq.    3015.29  E(vib)   ...       0.00 
freq.    3015.39  E(vib)   ...       0.00 
freq.    3016.96  E(vib)   ...       0.00 
freq.    3019.68  E(vib)   ...       0.00 
freq.    3020.77  E(vib)   ...       0.00 
freq.    3021.38  E(vib)   ...       0.00 
freq.    3022.74  E(vib)   ...       0.00 
freq.    3026.71  E(vib)   ...       0.00 
freq.    3027.41  E(vib)   ...       0.00 
freq.    3032.23  E(vib)   ...       0.00 
freq.    3034.67  E(vib)   ...       0.00 
freq.    3035.00  E(vib)   ...       0.00 
freq.    3041.41  E(vib)   ...       0.00 
freq.    3041.97  E(vib)   ...       0.00 
freq.    3043.45  E(vib)   ...       0.00 
freq.    3043.62  E(vib)   ...       0.00 
freq.    3055.92  E(vib)   ...       0.00 
freq.    3059.09  E(vib)   ...       0.00 
freq.    3059.77  E(vib)   ...       0.00 
freq.    3068.57  E(vib)   ...       0.00 
freq.    3302.07  E(vib)   ...       0.00 
freq.    3385.94  E(vib)   ...       0.00 
freq.    3394.47  E(vib)   ...       0.00 
freq.    3452.97  E(vib)   ...       0.00 
freq.    3469.96  E(vib)   ...       0.00 
freq.    3529.12  E(vib)   ...       0.00 

------------
INNER ENERGY
------------

The inner energy is: U= E(el) + E(ZPE) + E(vib) + E(rot) + E(trans)
    E(el)   - is the total energy from the electronic structure calculation
              = E(kin-el) + E(nuc-el) + E(el-el) + E(nuc-nuc)
    E(ZPE)  - the the zero temperature vibrational energy from the frequency calculation
    E(vib)  - the the finite temperature correction to E(ZPE) due to population
              of excited vibrational states
    E(rot)  - is the rotational thermal energy
    E(trans)- is the translational thermal energy

Summary of contributions to the inner energy U:
Electronic energy                ...  -2380.08746822 Eh
Zero point energy                ...      0.97734566 Eh     613.29 kcal/mol
Thermal vibrational correction   ...      0.05553140 Eh      34.85 kcal/mol
Thermal rotational correction    ...      0.00141627 Eh       0.89 kcal/mol
Thermal translational correction ...      0.00141627 Eh       0.89 kcal/mol
-----------------------------------------------------------------------
Total thermal energy                  -2379.05175862 Eh


Summary of corrections to the electronic energy:
(perhaps to be used in another calculation)
Total thermal correction                  0.05836394 Eh      36.62 kcal/mol
Non-thermal (ZPE) correction              0.97734566 Eh     613.29 kcal/mol
-----------------------------------------------------------------------
Total correction                          1.03570960 Eh     649.92 kcal/mol


--------
ENTHALPY
--------

The enthalpy is H = U + kB*T
                kB is Boltzmann's constant
Total free energy                 ...  -2379.05175862 Eh 
Thermal Enthalpy correction       ...      0.00094421 Eh       0.59 kcal/mol
-----------------------------------------------------------------------
Total Enthalpy                    ...  -2379.05081441 Eh


Note: Only C1 symmetry has been detected, increase convergence thresholds 
      if your molecule has a higher symmetry. Symmetry factor of 1.0 is   
      used for the rotational entropy correction. 
 

Note: Rotational entropy computed according to Herzberg 
Infrared and Raman Spectra, Chapter V,1, Van Nostrand Reinhold, 1945 
Point Group:  C1, Symmetry Number:   1  
Rotational constants in cm-1:     0.002200     0.001354     0.001129 

Vibrational entropy computed according to the QRRHO of S. Grimme
Chem.Eur.J. 2012 18 9955


-------
ENTROPY
-------

The entropy contributions are T*S = T*(S(el)+S(vib)+S(rot)+S(trans))
     S(el)   - electronic entropy
     S(vib)  - vibrational entropy
     S(rot)  - rotational entropy
     S(trans)- translational entropy
The entropies will be listed as mutliplied by the temperature to get
units of energy

Electronic entropy                ...      0.00000000 Eh      0.00 kcal/mol
Vibrational entropy               ...      0.10228602 Eh     64.19 kcal/mol
Rotational entropy                ...      0.01872165 Eh     11.75 kcal/mol
Translational entropy             ...      0.02166895 Eh     13.60 kcal/mol
-----------------------------------------------------------------------
Final entropy term                ...      0.14267662 Eh     89.53 kcal/mol

In case the symmetry of your molecule has not been determined correctly
or in case you have a reason to use a different symmetry number we print 
out the resulting rotational entropy values for sn=1,12 :
 --------------------------------------------------------
|  sn= 1 | S(rot)=       0.01872165 Eh     11.75 kcal/mol|
|  sn= 2 | S(rot)=       0.01806720 Eh     11.34 kcal/mol|
|  sn= 3 | S(rot)=       0.01768437 Eh     11.10 kcal/mol|
|  sn= 4 | S(rot)=       0.01741274 Eh     10.93 kcal/mol|
|  sn= 5 | S(rot)=       0.01720205 Eh     10.79 kcal/mol|
|  sn= 6 | S(rot)=       0.01702991 Eh     10.69 kcal/mol|
|  sn= 7 | S(rot)=       0.01688436 Eh     10.60 kcal/mol|
|  sn= 8 | S(rot)=       0.01675828 Eh     10.52 kcal/mol|
|  sn= 9 | S(rot)=       0.01664708 Eh     10.45 kcal/mol|
|  sn=10 | S(rot)=       0.01654760 Eh     10.38 kcal/mol|
|  sn=11 | S(rot)=       0.01645761 Eh     10.33 kcal/mol|
|  sn=12 | S(rot)=       0.01637545 Eh     10.28 kcal/mol|
 --------------------------------------------------------


-------------------
GIBBS FREE ENERGY
-------------------

The Gibbs free energy is G = H - T*S

Total enthalpy                    ...  -2379.05081441 Eh 
Total entropy correction          ...     -0.14267662 Eh    -89.53 kcal/mol
-----------------------------------------------------------------------
Final Gibbs free energy         ...  -2379.19349103 Eh

For completeness - the Gibbs free energy minus the electronic energy
G-E(el)                           ...      0.89397719 Eh    560.98 kcal/mol

--------------------------------------------------------------------------
WARNING: No preset parameters were found for the device that Open MPI
detected:

  Local host:            eu-g1-008-4
  Device name:           mlx5_0
  Device vendor ID:      0x02c9
  Device vendor part ID: 4123

Default device parameters will be used, which may result in lower
performance.  You can edit any of the files specified by the
btl_openib_device_param_files MCA parameter to set values for your
device.

NOTE: You can turn off this warning by setting the MCA parameter
      btl_openib_warn_no_device_params_found to 0.
--------------------------------------------------------------------------
--------------------------------------------------------------------------
WARNING: There was an error initializing an OpenFabrics device.

  Local host:   eu-g1-008-4
  Local device: mlx5_0
--------------------------------------------------------------------------

Timings for individual modules:

Sum of individual times         ...    27626.387 sec (= 460.440 min)
GTO integral calculation        ...       12.428 sec (=   0.207 min)   0.0 %
SCF iterations                  ...      367.193 sec (=   6.120 min)   1.3 %
SCF Gradient evaluation         ...       72.467 sec (=   1.208 min)   0.3 %
Geometry relaxation             ...        4.022 sec (=   0.067 min)   0.0 %
Analytical frequency calculation...    27170.278 sec (= 452.838 min)  98.3 %
                             ****ORCA TERMINATED NORMALLY****
TOTAL RUN TIME: 0 days 7 hours 40 minutes 44 seconds 313 msec
