
                                 *****************
                                 * O   R   C   A *
                                 *****************

           --- An Ab Initio, DFT and Semiempirical electronic structure package ---

                  #######################################################
                  #                        -***-                        #
                  #          Department of theory and spectroscopy      #
                  #               Directorship: Frank Neese             #
                  #        Max Planck Institute fuer Kohlenforschung    #
                  #                Kaiser Wilhelm Platz 1               #
                  #                 D-45470 Muelheim/Ruhr               #
                  #                      Germany                        #
                  #                                                     #
                  #                  All rights reserved                #
                  #                        -***-                        #
                  #######################################################


                         Program Version 4.2.0 -  RELEASE  -


 With contributions from (in alphabetic order):
   Daniel Aravena         : Magnetic Suceptibility
   Michael Atanasov       : Ab Initio Ligand Field Theory (pilot matlab implementation)
   Alexander A. Auer      : GIAO ZORA, VPT2
   Ute Becker             : Parallelization
   Giovanni Bistoni       : ED, misc. LED, open-shell LED, HFLED
   Martin Brehm           : Molecular dynamics
   Dmytro Bykov           : SCF Hessian
   Vijay G. Chilkuri      : MRCI spin determinant printing, contributions to CSF-ICE
   Dipayan Datta          : RHF DLPNO-CCSD density
   Achintya Kumar Dutta   : EOM-CC, STEOM-CC
   Dmitry Ganyushin       : Spin-Orbit,Spin-Spin,Magnetic field MRCI
   Miquel Garcia          : C-PCM Hessian, Gaussian charge scheme
   Yang Guo               : DLPNO-NEVPT2, CIM, IAO-localization
   Andreas Hansen         : Spin unrestricted coupled pair/coupled cluster methods
   Benjamin Helmich-Paris : CASSCF linear response (MC-RPA)
   Lee Huntington         : MR-EOM, pCC
   Robert Izsak           : Overlap fitted RIJCOSX, COSX-SCS-MP3, EOM
   Christian Kollmar      : KDIIS, OOCD, Brueckner-CCSD(T), CCSD density
   Simone Kossmann        : Meta GGA functionals, TD-DFT gradient, OOMP2, MP2 Hessian
   Martin Krupicka        : AUTO-CI
   Lucas Lang             : DCDCAS
   Dagmar Lenk            : GEPOL surface, SMD
   Dimitrios Liakos       : Extrapolation schemes; Compound Job, initial MDCI parallelization
   Dimitrios Manganas     : Further ROCIS development; embedding schemes
   Dimitrios Pantazis     : SARC Basis sets
   Taras Petrenko         : DFT Hessian,TD-DFT gradient, ASA, ECA, R-Raman, ABS, FL, XAS/XES, NRVS
   Peter Pinski           : DLPNO-MP2, DLPNO-MP2 Gradient
   Christoph Reimann      : Effective Core Potentials
   Marius Retegan         : Local ZFS, SOC
   Christoph Riplinger    : Optimizer, TS searches, QM/MM, DLPNO-CCSD(T), (RO)-DLPNO pert. Triples
   Tobias Risthaus        : Range-separated hybrids, TD-DFT gradient, RPA, STAB
   Michael Roemelt        : Original ROCIS implementation
   Masaaki Saitow         : Open-shell DLPNO-CCSD energy and density
   Barbara Sandhoefer     : DKH picture change effects
   Avijit Sen             : IP-ROCIS
   Kantharuban Sivalingam : CASSCF convergence, NEVPT2, FIC-MRCI
   Bernardo de Souza      : ESD, SOC TD-DFT
   Georgi Stoychev        : AutoAux, RI-MP2 NMR
   Willem Van den Heuvel  : Paramagnetic NMR
   Boris Wezisla          : Elementary symmetry handling
   Frank Wennmohs         : Technical directorship


 We gratefully acknowledge several colleagues who have allowed us to
 interface, adapt or use parts of their codes:
   Stefan Grimme, W. Hujo, H. Kruse,             : VdW corrections, initial TS optimization,
                  C. Bannwarth                     DFT functionals, gCP, sTDA/sTD-DF
   Ed Valeev, F. Pavosevic, A. Kumar             : LibInt (2-el integral package), F12 methods
   Garnet Chan, S. Sharma, J. Yang, R. Olivares  : DMRG
   Ulf Ekstrom                                   : XCFun DFT Library
   Mihaly Kallay                                 : mrcc  (arbitrary order and MRCC methods)
   Andreas Klamt, Michael Diedenhofen            : otool_cosmo (COSMO solvation model)
   Jiri Pittner, Ondrej Demel                    : Mk-CCSD
   Frank Weinhold                                : gennbo (NPA and NBO analysis)
   Christopher J. Cramer and Donald G. Truhlar   : smd solvation model
   Lars Goerigk                                  : TD-DFT with DH, B97 family of functionals
   V. Asgeirsson, H. Jonsson                     : NEB implementation
   FAccTs GmbH                                   : IRC, NEB, NEB-TS, Multilevel, MM, QM/MM, CI optimization
   S Lehtola, MJT Oliveira, MAL Marques          : LibXC Library


 Your calculation uses the libint2 library for the computation of 2-el integrals
 For citations please refer to: http://libint.valeyev.net

 Your ORCA version has been built with support for libXC version: 4.2.3
 For citations please refer to: https://tddft.org/programs/libxc/

 This ORCA versions uses:
   CBLAS   interface :  Fast vector & matrix operations
   LAPACKE interface :  Fast linear algebra routines
   SCALAPACK package :  Parallel linear algebra routines




***************************************
The coordinates will be read from file: 13.xyz
***************************************


Your calculation utilizes the atom-pairwise dispersion correction
with the Becke-Johnson damping scheme (D3BJ)
Cite in your paper:
S.Grimme, S.Ehrlich, L.Goerigk, J Comput Chem, (2011), 32, 1456–1465 
S.Grimme, J.Antony, S.Ehrlich and H.Krieg, J.Chem.Phys., 132, (2010), 154104 
   

----- Orbital basis set information -----
Your calculation utilizes the basis: def2-TZVP
   F. Weigend and R. Ahlrichs, Phys. Chem. Chem. Phys. 7, 3297 (2005).

----- AuxJ basis set information -----
Your calculation utilizes the auxiliary basis: def2/J
   F. Weigend, Phys. Chem. Chem. Phys. 8, 1057 (2006).

================================================================================
                                        WARNINGS
                       Please study these warnings very carefully!
================================================================================


WARNING: Geometry Optimization
  ===> : Switching off AutoStart
         For restart on a previous wavefunction, please use MOREAD

INFO   : the flag for use of LIBINT has been found!

================================================================================
                                       INPUT FILE
================================================================================
NAME = 13.inp
|  1> !RI BP86 def2-tzvp def2/J D3BJ TIGHTSCF TightOpt Grid5 FinalGrid6 freq
|  2> %maxcore 4000
|  3> %pal nprocs 24
|  4> end
|  5> * xyzfile 0 1 13.xyz 
|  6> 
|  7>                          ****END OF INPUT****
================================================================================

                       *****************************
                       * Geometry Optimization Run *
                       *****************************

Geometry optimization settings:
Update method            Update   .... BFGS
Choice of coordinates    CoordSys .... Z-matrix Internals
Initial Hessian          InHess   .... Almoef's Model

Convergence Tolerances:
Energy Change            TolE     ....  1.0000e-06 Eh
Max. Gradient            TolMAXG  ....  1.0000e-04 Eh/bohr
RMS Gradient             TolRMSG  ....  3.0000e-05 Eh/bohr
Max. Displacement        TolMAXD  ....  1.0000e-03 bohr
RMS Displacement         TolRMSD  ....  6.0000e-04 bohr
Strict Convergence                ....  False
------------------------------------------------------------------------------
                        ORCA OPTIMIZATION COORDINATE SETUP
------------------------------------------------------------------------------

The optimization will be done in new redundant internal coordinates
Making redundant internal coordinates   ...  (new redundants) done
Evaluating the initial hessian          ...  (Almloef) done
Evaluating the coordinates              ...  done
Calculating the B-matrix                .... done
Calculating the G-matrix                .... done
Diagonalizing the G-matrix              .... done
Small eigenvalue found = 7.149e-04
Small eigenvalue found = 1.952e-03
Small eigenvalue found = 3.276e-03
Small eigenvalue found = 4.590e-03
Small eigenvalue found = 5.684e-03
Small eigenvalue found = 6.564e-03
Small eigenvalue found = 7.540e-03
Small eigenvalue found = 9.905e-03
Small eigenvalue found = 1.110e-02
Small eigenvalue found = 1.122e-02
Small eigenvalue found = 1.477e-02
Small eigenvalue found = 1.740e-02
Small eigenvalue found = 1.883e-02
Small eigenvalue found = 2.206e-02
Small eigenvalue found = 2.221e-02
Small eigenvalue found = 2.489e-02
Small eigenvalue found = 2.950e-02
The first mode is                       ....  329
The number of degrees of freedom        ....  339

    -----------------------------------------------------------------
                    Redundant Internal Coordinates


    -----------------------------------------------------------------
         Definition                    Initial Value    Approx d2E/dq
    -----------------------------------------------------------------
      1. B(C   1,O   0)                  1.2306         1.005025   
      2. B(C   2,C   1)                  1.5529         0.343400   
      3. B(C   3,C   2)                  1.5255         0.379767   
      4. B(C   4,C   3)                  1.5353         0.366319   
      5. B(C   5,C   4)                  1.5332         0.369167   
      6. B(N   6,C   5)                  1.4793         0.403137   
      7. B(N   6,C   2)                  1.4839         0.396367   
      8. B(C   7,N   6)                  1.3467         0.655984   
      9. B(O   8,C   7)                  1.2525         0.927302   
     10. B(N   9,C   1)                  1.3586         0.627957   
     11. B(C  10,N   9)                  1.4559         0.439334   
     12. B(C  11,C  10)                  1.5465         0.351552   
     13. B(N  12,C  11)                  1.3572         0.631301   
     14. B(C  13,N  12)                  1.4701         0.416908   
     15. B(C  14,C  13)                  1.5473         0.350511   
     16. B(N  15,C  14)                  1.3632         0.617497   
     17. B(C  16,N  15)                  1.4496         0.449529   
     18. B(C  17,C  16)                  1.5325         0.370094   
     19. B(C  18,C  17)                  1.5486         0.348867   
     20. B(C  19,C  18)                  1.5403         0.359655   
     21. B(N  20,C  19)                  1.3632         0.617540   
     22. B(C  21,N  20)                  1.4569         0.437598   
     23. B(C  22,C  21)                  1.5442         0.354588   
     24. B(N  23,C  22)                  1.3565         0.632952   
     25. B(C  24,N  23)                  1.4476         0.452859   
     26. B(C  24,C   7)                  1.5271         0.377592   
     27. B(C  25,C  24)                  1.5423         0.357044   
     28. B(O  26,C  22)                  1.2321         0.999480   
     29. B(C  27,C  21)                  1.5395         0.360789   
     30. B(C  28,C  27)                  1.5363         0.365010   
     31. B(C  29,C  28)                  1.5332         0.369180   
     32. B(C  30,C  28)                  1.5319         0.370919   
     33. B(O  31,C  19)                  1.2317         1.000827   
     34. B(C  32,C  18)                  1.5514         0.345355   
     35. B(C  33,C  32)                  1.5191         0.388860   
     36. B(C  34,C  33)                  1.5400         0.360158   
     37. B(C  35,C  34)                  1.5295         0.374296   
     38. B(C  36,C  35)                  1.5305         0.372879   
     39. B(C  37,C  36)                  1.5293         0.374582   
     40. B(C  38,C  37)                  1.5306         0.372775   
     41. B(C  39,C  38)                  1.5288         0.375183   
     42. B(C  40,C  39)                  1.5307         0.372590   
     43. B(C  41,C  40)                  1.5294         0.374432   
     44. B(O  42,C  32)                  1.2178         1.053548   
     45. B(O  43,C  17)                  1.4500         0.448865   
     46. B(O  44,C  14)                  1.2312         1.002811   
     47. B(C  45,C  13)                  1.5391         0.361292   
     48. B(C  46,C  45)                  1.5289         0.375111   
     49. B(O  47,C  11)                  1.2382         0.977214   
     50. B(C  48,C  10)                  1.5467         0.351321   
     51. B(C  49,C  48)                  1.5322         0.370534   
     52. B(C  50,C  48)                  1.5332         0.369143   
     53. B(H  51,C   2)                  1.0980         0.349663   
     54. B(H  52,C   3)                  1.0996         0.347615   
     55. B(H  53,C   3)                  1.0951         0.353372   
     56. B(H  54,C   4)                  1.0988         0.348697   
     57. B(H  55,C   4)                  1.0966         0.351451   
     58. B(H  56,C   5)                  1.0982         0.349477   
     59. B(H  57,C   5)                  1.1009         0.345904   
     60. B(H  58,N   9)                  1.0326         0.398227   
     61. B(H  59,C  10)                  1.1033         0.342916   
     62. B(H  60,N  12)                  1.0170         0.421657   
     63. B(H  61,C  13)                  1.0981         0.349504   
     64. B(H  62,O   8)                  4.5848         0.000001   
     65. B(H  62,N  15)                  1.0284         0.404454   
     66. B(H  63,C  16)                  1.1067         0.338696   
     67. B(H  64,C  16)                  1.0969         0.351122   
     68. B(H  65,C  17)                  1.1001         0.347026   
     69. B(H  66,C  18)                  1.1036         0.342581   
     70. B(H  67,H  58)                  4.9145         0.000000   
     71. B(H  67,N  20)                  1.0242         0.410645   
     72. B(H  68,C  21)                  1.0992         0.348118   
     73. B(H  69,N  23)                  1.0184         0.419509   
     74. B(H  70,C  24)                  1.0999         0.347177   
     75. B(H  71,C  25)                  1.0961         0.352142   
     76. B(H  72,C  25)                  1.0988         0.348683   
     77. B(H  73,C  25)                  1.0981         0.349558   
     78. B(H  74,C  27)                  1.1044         0.341571   
     79. B(H  75,C  27)                  1.1043         0.341698   
     80. B(H  76,C  28)                  1.1009         0.345954   
     81. B(H  77,C  29)                  1.1005         0.346420   
     82. B(H  78,C  29)                  1.0994         0.347859   
     83. B(H  79,C  29)                  1.1021         0.344428   
     84. B(H  80,C  30)                  1.0979         0.349857   
     85. B(H  81,C  30)                  1.1024         0.344063   
     86. B(H  82,C  30)                  1.0996         0.347681   
     87. B(H  83,H  73)                  2.5947         0.000274   
     88. B(H  83,C  33)                  1.0987         0.348810   
     89. B(H  84,C  33)                  1.0991         0.348250   
     90. B(H  85,C  34)                  1.0995         0.347703   
     91. B(H  86,C  34)                  1.0988         0.348592   
     92. B(H  87,C  35)                  1.1032         0.343113   
     93. B(H  88,C  35)                  1.1026         0.343751   
     94. B(H  89,C  36)                  1.1025         0.343917   
     95. B(H  90,H  60)                  2.4453         0.000474   
     96. B(H  90,C  36)                  1.1058         0.339837   
     97. B(H  91,H  51)                  2.0750         0.001849   
     98. B(H  91,C  37)                  1.1058         0.339742   
     99. B(H  92,C  37)                  1.1027         0.343637   
    100. B(H  93,C  38)                  1.1040         0.341997   
    101. B(H  94,C  38)                  1.1058         0.339812   
    102. B(H  95,C  39)                  1.1047         0.341209   
    103. B(H  96,C  39)                  1.1039         0.342195   
    104. B(H  97,C  40)                  1.1035         0.342722   
    105. B(H  98,H  59)                  4.6011         0.000000   
    106. B(H  98,C  40)                  1.1032         0.343019   
    107. B(H  99,C  41)                  1.0992         0.348111   
    108. B(H 100,C  41)                  1.1007         0.346200   
    109. B(H 101,C  41)                  1.1009         0.345924   
    110. B(H 102,O  43)                  0.9755         0.491129   
    111. B(H 103,C  45)                  1.0977         0.350107   
    112. B(H 104,C  45)                  1.1015         0.345265   
    113. B(H 105,C  46)                  1.0984         0.349184   
    114. B(H 106,C  46)                  1.0990         0.348397   
    115. B(H 107,C  46)                  1.0998         0.347335   
    116. B(H 108,H 102)                  4.7830         0.000000   
    117. B(H 108,C  48)                  1.1022         0.344273   
    118. B(H 109,H  69)                  4.1727         0.000001   
    119. B(H 109,C  49)                  1.0988         0.348677   
    120. B(H 110,C  49)                  1.0990         0.348348   
    121. B(H 111,C  49)                  1.0999         0.347196   
    122. B(H 112,C  50)                  1.0967         0.351374   
    123. B(H 113,C  50)                  1.1017         0.344889   
    124. B(H 114,C  50)                  1.0992         0.348190   
    125. A(O   0,C   1,N   9)          124.7592         0.468718   
    126. A(C   2,C   1,N   9)          112.6844         0.389255   
    127. A(O   0,C   1,C   2)          122.5420         0.422979   
    128. A(C   1,C   2,H  51)          107.8977         0.318344   
    129. A(N   6,C   2,H  51)          107.9220         0.323963   
    130. A(C   1,C   2,N   6)          112.3268         0.359559   
    131. A(C   1,C   2,C   3)          111.9048         0.359174   
    132. A(C   3,C   2,H  51)          113.5555         0.323629   
    133. A(C   3,C   2,N   6)          103.2005         0.365794   
    134. A(C   4,C   3,H  53)          112.6850         0.322279   
    135. A(C   4,C   3,H  52)          111.1351         0.321413   
    136. A(C   2,C   3,C   4)          102.9455         0.363154   
    137. A(C   2,C   3,H  53)          110.8421         0.324190   
    138. A(C   2,C   3,H  52)          109.8013         0.323317   
    139. A(H  52,C   3,H  53)          109.2913         0.288381   
    140. A(H  54,C   4,H  55)          108.2901         0.288275   
    141. A(C   3,C   4,H  55)          113.4133         0.321991   
    142. A(C   3,C   4,C   5)          103.6846         0.361403   
    143. A(C   3,C   4,H  54)          109.2859         0.321576   
    144. A(C   5,C   4,H  55)          111.8724         0.322400   
    145. A(C   5,C   4,H  54)          110.2266         0.321984   
    146. A(H  56,C   5,H  57)          108.3531         0.287659   
    147. A(C   4,C   5,N   6)          103.4604         0.365082   
    148. A(C   4,C   5,H  56)          112.9201         0.322102   
    149. A(N   6,C   5,H  57)          109.9898         0.324289   
    150. A(N   6,C   5,H  56)          110.6810         0.324836   
    151. A(C   4,C   5,H  57)          111.3818         0.321561   
    152. A(C   5,N   6,C   7)          126.1308         0.400860   
    153. A(C   2,N   6,C   7)          121.8259         0.399667   
    154. A(C   2,N   6,C   5)          111.6267         0.367252   
    155. A(O   8,C   7,C  24)          119.1984         0.424072   
    156. A(N   6,C   7,O   8)          122.0517         0.465566   
    157. A(N   6,C   7,C  24)          118.7053         0.398823   
    158. A(C   1,N   9,C  10)          123.2777         0.403861   
    159. A(C  10,N   9,H  58)          119.5031         0.333798   
    160. A(C   1,N   9,H  58)          115.9856         0.354412   
    161. A(C  48,C  10,H  59)          108.7668         0.318516   
    162. A(C  11,C  10,H  59)          109.0016         0.318550   
    163. A(N   9,C  10,C  11)          107.5896         0.367410   
    164. A(N   9,C  10,C  48)          113.6940         0.367368   
    165. A(N   9,C  10,H  59)          105.9860         0.328442   
    166. A(C  11,C  10,C  48)          111.5778         0.355869   
    167. A(N  12,C  11,O  47)          123.5541         0.466768   
    168. A(C  10,C  11,O  47)          122.2749         0.422632   
    169. A(C  10,C  11,N  12)          114.1497         0.391217   
    170. A(C  13,N  12,H  60)          116.5990         0.334063   
    171. A(C  11,N  12,C  13)          126.4099         0.400524   
    172. A(C  11,N  12,H  60)          116.1871         0.358192   
    173. A(C  14,C  13,C  45)          112.6604         0.357384   
    174. A(N  12,C  13,H  61)          105.5593         0.326640   
    175. A(C  14,C  13,H  61)          103.5366         0.319386   
    176. A(N  12,C  13,C  14)          113.0126         0.363943   
    177. A(C  45,C  13,H  61)          108.3888         0.320971   
    178. A(N  12,C  13,C  45)          112.8723         0.365835   
    179. A(C  13,C  14,N  15)          115.4216         0.389507   
    180. A(N  15,C  14,O  44)          124.2060         0.467088   
    181. A(C  13,C  14,O  44)          120.3693         0.424365   
    182. A(C  14,N  15,H  62)          117.7891         0.354335   
    183. A(C  16,N  15,H  62)          120.0032         0.335938   
    184. A(C  14,N  15,C  16)          121.6094         0.404300   
    185. A(H  63,C  16,H  64)          106.3992         0.286925   
    186. A(C  17,C  16,H  64)          112.1172         0.322483   
    187. A(N  15,C  16,H  63)          111.2560         0.329015   
    188. A(C  17,C  16,H  63)          108.6705         0.320586   
    189. A(N  15,C  16,C  17)          111.3386         0.372134   
    190. A(N  15,C  16,H  64)          106.9675         0.330980   
    191. A(O  43,C  17,H  65)          103.7308         0.330257   
    192. A(C  18,C  17,H  65)          109.0770         0.318771   
    193. A(C  16,C  17,H  65)          109.0794         0.321863   
    194. A(C  16,C  17,C  18)          112.7228         0.358563   
    195. A(C  18,C  17,O  43)          112.4737         0.368280   
    196. A(C  16,C  17,O  43)          109.3333         0.372039   
    197. A(C  19,C  18,H  66)          107.6004         0.319686   
    198. A(C  17,C  18,H  66)          108.9204         0.318102   
    199. A(C  17,C  18,C  32)          111.2243         0.354375   
    200. A(C  17,C  18,C  19)          115.8350         0.356823   
    201. A(C  19,C  18,C  32)          107.3472         0.356211   
    202. A(C  32,C  18,H  66)          105.3493         0.317578   
    203. A(C  18,C  19,N  20)          116.6794         0.391268   
    204. A(N  20,C  19,O  31)          122.9564         0.466925   
    205. A(C  18,C  19,O  31)          120.3626         0.426174   
    206. A(C  19,N  20,H  67)          117.2904         0.355254   
    207. A(C  19,N  20,C  21)          122.3095         0.402391   
    208. A(C  21,N  20,H  67)          120.3944         0.335285   
    209. A(C  27,C  21,H  68)          110.5941         0.320690   
    210. A(C  22,C  21,H  68)          105.1792         0.319783   
    211. A(N  20,C  21,H  68)          108.0136         0.329044   
    212. A(N  20,C  21,C  22)          112.6599         0.367702   
    213. A(C  22,C  21,C  27)          111.7139         0.358003   
    214. A(N  20,C  21,C  27)          108.5933         0.368798   
    215. A(C  21,C  22,N  23)          114.4558         0.391985   
    216. A(C  21,C  22,O  26)          121.8418         0.424991   
    217. A(N  23,C  22,O  26)          123.6803         0.468923   
    218. A(C  22,N  23,C  24)          124.0534         0.406599   
    219. A(C  24,N  23,H  69)          114.9528         0.338406   
    220. A(C  22,N  23,H  69)          119.1246         0.358040   
    221. A(C  25,C  24,H  70)          109.3252         0.320002   
    222. A(N  23,C  24,H  70)          109.0821         0.330765   
    223. A(C   7,C  24,H  70)          111.4061         0.322946   
    224. A(N  23,C  24,C  25)          112.0183         0.370312   
    225. A(C   7,C  24,N  23)          105.7716         0.373898   
    226. A(C   7,C  24,C  25)          109.2187         0.361214   
    227. A(H  71,C  25,H  73)          109.0268         0.288475   
    228. A(C  24,C  25,H  73)          109.8198         0.320359   
    229. A(H  71,C  25,H  72)          108.8747         0.288362   
    230. A(C  24,C  25,H  72)          111.3718         0.320228   
    231. A(C  24,C  25,H  71)          108.7983         0.320745   
    232. A(H  72,C  25,H  73)          108.9119         0.288030   
    233. A(C  28,C  27,H  75)          108.6552         0.320324   
    234. A(C  21,C  27,C  28)          116.6874         0.359772   
    235. A(H  74,C  27,H  75)          106.5830         0.286087   
    236. A(C  21,C  27,H  75)          106.9517         0.319716   
    237. A(C  28,C  27,H  74)          109.1451         0.320305   
    238. A(C  21,C  27,H  74)          108.3587         0.319696   
    239. A(C  29,C  28,C  30)          111.0536         0.362176   
    240. A(C  27,C  28,C  30)          112.0293         0.361475   
    241. A(C  27,C  28,C  29)          109.2089         0.361185   
    242. A(C  30,C  28,H  76)          107.7155         0.321818   
    243. A(C  29,C  28,H  76)          108.6232         0.321570   
    244. A(C  27,C  28,H  76)          108.0996         0.320973   
    245. A(C  28,C  29,H  79)          110.9795         0.321338   
    246. A(H  78,C  29,H  79)          107.6183         0.287259   
    247. A(H  77,C  29,H  79)          107.7299         0.287073   
    248. A(H  77,C  29,H  78)          107.8590         0.287518   
    249. A(C  28,C  29,H  78)          110.9445         0.321859   
    250. A(C  28,C  29,H  77)          111.5406         0.321641   
    251. A(H  81,C  30,H  82)          107.6418         0.287188   
    252. A(H  80,C  30,H  82)          107.4281         0.287939   
    253. A(C  28,C  30,H  82)          110.5658         0.322080   
    254. A(H  80,C  30,H  81)          108.5639         0.287468   
    255. A(C  28,C  30,H  81)          111.0255         0.321529   
    256. A(C  28,C  30,H  80)          111.4627         0.322410   
    257. A(C  33,C  32,O  42)          121.8859         0.436196   
    258. A(C  18,C  32,O  42)          119.7177         0.426997   
    259. A(C  18,C  32,C  33)          118.2697         0.360975   
    260. A(C  32,C  33,C  34)          110.5225         0.363571   
    261. A(C  34,C  33,H  84)          110.2786         0.320618   
    262. A(H  83,C  33,H  84)          108.5939         0.287878   
    263. A(C  32,C  33,H  84)          107.1170         0.324673   
    264. A(C  34,C  33,H  83)          109.3372         0.320702   
    265. A(C  32,C  33,H  83)          110.9530         0.324758   
    266. A(C  33,C  34,C  35)          114.3653         0.361209   
    267. A(H  85,C  34,H  86)          106.1349         0.287779   
    268. A(C  35,C  34,H  86)          106.8778         0.322697   
    269. A(C  33,C  34,H  86)          109.0699         0.320669   
    270. A(C  35,C  34,H  85)          109.9430         0.322562   
    271. A(C  33,C  34,H  85)          110.0757         0.320536   
    272. A(C  34,C  35,C  36)          110.2806         0.363356   
    273. A(H  87,C  35,H  88)          106.8084         0.286555   
    274. A(C  36,C  35,H  88)          110.8180         0.321759   
    275. A(C  34,C  35,H  88)          110.4665         0.321959   
    276. A(C  36,C  35,H  87)          108.9073         0.321661   
    277. A(C  34,C  35,H  87)          109.4778         0.321861   
    278. A(C  35,C  36,C  37)          115.1407         0.363403   
    279. A(H  89,C  36,H  90)          105.5483         0.286148   
    280. A(C  37,C  36,H  90)          108.6595         0.321396   
    281. A(C  35,C  36,H  90)          107.0527         0.321156   
    282. A(C  37,C  36,H  89)          110.2147         0.322024   
    283. A(C  35,C  36,H  89)          109.7347         0.321784   
    284. A(C  36,C  37,C  38)          112.4398         0.363386   
    285. A(H  91,C  37,H  92)          105.3553         0.286100   
    286. A(C  38,C  37,H  92)          110.0987         0.321727   
    287. A(C  36,C  37,H  92)          110.2426         0.321981   
    288. A(C  38,C  37,H  91)          108.9374         0.321127   
    289. A(C  36,C  37,H  91)          109.5131         0.321381   
    290. A(C  37,C  38,C  39)          114.3911         0.363485   
    291. A(H  93,C  38,H  94)          105.6942         0.285895   
    292. A(C  39,C  38,H  94)          108.2836         0.321476   
    293. A(C  37,C  38,H  94)          108.8128         0.321138   
    294. A(C  39,C  38,H  93)          109.7386         0.321814   
    295. A(C  37,C  38,H  93)          109.5475         0.321475   
    296. A(C  38,C  39,C  40)          113.1495         0.363454   
    297. A(H  95,C  39,H  96)          105.8395         0.286104   
    298. A(C  40,C  39,H  96)          109.8559         0.321479   
    299. A(C  38,C  39,H  96)          109.7511         0.321844   
    300. A(C  40,C  39,H  95)          109.0241         0.321327   
    301. A(C  38,C  39,H  95)          108.9526         0.321692   
    302. A(C  39,C  40,C  41)          113.1001         0.363330   
    303. A(H  97,C  40,H  98)          106.0930         0.286409   
    304. A(C  41,C  40,H  98)          109.7470         0.321865   
    305. A(C  39,C  40,H  98)          108.8004         0.321606   
    306. A(C  41,C  40,H  97)          109.6651         0.321820   
    307. A(C  39,C  40,H  97)          109.1909         0.321560   
    308. A(H 100,C  41,H 101)          107.4556         0.287239   
    309. A(H  99,C  41,H 101)          107.6113         0.287486   
    310. A(C  40,C  41,H 101)          111.0140         0.322310   
    311. A(H  99,C  41,H 100)          107.7314         0.287522   
    312. A(C  40,C  41,H 100)          111.2484         0.322352   
    313. A(C  40,C  41,H  99)          111.5872         0.322643   
    314. A(C  17,O  43,H 102)          107.4425         0.346946   
    315. A(C  13,C  45,C  46)          112.1178         0.361536   
    316. A(C  46,C  45,H 104)          110.3921         0.322305   
    317. A(C  13,C  45,H 104)          107.3630         0.320332   
    318. A(C  46,C  45,H 103)          110.6196         0.323042   
    319. A(C  13,C  45,H 103)          109.4044         0.321062   
    320. A(H 103,C  45,H 104)          106.7495         0.287657   
    321. A(H 106,C  46,H 107)          107.3021         0.287706   
    322. A(H 105,C  46,H 107)          108.0384         0.287807   
    323. A(C  45,C  46,H 107)          111.5453         0.322621   
    324. A(H 105,C  46,H 106)          107.8522         0.287945   
    325. A(C  45,C  46,H 106)          111.5048         0.322783   
    326. A(C  45,C  46,H 105)          110.4323         0.322902   
    327. A(C  50,C  48,H 108)          108.3003         0.321309   
    328. A(C  49,C  48,H 108)          109.0151         0.321507   
    329. A(C  10,C  48,H 108)          107.1994         0.318721   
    330. A(C  49,C  48,C  50)          110.6908         0.362106   
    331. A(C  10,C  48,C  50)          109.6977         0.358834   
    332. A(C  10,C  48,C  49)          111.8103         0.359064   
    333. A(H 110,C  49,H 111)          108.0607         0.287682   
    334. A(H 109,C  49,H 111)          107.9803         0.287724   
    335. A(C  48,C  49,H 111)          111.2689         0.321952   
    336. A(H 109,C  49,H 110)          107.6208         0.287873   
    337. A(C  48,C  49,H 110)          109.8248         0.322127   
    338. A(C  48,C  49,H 109)          111.9343         0.322176   
    339. A(H 113,C  50,H 114)          107.6735         0.287362   
    340. A(H 112,C  50,H 114)          107.9638         0.288200   
    341. A(C  48,C  50,H 114)          110.4891         0.321904   
    342. A(H 112,C  50,H 113)          108.7881         0.287771   
    343. A(C  48,C  50,H 113)          110.4289         0.321403   
    344. A(C  48,C  50,H 112)          111.3828         0.322385   
    345. D(H  51,C   2,C   1,N   9)    -58.3098         0.008943   
    346. D(C   3,C   2,C   1,N   9)    176.0639         0.008943   
    347. D(N   6,C   2,C   1,N   9)     60.5197         0.008943   
    348. D(N   6,C   2,C   1,O   0)   -120.8014         0.008943   
    349. D(C   3,C   2,C   1,O   0)     -5.2572         0.008943   
    350. D(H  51,C   2,C   1,O   0)    120.3691         0.008943   
    351. D(C   4,C   3,C   2,N   6)     33.4358         0.011495   
    352. D(H  53,C   3,C   2,H  51)    -89.2821         0.011495   
    353. D(H  53,C   3,C   2,C   1)     33.1732         0.011495   
    354. D(C   4,C   3,C   2,H  51)    149.9913         0.011495   
    355. D(H  53,C   3,C   2,N   6)    154.1624         0.011495   
    356. D(H  52,C   3,C   2,H  51)     31.5678         0.011495   
    357. D(C   4,C   3,C   2,C   1)    -87.5534         0.011495   
    358. D(H  52,C   3,C   2,C   1)    154.0231         0.011495   
    359. D(H  52,C   3,C   2,N   6)    -84.9877         0.011495   
    360. D(H  55,C   4,C   3,H  53)     79.9060         0.010741   
    361. D(H  55,C   4,C   3,H  52)    -43.1517         0.010741   
    362. D(H  54,C   4,C   3,H  52)   -164.0717         0.010741   
    363. D(H  55,C   4,C   3,C   2)   -160.6371         0.010741   
    364. D(H  54,C   4,C   3,H  53)    -41.0139         0.010741   
    365. D(C   5,C   4,C   3,C   2)    -39.0857         0.010741   
    366. D(H  54,C   4,C   3,C   2)     78.4430         0.010741   
    367. D(C   5,C   4,C   3,H  53)   -158.5426         0.010741   
    368. D(C   5,C   4,C   3,H  52)     78.3996         0.010741   
    369. D(N   6,C   5,C   4,C   3)     29.0241         0.010898   
    370. D(H  57,C   5,C   4,C   3)    -89.0883         0.010898   
    371. D(H  56,C   5,C   4,H  55)    -88.6976         0.010898   
    372. D(H  56,C   5,C   4,C   3)    148.7249         0.010898   
    373. D(H  57,C   5,C   4,H  54)    154.0405         0.010898   
    374. D(H  56,C   5,C   4,H  54)     31.8536         0.010898   
    375. D(H  57,C   5,C   4,H  55)     33.4892         0.010898   
    376. D(N   6,C   5,C   4,H  54)    -87.8472         0.010898   
    377. D(N   6,C   5,C   4,H  55)    151.6016         0.010898   
    378. D(C   5,N   6,C   2,C   3)    -15.9635         0.013419   
    379. D(C   7,N   6,C   5,H  57)    -61.8163         0.013872   
    380. D(C   7,N   6,C   5,H  56)     57.8835         0.013872   
    381. D(C   7,N   6,C   5,C   4)    179.1071         0.013872   
    382. D(C   2,N   6,C   5,H  57)    110.8374         0.013872   
    383. D(C   2,N   6,C   5,H  56)   -129.4629         0.013872   
    384. D(C   7,N   6,C   2,H  51)     36.5723         0.013419   
    385. D(C   2,N   6,C   5,C   4)     -8.2393         0.013872   
    386. D(C   7,N   6,C   2,C   3)    157.0550         0.013419   
    387. D(C   5,N   6,C   2,C   1)    104.7386         0.013419   
    388. D(C   7,N   6,C   2,C   1)    -82.2430         0.013419   
    389. D(C   5,N   6,C   2,H  51)   -136.4462         0.013419   
    390. D(C  24,C   7,N   6,C   5)      4.0556         0.035175   
    391. D(C  24,C   7,N   6,C   2)   -167.9024         0.035175   
    392. D(O   8,C   7,N   6,C   5)   -178.3941         0.035175   
    393. D(O   8,C   7,N   6,C   2)      9.6479         0.035175   
    394. D(H  58,N   9,C   1,O   0)    177.6287         0.031995   
    395. D(C  10,N   9,C   1,C   2)   -170.9445         0.031995   
    396. D(H  58,N   9,C   1,C   2)     -3.7269         0.031995   
    397. D(C  10,N   9,C   1,O   0)     10.4111         0.031995   
    398. D(H  59,C  10,N   9,C   1)    -24.0769         0.016458   
    399. D(C  48,C  10,N   9,H  58)    -71.4488         0.016458   
    400. D(C  48,C  10,N   9,C   1)     95.3417         0.016458   
    401. D(C  11,C  10,N   9,C   1)   -140.5722         0.016458   
    402. D(H  59,C  10,N   9,H  58)    169.1326         0.016458   
    403. D(C  11,C  10,N   9,H  58)     52.6374         0.016458   
    404. D(O  47,C  11,C  10,N   9)   -126.6885         0.009331   
    405. D(N  12,C  11,C  10,H  59)    -62.8142         0.009331   
    406. D(N  12,C  11,C  10,C  48)    177.0476         0.009331   
    407. D(N  12,C  11,C  10,N   9)     51.6880         0.009331   
    408. D(O  47,C  11,C  10,H  59)    118.8093         0.009331   
    409. D(O  47,C  11,C  10,C  48)     -1.3289         0.009331   
    410. D(H  60,N  12,C  11,O  47)    170.4138         0.032365   
    411. D(H  60,N  12,C  11,C  10)     -7.9391         0.032365   
    412. D(C  13,N  12,C  11,O  47)      1.0907         0.032365   
    413. D(C  13,N  12,C  11,C  10)   -177.2622         0.032365   
    414. D(H  61,C  13,N  12,C  11)   -174.9148         0.014822   
    415. D(H  61,C  13,N  12,H  60)     15.8007         0.014822   
    416. D(C  45,C  13,N  12,H  60)    134.0213         0.014822   
    417. D(C  45,C  13,N  12,C  11)    -56.6942         0.014822   
    418. D(C  14,C  13,N  12,C  11)     72.6126         0.014822   
    419. D(C  14,C  13,N  12,H  60)    -96.6719         0.014822   
    420. D(O  44,C  14,C  13,C  45)   -106.0898         0.009281   
    421. D(O  44,C  14,C  13,N  12)    124.4949         0.009281   
    422. D(N  15,C  14,C  13,H  61)   -169.8207         0.009281   
    423. D(N  15,C  14,C  13,C  45)     73.2985         0.009281   
    424. D(O  44,C  14,C  13,H  61)     10.7909         0.009281   
    425. D(N  15,C  14,C  13,N  12)    -56.1167         0.009281   
    426. D(H  62,N  15,C  14,O  44)    179.9182         0.030857   
    427. D(H  62,N  15,C  14,C  13)      0.5563         0.030857   
    428. D(C  16,N  15,C  14,O  44)     -8.9546         0.030857   
    429. D(C  16,N  15,C  14,C  13)    171.6835         0.030857   
    430. D(H  64,C  16,N  15,H  62)    167.7402         0.017238   
    431. D(H  64,C  16,N  15,C  14)     -3.1941         0.017238   
    432. D(H  63,C  16,N  15,H  62)    -76.4483         0.017238   
    433. D(H  63,C  16,N  15,C  14)    112.6174         0.017238   
    434. D(C  17,C  16,N  15,C  14)   -126.0006         0.017238   
    435. D(C  17,C  16,N  15,H  62)     44.9337         0.017238   
    436. D(H  65,C  17,C  16,H  64)    -79.1034         0.010949   
    437. D(H  65,C  17,C  16,H  63)    163.5733         0.010949   
    438. D(H  65,C  17,C  16,N  15)     40.6957         0.010949   
    439. D(O  43,C  17,C  16,H  64)    168.0964         0.010949   
    440. D(O  43,C  17,C  16,H  63)     50.7732         0.010949   
    441. D(O  43,C  17,C  16,N  15)    -72.1045         0.010949   
    442. D(C  18,C  17,C  16,H  64)     42.2143         0.010949   
    443. D(C  18,C  17,C  16,H  63)    -75.1089         0.010949   
    444. D(C  18,C  17,C  16,N  15)    162.0135         0.010949   
    445. D(H  66,C  18,C  17,H  65)   -177.0418         0.009811   
    446. D(H  66,C  18,C  17,O  43)    -62.5314         0.009811   
    447. D(H  66,C  18,C  17,C  16)     61.6391         0.009811   
    448. D(C  32,C  18,C  17,O  43)   -178.2088         0.009811   
    449. D(C  32,C  18,C  17,C  16)    -54.0383         0.009811   
    450. D(C  32,C  18,C  17,H  65)     67.2808         0.009811   
    451. D(C  19,C  18,C  17,H  65)    -55.6354         0.009811   
    452. D(C  19,C  18,C  17,O  43)     58.8750         0.009811   
    453. D(C  19,C  18,C  17,C  16)   -176.9545         0.009811   
    454. D(O  31,C  19,C  18,H  66)    -88.8290         0.009728   
    455. D(O  31,C  19,C  18,C  32)     24.1272         0.009728   
    456. D(O  31,C  19,C  18,C  17)    149.0610         0.009728   
    457. D(N  20,C  19,C  18,H  66)     91.6136         0.009728   
    458. D(N  20,C  19,C  18,C  17)    -30.4964         0.009728   
    459. D(N  20,C  19,C  18,C  32)   -155.4302         0.009728   
    460. D(H  67,N  20,C  19,O  31)    178.4989         0.030861   
    461. D(H  67,N  20,C  19,C  18)     -1.9562         0.030861   
    462. D(C  21,N  20,C  19,O  31)     -2.3684         0.030861   
    463. D(C  21,N  20,C  19,C  18)    177.1765         0.030861   
    464. D(H  68,C  21,N  20,H  67)   -142.8011         0.016328   
    465. D(H  68,C  21,N  20,C  19)     38.0925         0.016328   
    466. D(C  27,C  21,N  20,H  67)    -22.8251         0.016328   
    467. D(C  27,C  21,N  20,C  19)    158.0685         0.016328   
    468. D(C  22,C  21,N  20,H  67)    101.4692         0.016328   
    469. D(C  22,C  21,N  20,C  19)    -77.6372         0.016328   
    470. D(N  23,C  22,C  21,C  27)    107.8581         0.009479   
    471. D(N  23,C  22,C  21,N  20)    -14.7008         0.009479   
    472. D(O  26,C  22,C  21,H  68)     49.5333         0.009479   
    473. D(O  26,C  22,C  21,C  27)    -70.4891         0.009479   
    474. D(O  26,C  22,C  21,N  20)    166.9520         0.009479   
    475. D(N  23,C  22,C  21,H  68)   -132.1195         0.009479   
    476. D(H  69,N  23,C  22,O  26)   -172.2360         0.032548   
    477. D(H  69,N  23,C  22,C  21)      9.4514         0.032548   
    478. D(C  24,N  23,C  22,O  26)     -8.6088         0.032548   
    479. D(C  24,N  23,C  22,C  21)    173.0785         0.032548   
    480. D(H  70,C  24,N  23,H  69)   -140.2369         0.017498   
    481. D(H  70,C  24,N  23,C  22)     55.5225         0.017498   
    482. D(C  25,C  24,N  23,H  69)     98.5908         0.017498   
    483. D(C  25,C  24,N  23,C  22)    -65.6498         0.017498   
    484. D(C   7,C  24,N  23,H  69)    -20.3025         0.017498   
    485. D(C   7,C  24,N  23,C  22)    175.4569         0.017498   
    486. D(H  70,C  24,C   7,O   8)    147.0927         0.010648   
    487. D(H  70,C  24,C   7,N   6)    -35.2857         0.010648   
    488. D(C  25,C  24,C   7,O   8)    -92.0376         0.010648   
    489. D(C  25,C  24,C   7,N   6)     85.5839         0.010648   
    490. D(N  23,C  24,C   7,O   8)     28.6941         0.010648   
    491. D(N  23,C  24,C   7,N   6)   -153.6843         0.010648   
    492. D(H  73,C  25,C  24,H  70)    179.8609         0.010240   
    493. D(H  73,C  25,C  24,N  23)    -59.1071         0.010240   
    494. D(H  73,C  25,C  24,C   7)     57.7306         0.010240   
    495. D(H  72,C  25,C  24,H  70)     59.1303         0.010240   
    496. D(H  72,C  25,C  24,N  23)   -179.8378         0.010240   
    497. D(H  72,C  25,C  24,C   7)    -63.0001         0.010240   
    498. D(H  71,C  25,C  24,H  70)    -60.8809         0.010240   
    499. D(H  71,C  25,C  24,N  23)     60.1511         0.010240   
    500. D(H  71,C  25,C  24,C   7)    176.9888         0.010240   
    501. D(H  75,C  27,C  21,H  68)     64.9712         0.010440   
    502. D(H  75,C  27,C  21,C  22)   -178.2392         0.010440   
    503. D(H  75,C  27,C  21,N  20)    -53.3850         0.010440   
    504. D(H  74,C  27,C  21,H  68)    179.5233         0.010440   
    505. D(H  74,C  27,C  21,C  22)    -63.6870         0.010440   
    506. D(H  74,C  27,C  21,N  20)     61.1671         0.010440   
    507. D(C  28,C  27,C  21,H  68)    -56.8649         0.010440   
    508. D(C  28,C  27,C  21,C  22)     59.9248         0.010440   
    509. D(C  28,C  27,C  21,N  20)   -175.2211         0.010440   
    510. D(H  76,C  28,C  27,H  75)    178.8711         0.010669   
    511. D(H  76,C  28,C  27,H  74)     63.0176         0.010669   
    512. D(H  76,C  28,C  27,C  21)    -60.1895         0.010669   
    513. D(C  30,C  28,C  27,H  75)    -62.6006         0.010669   
    514. D(C  30,C  28,C  27,H  74)   -178.4541         0.010669   
    515. D(C  30,C  28,C  27,C  21)     58.3388         0.010669   
    516. D(C  29,C  28,C  27,H  75)     60.8595         0.010669   
    517. D(C  29,C  28,C  27,H  74)    -54.9940         0.010669   
    518. D(C  29,C  28,C  27,C  21)   -178.2011         0.010669   
    519. D(H  79,C  29,C  28,C  30)     61.0537         0.010898   
    520. D(H  79,C  29,C  28,C  27)    -62.9830         0.010898   
    521. D(H  78,C  29,C  28,H  76)     59.7395         0.010898   
    522. D(H  78,C  29,C  28,C  30)    -58.5413         0.010898   
    523. D(H  78,C  29,C  28,C  27)    177.4220         0.010898   
    524. D(H  77,C  29,C  28,H  76)    -60.5330         0.010898   
    525. D(H  77,C  29,C  28,C  30)   -178.8138         0.010898   
    526. D(H  79,C  29,C  28,H  76)    179.3344         0.010898   
    527. D(H  77,C  29,C  28,C  27)     57.1496         0.010898   
    528. D(H  82,C  30,C  28,H  76)    -65.6047         0.010995   
    529. D(H  82,C  30,C  28,C  29)     53.2235         0.010995   
    530. D(H  82,C  30,C  28,C  27)    175.6398         0.010995   
    531. D(H  81,C  30,C  28,H  76)    174.9891         0.010995   
    532. D(H  81,C  30,C  28,C  29)    -66.1827         0.010995   
    533. D(H  81,C  30,C  28,C  27)     56.2336         0.010995   
    534. D(H  80,C  30,C  28,H  76)     53.8175         0.010995   
    535. D(H  80,C  30,C  28,C  29)    172.6457         0.010995   
    536. D(H  80,C  30,C  28,C  27)    -64.9380         0.010995   
    537. D(O  42,C  32,C  18,H  66)     -7.1663         0.009035   
    538. D(O  42,C  32,C  18,C  19)   -121.6382         0.009035   
    539. D(O  42,C  32,C  18,C  17)    110.6941         0.009035   
    540. D(C  33,C  32,C  18,H  66)    176.8475         0.009035   
    541. D(C  33,C  32,C  18,C  19)     62.3756         0.009035   
    542. D(C  33,C  32,C  18,C  17)    -65.2921         0.009035   
    543. D(H  84,C  33,C  32,O  42)     36.0450         0.011253   
    544. D(H  84,C  33,C  32,C  18)   -148.0605         0.011253   
    545. D(H  83,C  33,C  32,O  42)    154.4165         0.011253   
    546. D(H  83,C  33,C  32,C  18)    -29.6890         0.011253   
    547. D(C  34,C  33,C  32,O  42)    -84.1210         0.011253   
    548. D(C  34,C  33,C  32,C  18)     91.7735         0.011253   
    549. D(H  86,C  34,C  33,H  84)    176.8903         0.010406   
    550. D(H  86,C  34,C  33,H  83)     57.5555         0.010406   
    551. D(H  86,C  34,C  33,C  32)    -64.8579         0.010406   
    552. D(H  85,C  34,C  33,H  84)    -67.0443         0.010406   
    553. D(H  85,C  34,C  33,H  83)    173.6209         0.010406   
    554. D(H  85,C  34,C  33,C  32)     51.2075         0.010406   
    555. D(C  35,C  34,C  33,H  84)     57.3006         0.010406   
    556. D(C  35,C  34,C  33,H  83)    -62.0342         0.010406   
    557. D(C  35,C  34,C  33,C  32)    175.5524         0.010406   
    558. D(H  88,C  35,C  34,H  86)    163.5586         0.011184   
    559. D(H  88,C  35,C  34,H  85)     48.7858         0.011184   
    560. D(H  88,C  35,C  34,C  33)    -75.6298         0.011184   
    561. D(H  87,C  35,C  34,H  86)    -79.0935         0.011184   
    562. D(H  87,C  35,C  34,H  85)    166.1337         0.011184   
    563. D(H  87,C  35,C  34,C  33)     41.7181         0.011184   
    564. D(C  36,C  35,C  34,H  86)     40.7161         0.011184   
    565. D(C  36,C  35,C  34,H  85)    -74.0567         0.011184   
    566. D(C  36,C  35,C  34,C  33)    161.5277         0.011184   
    567. D(H  90,C  36,C  35,H  87)     61.2601         0.011105   
    568. D(H  90,C  36,C  35,C  34)    -58.8937         0.011105   
    569. D(H  89,C  36,C  35,H  88)    -67.4567         0.011105   
    570. D(H  89,C  36,C  35,H  87)    175.3336         0.011105   
    571. D(H  89,C  36,C  35,C  34)     55.1798         0.011105   
    572. D(C  37,C  36,C  35,H  88)     57.5639         0.011105   
    573. D(C  37,C  36,C  35,H  87)    -59.6458         0.011105   
    574. D(H  90,C  36,C  35,H  88)    178.4698         0.011105   
    575. D(C  37,C  36,C  35,C  34)   -179.7996         0.011105   
    576. D(H  92,C  37,C  36,H  90)    167.1504         0.011200   
    577. D(H  92,C  37,C  36,H  89)     51.9467         0.011200   
    578. D(H  92,C  37,C  36,C  35)    -72.8238         0.011200   
    579. D(H  91,C  37,C  36,H  90)    -77.3746         0.011200   
    580. D(H  91,C  37,C  36,H  89)    167.4217         0.011200   
    581. D(H  91,C  37,C  36,C  35)     42.6513         0.011200   
    582. D(C  38,C  37,C  36,H  90)     43.8819         0.011200   
    583. D(C  38,C  37,C  36,H  89)    -71.3218         0.011200   
    584. D(C  38,C  37,C  36,C  35)    163.9077         0.011200   
    585. D(H  94,C  38,C  37,H  92)   -175.1663         0.011099   
    586. D(H  94,C  38,C  37,H  91)     69.7676         0.011099   
    587. D(H  94,C  38,C  37,C  36)    -51.8174         0.011099   
    588. D(H  93,C  38,C  37,H  92)    -60.0660         0.011099   
    589. D(H  93,C  38,C  37,H  91)   -175.1320         0.011099   
    590. D(H  93,C  38,C  37,C  36)     63.2830         0.011099   
    591. D(C  39,C  38,C  37,H  92)     63.6101         0.011099   
    592. D(C  39,C  38,C  37,H  91)    -51.4559         0.011099   
    593. D(C  39,C  38,C  37,C  36)   -173.0410         0.011099   
    594. D(H  95,C  39,C  38,H  94)    -70.5535         0.011234   
    595. D(H  95,C  39,C  38,H  93)    174.5348         0.011234   
    596. D(H  95,C  39,C  38,C  37)     50.9613         0.011234   
    597. D(C  40,C  39,C  38,H  94)     50.8898         0.011234   
    598. D(C  40,C  39,C  38,H  93)    -64.0219         0.011234   
    599. D(C  40,C  39,C  38,C  37)    172.4046         0.011234   
    600. D(H  96,C  39,C  38,H  94)    173.9835         0.011234   
    601. D(H  96,C  39,C  38,H  93)     59.0718         0.011234   
    602. D(H  96,C  39,C  38,C  37)    -64.5018         0.011234   
    603. D(H  98,C  40,C  39,H  95)     64.9482         0.011088   
    604. D(H  98,C  40,C  39,C  38)    -56.4548         0.011088   
    605. D(H  97,C  40,C  39,H  96)    -64.1155         0.011088   
    606. D(H  97,C  40,C  39,H  95)   -179.6768         0.011088   
    607. D(H  97,C  40,C  39,C  38)     58.9202         0.011088   
    608. D(C  41,C  40,C  39,H  96)     58.2856         0.011088   
    609. D(C  41,C  40,C  39,H  95)    -57.2757         0.011088   
    610. D(H  98,C  40,C  39,H  96)   -179.4905         0.011088   
    611. D(C  41,C  40,C  39,C  38)   -178.6787         0.011088   
    612. D(H 101,C  41,C  40,H  98)    -62.1163         0.011192   
    613. D(H 101,C  41,C  40,H  97)   -178.2868         0.011192   
    614. D(H 101,C  41,C  40,C  39)     59.5769         0.011192   
    615. D(H 100,C  41,C  40,H  98)    178.2700         0.011192   
    616. D(H 100,C  41,C  40,H  97)     62.0995         0.011192   
    617. D(H 100,C  41,C  40,C  39)    -60.0368         0.011192   
    618. D(H  99,C  41,C  40,H  98)     57.9205         0.011192   
    619. D(H  99,C  41,C  40,H  97)    -58.2500         0.011192   
    620. D(H  99,C  41,C  40,C  39)    179.6138         0.011192   
    621. D(H 102,O  43,C  17,H  65)   -170.3482         0.015867   
    622. D(H 102,O  43,C  17,C  18)     71.9296         0.015867   
    623. D(H 102,O  43,C  17,C  16)    -54.0954         0.015867   
    624. D(H 104,C  45,C  13,H  61)     63.5484         0.010467   
    625. D(H 104,C  45,C  13,C  14)    177.5077         0.010467   
    626. D(H 104,C  45,C  13,N  12)    -53.0049         0.010467   
    627. D(H 103,C  45,C  13,H  61)    179.0329         0.010467   
    628. D(H 103,C  45,C  13,C  14)    -67.0078         0.010467   
    629. D(H 103,C  45,C  13,N  12)     62.4796         0.010467   
    630. D(C  46,C  45,C  13,H  61)    -57.8614         0.010467   
    631. D(C  46,C  45,C  13,C  14)     56.0980         0.010467   
    632. D(C  46,C  45,C  13,N  12)   -174.4146         0.010467   
    633. D(H 107,C  46,C  45,H 104)    -61.6236         0.011230   
    634. D(H 107,C  46,C  45,H 103)   -179.5524         0.011230   
    635. D(H 107,C  46,C  45,C  13)     58.0296         0.011230   
    636. D(H 106,C  46,C  45,H 104)    178.4267         0.011230   
    637. D(H 106,C  46,C  45,H 103)     60.4979         0.011230   
    638. D(H 106,C  46,C  45,C  13)    -61.9200         0.011230   
    639. D(H 105,C  46,C  45,H 104)     58.5322         0.011230   
    640. D(H 105,C  46,C  45,H 103)    -59.3966         0.011230   
    641. D(H 105,C  46,C  45,C  13)    178.1855         0.011230   
    642. D(H 108,C  48,C  10,H  59)   -163.7062         0.009938   
    643. D(H 108,C  48,C  10,C  11)    -43.4301         0.009938   
    644. D(H 108,C  48,C  10,N   9)     78.4700         0.009938   
    645. D(C  50,C  48,C  10,H  59)    -46.3229         0.009938   
    646. D(C  50,C  48,C  10,C  11)     73.9532         0.009938   
    647. D(C  50,C  48,C  10,N   9)   -164.1466         0.009938   
    648. D(C  49,C  48,C  10,H  59)     76.8718         0.009938   
    649. D(C  49,C  48,C  10,C  11)   -162.8520         0.009938   
    650. D(C  49,C  48,C  10,N   9)    -40.9519         0.009938   
    651. D(H 111,C  49,C  48,C  50)     64.1423         0.010974   
    652. D(H 111,C  49,C  48,C  10)    -58.4881         0.010974   
    653. D(H 110,C  49,C  48,H 108)     63.5641         0.010974   
    654. D(H 110,C  49,C  48,C  50)    -55.4600         0.010974   
    655. D(H 110,C  49,C  48,C  10)   -178.0903         0.010974   
    656. D(H 109,C  49,C  48,H 108)    -55.9128         0.010974   
    657. D(H 109,C  49,C  48,C  50)   -174.9369         0.010974   
    658. D(H 111,C  49,C  48,H 108)   -176.8337         0.010974   
    659. D(H 109,C  49,C  48,C  10)     62.4328         0.010974   
    660. D(H 114,C  50,C  48,H 108)    -60.3987         0.010896   
    661. D(H 114,C  50,C  48,C  49)     59.0565         0.010896   
    662. D(H 114,C  50,C  48,C  10)   -177.0916         0.010896   
    663. D(H 113,C  50,C  48,H 108)   -179.4129         0.010896   
    664. D(H 113,C  50,C  48,C  49)    -59.9576         0.010896   
    665. D(H 113,C  50,C  48,C  10)     63.8943         0.010896   
    666. D(H 112,C  50,C  48,H 108)     59.5942         0.010896   
    667. D(H 112,C  50,C  48,C  49)    179.0495         0.010896   
    668. D(H 112,C  50,C  48,C  10)    -57.0986         0.010896   
    -----------------------------------------------------------------

Number of atoms                         .... 115
Number of degrees of freedom            .... 668

         *************************************************************
         *                GEOMETRY OPTIMIZATION CYCLE   1            *
         *************************************************************
---------------------------------
CARTESIAN COORDINATES (ANGSTROEM)
---------------------------------
  O      4.099519   -1.320894   -2.249413
  C      3.162786   -0.676423   -1.778687
  C      2.655836    0.646432   -2.414798
  C      3.532249    1.088939   -3.582408
  C      4.626166    1.919282   -2.896009
  C      3.868461    2.688115   -1.807168
  N      2.739312    1.791954   -1.475273
  C      1.788682    2.021848   -0.549443
  O      0.880187    1.193612   -0.309733
  N      2.444768   -1.040388   -0.684226
  C      2.833083   -2.129982    0.199818
  C      1.545521   -2.885346    0.604040
  N      0.768725   -3.259050   -0.444232
  C     -0.533528   -3.936908   -0.367324
  C     -1.670506   -3.008916    0.122977
  N     -1.457040   -2.408269    1.327953
  C     -2.345607   -1.379942    1.832321
  C     -1.574225   -0.107945    2.200692
  C     -2.490372    1.135434    2.314393
  C     -1.778486    2.468940    2.610397
  N     -0.633227    2.401121    3.346632
  C      0.170315    3.578736    3.647003
  C      1.037417    4.028190    2.450895
  N      1.151890    3.106281    1.462467
  C      1.791798    3.358666    0.188735
  C      1.023524    4.402233   -0.647611
  O      1.597113    5.125642    2.429816
  C      1.026307    3.284327    4.892233
  C      1.866425    4.446882    5.442623
  C      2.679698    3.956025    6.646123
  C      1.000910    5.653686    5.818592
  O     -2.238805    3.528644    2.183393
  C     -3.328867    1.335080    1.024490
  C     -2.597475    1.667022   -0.264888
  C     -2.257901    0.380178   -1.039606
  C     -1.613820    0.617853   -2.406340
  C     -0.908586   -0.652037   -2.888499
  C     -0.219343   -0.535859   -4.248685
  C      0.778376   -1.669730   -4.496831
  C      1.614316   -1.508503   -5.766687
  C      2.725184   -2.554066   -5.892658
  C      3.580903   -2.372215   -7.147116
  O     -4.532445    1.151815    1.052449
  O     -0.807917   -0.344150    3.408807
  O     -2.687926   -2.859801   -0.554145
  C     -0.472687   -5.262784    0.411894
  C     -1.800496   -6.019252    0.365405
  O      1.246228   -3.095904    1.786978
  C      3.635000   -1.668905    1.439445
  C      4.656704   -0.583435    1.085064
  C      4.327727   -2.874969    2.084729
  H      1.600862    0.507930   -2.685842
  H      2.943747    1.705458   -4.277174
  H      3.933594    0.222493   -4.118610
  H      5.363036    1.243218   -2.440782
  H      5.154695    2.594116   -3.579987
  H      4.481466    2.885351   -0.917641
  H      3.487493    3.649193   -2.185692
  H      1.711026   -0.378779   -0.383945
  H      3.467947   -2.800060   -0.404529
  H      1.042532   -2.900896   -1.355896
  H     -0.812266   -4.158116   -1.406199
  H     -0.570303   -2.603746    1.810710
  H     -2.898576   -1.729906    2.724785
  H     -3.097059   -1.196579    1.054615
  H     -0.805592    0.080460    1.436588
  H     -3.227041    0.964826    3.118190
  H     -0.341756    1.476683    3.677598
  H     -0.513978    4.417567    3.837714
  H      0.567520    2.272708    1.492016
  H      2.816524    3.717058    0.365872
  H      0.983476    5.343588   -0.087570
  H      1.516508    4.583495   -1.612705
  H     -0.000577    4.051213   -0.831461
  H      1.691708    2.433079    4.663603
  H      0.336462    2.941474    5.683434
  H      2.564343    4.767855    4.654025
  H      3.320480    3.101905    6.379531
  H      3.327235    4.754873    7.035032
  H      2.016716    3.635200    7.465987
  H      0.516056    6.090860    4.935937
  H      0.220264    5.370066    6.543465
  H      1.614737    6.440294    6.280631
  H     -1.672349    2.223060   -0.059848
  H     -3.265266    2.305247   -0.860508
  H     -3.157981   -0.241248   -1.152148
  H     -1.546789   -0.216064   -0.451161
  H     -0.872050    1.430531   -2.327088
  H     -2.370834    0.947272   -3.137261
  H     -1.620050   -1.494262   -2.892635
  H     -0.148669   -0.909704   -2.127676
  H      0.313454    0.431136   -4.311399
  H     -0.970231   -0.508417   -5.055807
  H      0.242116   -2.634419   -4.523421
  H      1.466992   -1.733978   -3.634021
  H      2.066154   -0.500489   -5.773211
  H      0.957897   -1.550192   -6.653217
  H      2.276279   -3.562092   -5.892283
  H      3.364383   -2.503621   -4.994887
  H      4.373933   -3.130852   -7.209182
  H      2.971321   -2.448990   -8.060402
  H      4.064626   -1.383276   -7.155098
  H     -1.427041   -0.669495    4.088871
  H     -0.178095   -5.062421    1.450129
  H      0.330695   -5.869828   -0.034504
  H     -1.716760   -6.974161    0.901664
  H     -2.610240   -5.440817    0.831789
  H     -2.106376   -6.235100   -0.668743
  H      2.910815   -1.258339    2.161882
  H      4.173202    0.326390    0.703289
  H      5.230183   -0.304826    1.980257
  H      5.365839   -0.936789    0.322096
  H      3.604256   -3.652383    2.358439
  H      5.069136   -3.307545    1.394048
  H      4.859552   -2.570425    2.997174

----------------------------
CARTESIAN COORDINATES (A.U.)
----------------------------
  NO LB      ZA    FRAG     MASS         X           Y           Z
   0 O     8.0000    0    15.999    7.746969   -2.496127   -4.250774
   1 C     6.0000    0    12.011    5.976800   -1.278254   -3.361231
   2 C     6.0000    0    12.011    5.018803    1.221579   -4.563307
   3 C     6.0000    0    12.011    6.674984    2.057796   -6.769770
   4 C     6.0000    0    12.011    8.742186    3.626918   -5.472665
   5 C     6.0000    0    12.011    7.310332    5.079801   -3.415052
   6 N     7.0000    0    14.007    5.176549    3.386302   -2.787862
   7 C     6.0000    0    12.011    3.380118    3.820739   -1.038297
   8 O     8.0000    0    15.999    1.663313    2.255599   -0.585310
   9 N     7.0000    0    14.007    4.619941   -1.966049   -1.293000
  10 C     6.0000    0    12.011    5.353750   -4.025083    0.377602
  11 C     6.0000    0    12.011    2.920612   -5.452515    1.141470
  12 N     7.0000    0    14.007    1.452680   -6.158711   -0.839477
  13 C     6.0000    0    12.011   -1.008223   -7.439677   -0.694142
  14 C     6.0000    0    12.011   -3.156800   -5.686027    0.232393
  15 N     7.0000    0    14.007   -2.753406   -4.550968    2.509467
  16 C     6.0000    0    12.011   -4.432554   -2.607713    3.462586
  17 C     6.0000    0    12.011   -2.974853   -0.203986    4.158705
  18 C     6.0000    0    12.011   -4.706120    2.145660    4.373568
  19 C     6.0000    0    12.011   -3.360851    4.665620    4.932935
  20 N     7.0000    0    14.007   -1.196625    4.537461    6.324218
  21 C     6.0000    0    12.011    0.321849    6.762830    6.891836
  22 C     6.0000    0    12.011    1.960435    7.612176    4.631520
  23 N     7.0000    0    14.007    2.176757    5.870021    2.763662
  24 C     6.0000    0    12.011    3.386007    6.346959    0.356657
  25 C     6.0000    0    12.011    1.934180    8.319016   -1.223808
  26 O     8.0000    0    15.999    3.018106    9.686059    4.591687
  27 C     6.0000    0    12.011    1.939439    6.206479    9.244981
  28 C     6.0000    0    12.011    3.527032    8.403388   10.285066
  29 C     6.0000    0    12.011    5.063896    7.475804   12.559352
  30 C     6.0000    0    12.011    1.891445   10.683917   10.995546
  31 O     8.0000    0    15.999   -4.230728    6.668171    4.126015
  32 C     6.0000    0    12.011   -6.290647    2.522936    1.936005
  33 C     6.0000    0    12.011   -4.908516    3.150215   -0.500566
  34 C     6.0000    0    12.011   -4.266815    0.718432   -1.964571
  35 C     6.0000    0    12.011   -3.049678    1.167574   -4.547324
  36 C     6.0000    0    12.011   -1.716978   -1.232171   -5.458471
  37 C     6.0000    0    12.011   -0.414499   -1.012626   -8.028850
  38 C     6.0000    0    12.011    1.470917   -3.155333   -8.497780
  39 C     6.0000    0    12.011    3.050614   -2.850657  -10.897459
  40 C     6.0000    0    12.011    5.149851   -4.826485  -11.135510
  41 C     6.0000    0    12.011    6.766927   -4.482837  -13.506093
  42 O     8.0000    0    15.999   -8.565080    2.176614    1.988840
  43 O     8.0000    0    15.999   -1.526742   -0.650349    6.441711
  44 O     8.0000    0    15.999   -5.079443   -5.404241   -1.047182
  45 C     6.0000    0    12.011   -0.893248   -9.945220    0.778368
  46 C     6.0000    0    12.011   -3.402444  -11.374737    0.690516
  47 O     8.0000    0    15.999    2.355030   -5.850411    3.376898
  48 C     6.0000    0    12.011    6.869154   -3.153773    2.720158
  49 C     6.0000    0    12.011    8.799895   -1.102531    2.050474
  50 C     6.0000    0    12.011    8.178219   -5.432904    3.939566
  51 H     1.0000    0     1.008    3.025190    0.959849   -5.075506
  52 H     1.0000    0     1.008    5.562876    3.222849   -8.082688
  53 H     1.0000    0     1.008    7.433416    0.420451   -7.783044
  54 H     1.0000    0     1.008   10.134670    2.349341   -4.612410
  55 H     1.0000    0     1.008    9.740963    4.902169   -6.765196
  56 H     1.0000    0     1.008    8.468744    5.452524   -1.734089
  57 H     1.0000    0     1.008    6.590407    6.895975   -4.130359
  58 H     1.0000    0     1.008    3.233371   -0.715789   -0.725550
  59 H     1.0000    0     1.008    6.553471   -5.291346   -0.764449
  60 H     1.0000    0     1.008    1.970099   -5.481899   -2.562272
  61 H     1.0000    0     1.008   -1.534960   -7.857701   -2.657331
  62 H     1.0000    0     1.008   -1.077717   -4.920366    3.421745
  63 H     1.0000    0     1.008   -5.477515   -3.269049    5.149097
  64 H     1.0000    0     1.008   -5.852593   -2.261207    1.992934
  65 H     1.0000    0     1.008   -1.522348    0.152048    2.714757
  66 H     1.0000    0     1.008   -6.098224    1.823257    5.892526
  67 H     1.0000    0     1.008   -0.645826    2.790526    6.949652
  68 H     1.0000    0     1.008   -0.971277    8.347992    7.252229
  69 H     1.0000    0     1.008    1.072458    4.294796    2.819501
  70 H     1.0000    0     1.008    5.322459    7.024222    0.691398
  71 H     1.0000    0     1.008    1.858500   10.097918   -0.165483
  72 H     1.0000    0     1.008    2.865784    8.661550   -3.047572
  73 H     1.0000    0     1.008   -0.001089    7.655683   -1.571233
  74 H     1.0000    0     1.008    3.196864    4.597853    8.812932
  75 H     1.0000    0     1.008    0.635822    5.558580   10.740134
  76 H     1.0000    0     1.008    4.845907    9.009941    8.794832
  77 H     1.0000    0     1.008    6.274797    5.861751   12.055567
  78 H     1.0000    0     1.008    6.287564    8.985408   13.294283
  79 H     1.0000    0     1.008    3.811042    6.869532   14.108671
  80 H     1.0000    0     1.008    0.975205   11.510058    9.327568
  81 H     1.0000    0     1.008    0.416238   10.147954   12.365357
  82 H     1.0000    0     1.008    3.051411   12.170393   11.868673
  83 H     1.0000    0     1.008   -3.160281    4.200975   -0.113096
  84 H     1.0000    0     1.008   -6.170458    4.356286   -1.626124
  85 H     1.0000    0     1.008   -5.967719   -0.455893   -2.177245
  86 H     1.0000    0     1.008   -2.923007   -0.408302   -0.852572
  87 H     1.0000    0     1.008   -1.647936    2.703312   -4.397559
  88 H     1.0000    0     1.008   -4.480227    1.790084   -5.928565
  89 H     1.0000    0     1.008   -3.061451   -2.823747   -5.466287
  90 H     1.0000    0     1.008   -0.280944   -1.719091   -4.020725
  91 H     1.0000    0     1.008    0.592342    0.814729   -8.147364
  92 H     1.0000    0     1.008   -1.833471   -0.960769   -9.554091
  93 H     1.0000    0     1.008    0.457534   -4.978330   -8.548027
  94 H     1.0000    0     1.008    2.772213   -3.276744   -6.867304
  95 H     1.0000    0     1.008    3.904466   -0.945787  -10.909789
  96 H     1.0000    0     1.008    1.810163   -2.929438  -12.572757
  97 H     1.0000    0     1.008    4.301544   -6.731379  -11.134801
  98 H     1.0000    0     1.008    6.357763   -4.731159   -9.438969
  99 H     1.0000    0     1.008    8.265536   -5.916454  -13.623380
 100 H     1.0000    0     1.008    5.614984   -4.627920  -15.231952
 101 H     1.0000    0     1.008    7.681029   -2.614013  -13.521177
 102 H     1.0000    0     1.008   -2.696718   -1.265162    7.726846
 103 H     1.0000    0     1.008   -0.336550   -9.566590    2.740346
 104 H     1.0000    0     1.008    0.624923  -11.092367   -0.065203
 105 H     1.0000    0     1.008   -3.244206  -13.179254    1.703899
 106 H     1.0000    0     1.008   -4.932639  -10.281654    1.571854
 107 H     1.0000    0     1.008   -3.980474  -11.782631   -1.263740
 108 H     1.0000    0     1.008    5.500644   -2.377916    4.085365
 109 H     1.0000    0     1.008    7.886210    0.616787    1.329024
 110 H     1.0000    0     1.008    9.883614   -0.576038    3.742143
 111 H     1.0000    0     1.008   10.139966   -1.770276    0.608673
 112 H     1.0000    0     1.008    6.811056   -6.902004    4.456804
 113 H     1.0000    0     1.008    9.579279   -6.250355    2.634369
 114 H     1.0000    0     1.008    9.183222   -4.857399    5.663839

--------------------------------
INTERNAL COORDINATES (ANGSTROEM)
--------------------------------
 O      0   0   0     0.000000000000     0.00000000     0.00000000
 C      1   0   0     1.230607093259     0.00000000     0.00000000
 C      2   1   0     1.552926314985   122.54202724     0.00000000
 C      3   2   1     1.525525125272   111.90484884   354.74283198
 C      4   3   2     1.535338946804   102.94552740   272.44659756
 C      5   4   3     1.533231061323   103.68459984   320.91431231
 N      6   5   4     1.479269011292   103.46039007    29.02411725
 C      7   6   5     1.346740655426   126.13084492   179.10707424
 O      8   7   6     1.252516850766   122.05170371   181.60594688
 N      2   1   3     1.358626639671   124.75917547   178.51629580
 C     10   2   1     1.455863200759   123.27766914    10.41106968
 C     11  10   2     1.546539625181   107.58957493   219.42784608
 N     12  11  10     1.357180802504   114.14972358    51.68799882
 C     13  12  11     1.470125850897   126.40989886   182.73781974
 C     14  13  12     1.547347144087   113.01262888    72.61260282
 N     15  14  13     1.363198909510   115.42161713   303.88327045
 C     16  15  14     1.449618560282   121.60937958   171.68353289
 C     17  16  15     1.532548298024   111.33864398   233.99939794
 C     18  17  16     1.548626609439   112.72279418   162.01345620
 C     19  18  17     1.540336962142   115.83504019   183.04550938
 N     20  19  18     1.363179898106   116.67939129   329.50356018
 C     21  20  19     1.456941252710   122.30952873   177.17651090
 C     22  21  20     1.544198846691   112.65991031   282.36277071
 N     23  22  21     1.356469832181   114.45578210   345.29921955
 C     24  23  22     1.447609442323   124.05337002   173.07853261
 C     25  24  23     1.542320187255   112.01832020   294.35017490
 O     23  22  21     1.232113125444   121.84181018   166.95203351
 C     22  21  20     1.539479764579   108.59332227   158.06847390
 C     28  22  21     1.536313672624   116.68739025   184.77886287
 C     29  28  22     1.533221051744   109.20886549   181.79892462
 C     29  28  22     1.531941901458   112.02933133    58.33877819
 O     20  19  18     1.231746323539   120.36260058   149.06097281
 C     19  18  17     1.551380604581   111.22434813   305.96168658
 C     33  19  18     1.519083970996   118.26966394   294.70787048
 C     34  33  19     1.539956199124   110.52249457    91.77351811
 C     35  34  33     1.529474752438   114.36528681   175.55236243
 C     36  35  34     1.530507308395   110.28059969   161.52773161
 C     37  36  35     1.529267326348   115.14074098   180.20043801
 C     38  37  36     1.530583347145   112.43984667   163.90771819
 C     39  38  37     1.528830568274   114.39105501   186.95903792
 C     40  39  38     1.530718282171   113.14950806   172.40461938
 C     41  40  39     1.529376050990   113.10006483   181.32128353
 O     33  19  18     1.217771838071   119.71774784   110.69409901
 O     18  17  16     1.450020840011   109.33332192   287.89554045
 O     15  14  13     1.231207241434   120.36928345   124.49492186
 C     14  13  12     1.539100720980   112.87231450   303.30575091
 C     46  14  13     1.528882730750   112.11777359   185.58538036
 O     12  11  10     1.238245838553   122.27492530   233.31148958
 C     11  10   2     1.546718605940   113.69400959    95.34166853
 C     49  11  10     1.532224465102   111.81028815   319.04810937
 C     49  11  10     1.533248744540   109.69766206   195.85337048
 H      3   2   1     1.098006216829   107.89774088   120.36908746
 H      4   3   2     1.099605082395   109.80125486   154.02308889
 H      4   3   2     1.095133737949   110.84214122    33.17320878
 H      5   4   3     1.098759589080   109.28593695    78.44296222
 H      5   4   3     1.096617827156   113.41332678   199.36293860
 H      6   5   4     1.098151249655   112.92005933   148.72486685
 H      6   5   4     1.100948588290   111.38181395   270.91174269
 H     10   2   1     1.032604436356   115.98555591   177.62868333
 H     11  10   2     1.103310117231   105.98598369   335.92306450
 H     13  12  11     1.017042283986   116.18709873   352.06091820
 H     14  13  12     1.098129801089   105.55931721   185.08518691
 H     16  15  14     1.028380919998   117.78910334     0.55628072
 H     17  16  15     1.106680371918   111.25601895   112.61737225
 H     17  16  15     1.096872799290   106.96749715   356.80586965
 H     18  17  16     1.100067258325   109.07941301    40.69569533
 H     19  18  17     1.103576159440   108.92038912    61.63907504
 H     21  20  19     1.024245614921   117.29036284   358.04378481
 H     22  21  20     1.099211559694   108.01355645    38.09248373
 H     24  23  22     1.018432852908   119.12456645     9.45135903
 H     25  24  23     1.099948729841   109.08207112    55.52250924
 H     26  25  24     1.096083491894   108.79829509    60.15109909
 H     26  25  24     1.098769927499   111.37183224   180.16222701
 H     26  25  24     1.098088312273   109.81975490   300.89287634
 H     28  22  21     1.104379492537   108.35872374    61.16706164
 H     28  22  21     1.104279034142   106.95169550   306.61495450
 H     29  28  22     1.100909151747   108.09955444   299.81052158
 H     30  29  28     1.100542311838   111.54061475    57.14960469
 H     30  29  28     1.099414548210   110.94450591   177.42204873
 H     30  29  28     1.102112172083   110.97953491   297.01703114
 H     31  29  28     1.097855095103   111.46265597   295.06202775
 H     31  29  28     1.102401086884   111.02547410    56.23360162
 H     31  29  28     1.099553447212   110.56576997   175.63978697
 H     34  33  19     1.098671293036   110.95297304   330.31097624
 H     34  33  19     1.099108254128   107.11703788   211.93945483
 H     35  34  33     1.099536208088   110.07572635    51.20745689
 H     35  34  33     1.098841339261   109.06988711   295.14205905
 H     36  35  34     1.103153942203   109.47775760    41.71812647
 H     36  35  34     1.102647928480   110.46647986   284.37021072
 H     37  36  35     1.102516558646   109.73468191    55.17983936
 H     37  36  35     1.105764936753   107.05266307   301.10632080
 H     38  37  36     1.105841298907   109.51307282    42.65129178
 H     38  37  36     1.102738666804   110.24260535   287.17621448
 H     39  38  37     1.104040700749   109.54746603    63.28295081
 H     39  38  37     1.105785552699   108.81276800   308.18257711
 H     40  39  38     1.104668557292   108.95256919    50.96132866
 H     40  39  38     1.103882932483   109.75114246   295.49824724
 H     41  40  39     1.103464294164   109.19093697    58.92019514
 H     41  40  39     1.103228388064   108.80035920   303.54517151
 H     42  41  40     1.099217493298   111.58722430   179.61378965
 H     42  41  40     1.100715693413   111.24835276   299.96324253
 H     42  41  40     1.100932399151   111.01401297    59.57694178
 H     44  18  17     0.975526383536   107.44248198   305.90455029
 H     46  14  13     1.097660977137   109.40438310    62.47960661
 H     46  14  13     1.101451656923   107.36300047   306.99510580
 H     47  46  14     1.098379027147   110.43232031   178.18546903
 H     47  46  14     1.098993482104   111.50475071   298.07995439
 H     47  46  14     1.099824864988   111.54528040    58.02960201
 H     49  11  10     1.102234975937   107.19935762    78.47002650
 H     50  49  11     1.098774835861   111.93428302    62.43279256
 H     50  49  11     1.099031738788   109.82480353   181.90969813
 H     50  49  11     1.099933407911   111.26892475   301.51193576
 H     51  49  11     1.096677395869   111.38283847   302.90137781
 H     51  49  11     1.101748376322   110.42886907    63.89426348
 H     51  49  11     1.099155063936   110.48908602   182.90843262

---------------------------
INTERNAL COORDINATES (A.U.)
---------------------------
 O      0   0   0     0.000000000000     0.00000000     0.00000000
 C      1   0   0     2.325510384720     0.00000000     0.00000000
 C      2   1   0     2.934605441481   122.54202724     0.00000000
 C      3   2   1     2.882824697179   111.90484884   354.74283198
 C      4   3   2     2.901370132203   102.94552740   272.44659756
 C      5   4   3     2.897386805921   103.68459984   320.91431231
 N      6   5   4     2.795413309739   103.46039007    29.02411725
 C      7   6   5     2.544971012173   126.13084492   179.10707424
 O      8   7   6     2.366913826070   122.05170371   181.60594688
 N      2   1   3     2.567432267227   124.75917547   178.51629580
 C     10   2   1     2.751182737888   123.27766914    10.41106968
 C     11  10   2     2.922536346850   107.58957493   219.42784608
 N     12  11  10     2.564700030948   114.14972358    51.68799882
 C     13  12  11     2.778135240594   126.40989886   182.73781974
 C     14  13  12     2.924062336429   113.01262888    72.61260282
 N     15  14  13     2.576072605034   115.42161713   303.88327045
 C     16  15  14     2.739382077583   121.60937958   171.68353289
 C     17  16  15     2.896096570273   111.33864398   233.99939794
 C     18  17  16     2.926480175544   112.72279418   162.01345620
 C     19  18  17     2.910815012405   115.83504019   183.04550938
 N     20  19  18     2.576036678687   116.67939129   329.50356018
 C     21  20  19     2.753219960834   122.30952873   177.17651090
 C     22  21  20     2.918112916562   112.65991031   282.36277071
 N     23  22  21     2.563356491749   114.45578210   345.29921955
 C     24  23  22     2.735585394869   124.05337002   173.07853261
 C     25  24  23     2.914562764731   112.01832020   294.35017490
 O     23  22  21     2.328356373100   121.84181018   166.95203351
 C     22  21  20     2.909195143769   108.59332227   158.06847390
 C     28  22  21     2.903212097058   116.68739025   184.77886287
 C     29  28  22     2.897367890559   109.20886549   181.79892462
 C     29  28  22     2.894950646834   112.02933133    58.33877819
 O     20  19  18     2.327663217952   120.36260058   149.06097281
 C     19  18  17     2.931684472135   111.22434813   305.96168658
 C     33  19  18     2.870652679611   118.26966394   294.70787048
 C     34  33  19     2.910095474579   110.52249457    91.77351811
 C     35  34  33     2.890288410855   114.36528681   175.55236243
 C     36  35  34     2.892239658831   110.28059969   161.52773161
 C     37  36  35     2.889896432351   115.14074098   180.20043801
 C     38  37  36     2.892383351245   112.43984667   163.90771819
 C     39  38  37     2.889071079205   114.39105501   186.95903792
 C     40  39  38     2.892638341490   113.14950806   172.40461938
 C     41  40  39     2.890101892149   113.10006483   181.32128353
 O     33  19  18     2.301255267556   119.71774784   110.69409901
 O     18  17  16     2.740142276099   109.33332192   287.89554045
 O     15  14  13     2.326644500412   120.36928345   124.49492186
 C     14  13  12     2.908478855173   112.87231450   303.30575091
 C     46  14  13     2.889169651998   112.11777359   185.58538036
 O     12  11  10     2.339945521332   122.27492530   233.31148958
 C     11  10   2     2.922874571467   113.69400959    95.34166853
 C     49  11  10     2.895484614737   111.81028815   319.04810937
 C     49  11  10     2.897420222360   109.69766206   195.85337048
 H      3   2   1     2.074931043149   107.89774088   120.36908746
 H      4   3   2     2.077952461194   109.80125486   154.02308889
 H      4   3   2     2.069502844742   110.84214122    33.17320878
 H      5   4   3     2.076354710381   109.28593695    78.44296222
 H      5   4   3     2.072307366901   113.41332678   199.36293860
[...]
freq.      88.22  E(vib)   ...       0.48 
freq.      92.05  E(vib)   ...       0.47 
freq.      97.87  E(vib)   ...       0.46 
freq.     107.69  E(vib)   ...       0.45 
freq.     109.82  E(vib)   ...       0.45 
freq.     113.48  E(vib)   ...       0.45 
freq.     115.61  E(vib)   ...       0.44 
freq.     119.13  E(vib)   ...       0.44 
freq.     121.52  E(vib)   ...       0.44 
freq.     129.37  E(vib)   ...       0.43 
freq.     131.14  E(vib)   ...       0.42 
freq.     141.35  E(vib)   ...       0.41 
freq.     146.53  E(vib)   ...       0.41 
freq.     149.96  E(vib)   ...       0.40 
freq.     157.18  E(vib)   ...       0.40 
freq.     161.67  E(vib)   ...       0.39 
freq.     162.54  E(vib)   ...       0.39 
freq.     167.92  E(vib)   ...       0.38 
freq.     176.72  E(vib)   ...       0.38 
freq.     188.59  E(vib)   ...       0.36 
freq.     192.94  E(vib)   ...       0.36 
freq.     199.52  E(vib)   ...       0.35 
freq.     205.19  E(vib)   ...       0.35 
freq.     212.94  E(vib)   ...       0.34 
freq.     214.91  E(vib)   ...       0.34 
freq.     220.27  E(vib)   ...       0.33 
freq.     225.09  E(vib)   ...       0.33 
freq.     227.93  E(vib)   ...       0.33 
freq.     229.76  E(vib)   ...       0.32 
freq.     233.57  E(vib)   ...       0.32 
freq.     235.70  E(vib)   ...       0.32 
freq.     237.05  E(vib)   ...       0.32 
freq.     238.70  E(vib)   ...       0.32 
freq.     241.48  E(vib)   ...       0.31 
freq.     243.19  E(vib)   ...       0.31 
freq.     246.36  E(vib)   ...       0.31 
freq.     258.35  E(vib)   ...       0.30 
freq.     271.48  E(vib)   ...       0.29 
freq.     280.66  E(vib)   ...       0.28 
freq.     293.39  E(vib)   ...       0.27 
freq.     310.00  E(vib)   ...       0.26 
freq.     319.27  E(vib)   ...       0.25 
freq.     321.43  E(vib)   ...       0.25 
freq.     327.57  E(vib)   ...       0.24 
freq.     333.85  E(vib)   ...       0.24 
freq.     338.95  E(vib)   ...       0.23 
freq.     343.09  E(vib)   ...       0.23 
freq.     349.74  E(vib)   ...       0.23 
freq.     352.85  E(vib)   ...       0.22 
freq.     362.36  E(vib)   ...       0.22 
freq.     366.57  E(vib)   ...       0.22 
freq.     379.66  E(vib)   ...       0.21 
freq.     384.68  E(vib)   ...       0.20 
freq.     388.73  E(vib)   ...       0.20 
freq.     404.33  E(vib)   ...       0.19 
freq.     411.30  E(vib)   ...       0.19 
freq.     417.56  E(vib)   ...       0.18 
freq.     443.24  E(vib)   ...       0.17 
freq.     449.12  E(vib)   ...       0.17 
freq.     452.68  E(vib)   ...       0.16 
freq.     453.43  E(vib)   ...       0.16 
freq.     467.69  E(vib)   ...       0.16 
freq.     476.06  E(vib)   ...       0.15 
freq.     489.58  E(vib)   ...       0.15 
freq.     501.76  E(vib)   ...       0.14 
freq.     510.67  E(vib)   ...       0.14 
freq.     533.40  E(vib)   ...       0.13 
freq.     539.53  E(vib)   ...       0.12 
freq.     555.00  E(vib)   ...       0.12 
freq.     568.02  E(vib)   ...       0.11 
freq.     571.09  E(vib)   ...       0.11 
freq.     602.64  E(vib)   ...       0.10 
freq.     611.36  E(vib)   ...       0.10 
freq.     617.93  E(vib)   ...       0.09 
freq.     624.30  E(vib)   ...       0.09 
freq.     653.30  E(vib)   ...       0.08 
freq.     667.99  E(vib)   ...       0.08 
freq.     678.41  E(vib)   ...       0.08 
freq.     687.26  E(vib)   ...       0.07 
freq.     707.63  E(vib)   ...       0.07 
freq.     709.98  E(vib)   ...       0.07 
freq.     713.08  E(vib)   ...       0.07 
freq.     715.21  E(vib)   ...       0.07 
freq.     724.26  E(vib)   ...       0.06 
freq.     728.20  E(vib)   ...       0.06 
freq.     729.42  E(vib)   ...       0.06 
freq.     747.99  E(vib)   ...       0.06 
freq.     752.01  E(vib)   ...       0.06 
freq.     763.79  E(vib)   ...       0.06 
freq.     774.28  E(vib)   ...       0.05 
freq.     783.30  E(vib)   ...       0.05 
freq.     788.33  E(vib)   ...       0.05 
freq.     809.33  E(vib)   ...       0.05 
freq.     810.88  E(vib)   ...       0.05 
freq.     813.41  E(vib)   ...       0.05 
freq.     818.65  E(vib)   ...       0.05 
freq.     830.46  E(vib)   ...       0.04 
freq.     836.75  E(vib)   ...       0.04 
freq.     842.26  E(vib)   ...       0.04 
freq.     853.91  E(vib)   ...       0.04 
freq.     862.26  E(vib)   ...       0.04 
freq.     869.03  E(vib)   ...       0.04 
freq.     874.32  E(vib)   ...       0.04 
freq.     875.15  E(vib)   ...       0.04 
freq.     879.59  E(vib)   ...       0.04 
freq.     881.39  E(vib)   ...       0.04 
freq.     903.09  E(vib)   ...       0.03 
freq.     903.49  E(vib)   ...       0.03 
freq.     906.42  E(vib)   ...       0.03 
freq.     914.73  E(vib)   ...       0.03 
freq.     917.15  E(vib)   ...       0.03 
freq.     921.09  E(vib)   ...       0.03 
freq.     922.61  E(vib)   ...       0.03 
freq.     936.35  E(vib)   ...       0.03 
freq.     939.83  E(vib)   ...       0.03 
freq.     944.77  E(vib)   ...       0.03 
freq.     946.04  E(vib)   ...       0.03 
freq.     949.97  E(vib)   ...       0.03 
freq.     959.31  E(vib)   ...       0.03 
freq.     963.69  E(vib)   ...       0.03 
freq.     966.40  E(vib)   ...       0.03 
freq.     975.94  E(vib)   ...       0.03 
freq.     977.41  E(vib)   ...       0.03 
freq.     994.70  E(vib)   ...       0.02 
freq.    1001.68  E(vib)   ...       0.02 
freq.    1007.64  E(vib)   ...       0.02 
freq.    1022.98  E(vib)   ...       0.02 
freq.    1024.44  E(vib)   ...       0.02 
freq.    1030.55  E(vib)   ...       0.02 
freq.    1032.18  E(vib)   ...       0.02 
freq.    1035.14  E(vib)   ...       0.02 
freq.    1038.55  E(vib)   ...       0.02 
freq.    1039.87  E(vib)   ...       0.02 
freq.    1041.90  E(vib)   ...       0.02 
freq.    1052.68  E(vib)   ...       0.02 
freq.    1053.31  E(vib)   ...       0.02 
freq.    1054.26  E(vib)   ...       0.02 
freq.    1059.20  E(vib)   ...       0.02 
freq.    1065.00  E(vib)   ...       0.02 
freq.    1066.37  E(vib)   ...       0.02 
freq.    1070.76  E(vib)   ...       0.02 
freq.    1077.72  E(vib)   ...       0.02 
freq.    1083.20  E(vib)   ...       0.02 
freq.    1106.38  E(vib)   ...       0.02 
freq.    1109.35  E(vib)   ...       0.02 
freq.    1109.83  E(vib)   ...       0.02 
freq.    1110.61  E(vib)   ...       0.02 
freq.    1119.72  E(vib)   ...       0.01 
freq.    1125.52  E(vib)   ...       0.01 
freq.    1127.08  E(vib)   ...       0.01 
freq.    1131.75  E(vib)   ...       0.01 
freq.    1143.80  E(vib)   ...       0.01 
freq.    1147.57  E(vib)   ...       0.01 
freq.    1158.14  E(vib)   ...       0.01 
freq.    1160.08  E(vib)   ...       0.01 
freq.    1160.52  E(vib)   ...       0.01 
freq.    1168.47  E(vib)   ...       0.01 
freq.    1170.24  E(vib)   ...       0.01 
freq.    1176.93  E(vib)   ...       0.01 
freq.    1187.45  E(vib)   ...       0.01 
freq.    1189.54  E(vib)   ...       0.01 
freq.    1190.46  E(vib)   ...       0.01 
freq.    1196.76  E(vib)   ...       0.01 
freq.    1204.51  E(vib)   ...       0.01 
freq.    1209.88  E(vib)   ...       0.01 
freq.    1210.72  E(vib)   ...       0.01 
freq.    1215.49  E(vib)   ...       0.01 
freq.    1223.51  E(vib)   ...       0.01 
freq.    1224.62  E(vib)   ...       0.01 
freq.    1231.94  E(vib)   ...       0.01 
freq.    1235.91  E(vib)   ...       0.01 
freq.    1242.59  E(vib)   ...       0.01 
freq.    1244.41  E(vib)   ...       0.01 
freq.    1252.14  E(vib)   ...       0.01 
freq.    1257.14  E(vib)   ...       0.01 
freq.    1257.89  E(vib)   ...       0.01 
freq.    1260.88  E(vib)   ...       0.01 
freq.    1268.90  E(vib)   ...       0.01 
freq.    1274.61  E(vib)   ...       0.01 
freq.    1275.96  E(vib)   ...       0.01 
freq.    1280.51  E(vib)   ...       0.01 
freq.    1281.48  E(vib)   ...       0.01 
freq.    1286.88  E(vib)   ...       0.01 
freq.    1287.90  E(vib)   ...       0.01 
freq.    1291.65  E(vib)   ...       0.01 
freq.    1292.00  E(vib)   ...       0.01 
freq.    1293.78  E(vib)   ...       0.01 
freq.    1296.27  E(vib)   ...       0.01 
freq.    1297.14  E(vib)   ...       0.01 
freq.    1299.92  E(vib)   ...       0.01 
freq.    1305.29  E(vib)   ...       0.01 
freq.    1307.73  E(vib)   ...       0.01 
freq.    1307.98  E(vib)   ...       0.01 
freq.    1312.05  E(vib)   ...       0.01 
freq.    1314.15  E(vib)   ...       0.01 
freq.    1315.61  E(vib)   ...       0.01 
freq.    1318.04  E(vib)   ...       0.01 
freq.    1329.13  E(vib)   ...       0.01 
freq.    1330.66  E(vib)   ...       0.01 
freq.    1335.97  E(vib)   ...       0.01 
freq.    1338.57  E(vib)   ...       0.01 
freq.    1342.57  E(vib)   ...       0.01 
freq.    1343.71  E(vib)   ...       0.01 
freq.    1345.77  E(vib)   ...       0.01 
freq.    1347.16  E(vib)   ...       0.01 
freq.    1347.65  E(vib)   ...       0.01 
freq.    1349.61  E(vib)   ...       0.01 
freq.    1349.80  E(vib)   ...       0.01 
freq.    1351.67  E(vib)   ...       0.01 
freq.    1363.89  E(vib)   ...       0.01 
freq.    1369.23  E(vib)   ...       0.01 
freq.    1369.96  E(vib)   ...       0.01 
freq.    1372.56  E(vib)   ...       0.01 
freq.    1381.59  E(vib)   ...       0.01 
freq.    1422.52  E(vib)   ...       0.00 
freq.    1423.67  E(vib)   ...       0.00 
freq.    1424.73  E(vib)   ...       0.00 
freq.    1430.29  E(vib)   ...       0.00 
freq.    1431.58  E(vib)   ...       0.00 
freq.    1435.46  E(vib)   ...       0.00 
freq.    1436.87  E(vib)   ...       0.00 
freq.    1438.23  E(vib)   ...       0.00 
freq.    1439.80  E(vib)   ...       0.00 
freq.    1440.60  E(vib)   ...       0.00 
freq.    1441.65  E(vib)   ...       0.00 
freq.    1444.13  E(vib)   ...       0.00 
freq.    1445.84  E(vib)   ...       0.00 
freq.    1446.07  E(vib)   ...       0.00 
freq.    1446.31  E(vib)   ...       0.00 
freq.    1448.65  E(vib)   ...       0.00 
freq.    1449.31  E(vib)   ...       0.00 
freq.    1451.07  E(vib)   ...       0.00 
freq.    1451.84  E(vib)   ...       0.00 
freq.    1452.66  E(vib)   ...       0.00 
freq.    1453.21  E(vib)   ...       0.00 
freq.    1454.50  E(vib)   ...       0.00 
freq.    1455.02  E(vib)   ...       0.00 
freq.    1459.63  E(vib)   ...       0.00 
freq.    1460.73  E(vib)   ...       0.00 
freq.    1464.12  E(vib)   ...       0.00 
freq.    1466.55  E(vib)   ...       0.00 
freq.    1467.86  E(vib)   ...       0.00 
freq.    1468.52  E(vib)   ...       0.00 
freq.    1469.55  E(vib)   ...       0.00 
freq.    1493.39  E(vib)   ...       0.00 
freq.    1495.57  E(vib)   ...       0.00 
freq.    1518.24  E(vib)   ...       0.00 
freq.    1533.28  E(vib)   ...       0.00 
freq.    1599.65  E(vib)   ...       0.00 
freq.    1652.92  E(vib)   ...       0.00 
freq.    1665.04  E(vib)   ...       0.00 
freq.    1679.23  E(vib)   ...       0.00 
freq.    1682.52  E(vib)   ...       0.00 
freq.    1687.09  E(vib)   ...       0.00 
freq.    1717.58  E(vib)   ...       0.00 
freq.    2913.25  E(vib)   ...       0.00 
freq.    2918.75  E(vib)   ...       0.00 
freq.    2919.52  E(vib)   ...       0.00 
freq.    2925.18  E(vib)   ...       0.00 
freq.    2928.70  E(vib)   ...       0.00 
freq.    2930.58  E(vib)   ...       0.00 
freq.    2943.18  E(vib)   ...       0.00 
freq.    2943.75  E(vib)   ...       0.00 
freq.    2947.99  E(vib)   ...       0.00 
freq.    2948.84  E(vib)   ...       0.00 
freq.    2951.96  E(vib)   ...       0.00 
freq.    2955.69  E(vib)   ...       0.00 
freq.    2956.62  E(vib)   ...       0.00 
freq.    2959.24  E(vib)   ...       0.00 
freq.    2960.41  E(vib)   ...       0.00 
freq.    2960.75  E(vib)   ...       0.00 
freq.    2962.21  E(vib)   ...       0.00 
freq.    2965.72  E(vib)   ...       0.00 
freq.    2965.90  E(vib)   ...       0.00 
freq.    2966.08  E(vib)   ...       0.00 
freq.    2968.88  E(vib)   ...       0.00 
freq.    2971.35  E(vib)   ...       0.00 
freq.    2974.03  E(vib)   ...       0.00 
freq.    2974.48  E(vib)   ...       0.00 
freq.    2977.27  E(vib)   ...       0.00 
freq.    2980.12  E(vib)   ...       0.00 
freq.    2983.29  E(vib)   ...       0.00 
freq.    2983.80  E(vib)   ...       0.00 
freq.    2988.58  E(vib)   ...       0.00 
freq.    2990.98  E(vib)   ...       0.00 
freq.    2992.20  E(vib)   ...       0.00 
freq.    2992.95  E(vib)   ...       0.00 
freq.    2999.68  E(vib)   ...       0.00 
freq.    3000.03  E(vib)   ...       0.00 
freq.    3010.06  E(vib)   ...       0.00 
freq.    3010.74  E(vib)   ...       0.00 
freq.    3013.33  E(vib)   ...       0.00 
freq.    3019.07  E(vib)   ...       0.00 
freq.    3019.68  E(vib)   ...       0.00 
freq.    3021.02  E(vib)   ...       0.00 
freq.    3021.97  E(vib)   ...       0.00 
freq.    3023.88  E(vib)   ...       0.00 
freq.    3024.63  E(vib)   ...       0.00 
freq.    3025.67  E(vib)   ...       0.00 
freq.    3028.64  E(vib)   ...       0.00 
freq.    3029.39  E(vib)   ...       0.00 
freq.    3035.05  E(vib)   ...       0.00 
freq.    3036.46  E(vib)   ...       0.00 
freq.    3043.14  E(vib)   ...       0.00 
freq.    3044.38  E(vib)   ...       0.00 
freq.    3044.58  E(vib)   ...       0.00 
freq.    3046.54  E(vib)   ...       0.00 
freq.    3048.17  E(vib)   ...       0.00 
freq.    3051.05  E(vib)   ...       0.00 
freq.    3053.30  E(vib)   ...       0.00 
freq.    3059.38  E(vib)   ...       0.00 
freq.    3069.07  E(vib)   ...       0.00 
freq.    3073.75  E(vib)   ...       0.00 
freq.    3206.88  E(vib)   ...       0.00 
freq.    3291.63  E(vib)   ...       0.00 
freq.    3360.25  E(vib)   ...       0.00 
freq.    3464.46  E(vib)   ...       0.00 
freq.    3490.80  E(vib)   ...       0.00 
freq.    3644.09  E(vib)   ...       0.00 

------------
INNER ENERGY
------------

The inner energy is: U= E(el) + E(ZPE) + E(vib) + E(rot) + E(trans)
    E(el)   - is the total energy from the electronic structure calculation
              = E(kin-el) + E(nuc-el) + E(el-el) + E(nuc-nuc)
    E(ZPE)  - the the zero temperature vibrational energy from the frequency calculation
    E(vib)  - the the finite temperature correction to E(ZPE) due to population
              of excited vibrational states
    E(rot)  - is the rotational thermal energy
    E(trans)- is the translational thermal energy

Summary of contributions to the inner energy U:
Electronic energy                ...  -2380.08110403 Eh
Zero point energy                ...      0.97778172 Eh     613.57 kcal/mol
Thermal vibrational correction   ...      0.05555014 Eh      34.86 kcal/mol
Thermal rotational correction    ...      0.00141627 Eh       0.89 kcal/mol
Thermal translational correction ...      0.00141627 Eh       0.89 kcal/mol
-----------------------------------------------------------------------
Total thermal energy                  -2379.04493964 Eh


Summary of corrections to the electronic energy:
(perhaps to be used in another calculation)
Total thermal correction                  0.05838268 Eh      36.64 kcal/mol
Non-thermal (ZPE) correction              0.97778172 Eh     613.57 kcal/mol
-----------------------------------------------------------------------
Total correction                          1.03616439 Eh     650.20 kcal/mol


--------
ENTHALPY
--------

The enthalpy is H = U + kB*T
                kB is Boltzmann's constant
Total free energy                 ...  -2379.04493964 Eh 
Thermal Enthalpy correction       ...      0.00094421 Eh       0.59 kcal/mol
-----------------------------------------------------------------------
Total Enthalpy                    ...  -2379.04399543 Eh


Note: Only C1 symmetry has been detected, increase convergence thresholds 
      if your molecule has a higher symmetry. Symmetry factor of 1.0 is   
      used for the rotational entropy correction. 
 

Note: Rotational entropy computed according to Herzberg 
Infrared and Raman Spectra, Chapter V,1, Van Nostrand Reinhold, 1945 
Point Group:  C1, Symmetry Number:   1  
Rotational constants in cm-1:     0.002278     0.001482     0.001274 

Vibrational entropy computed according to the QRRHO of S. Grimme
Chem.Eur.J. 2012 18 9955


-------
ENTROPY
-------

The entropy contributions are T*S = T*(S(el)+S(vib)+S(rot)+S(trans))
     S(el)   - electronic entropy
     S(vib)  - vibrational entropy
     S(rot)  - rotational entropy
     S(trans)- translational entropy
The entropies will be listed as mutliplied by the temperature to get
units of energy

Electronic entropy                ...      0.00000000 Eh      0.00 kcal/mol
Vibrational entropy               ...      0.10219131 Eh     64.13 kcal/mol
Rotational entropy                ...      0.01860522 Eh     11.67 kcal/mol
Translational entropy             ...      0.02166895 Eh     13.60 kcal/mol
-----------------------------------------------------------------------
Final entropy term                ...      0.14246548 Eh     89.40 kcal/mol

In case the symmetry of your molecule has not been determined correctly
or in case you have a reason to use a different symmetry number we print 
out the resulting rotational entropy values for sn=1,12 :
 --------------------------------------------------------
|  sn= 1 | S(rot)=       0.01860522 Eh     11.67 kcal/mol|
|  sn= 2 | S(rot)=       0.01795076 Eh     11.26 kcal/mol|
|  sn= 3 | S(rot)=       0.01756793 Eh     11.02 kcal/mol|
|  sn= 4 | S(rot)=       0.01729631 Eh     10.85 kcal/mol|
|  sn= 5 | S(rot)=       0.01708562 Eh     10.72 kcal/mol|
|  sn= 6 | S(rot)=       0.01691347 Eh     10.61 kcal/mol|
|  sn= 7 | S(rot)=       0.01676793 Eh     10.52 kcal/mol|
|  sn= 8 | S(rot)=       0.01664185 Eh     10.44 kcal/mol|
|  sn= 9 | S(rot)=       0.01653064 Eh     10.37 kcal/mol|
|  sn=10 | S(rot)=       0.01643116 Eh     10.31 kcal/mol|
|  sn=11 | S(rot)=       0.01634117 Eh     10.25 kcal/mol|
|  sn=12 | S(rot)=       0.01625902 Eh     10.20 kcal/mol|
 --------------------------------------------------------


-------------------
GIBBS FREE ENERGY
-------------------

The Gibbs free energy is G = H - T*S

Total enthalpy                    ...  -2379.04399543 Eh 
Total entropy correction          ...     -0.14246548 Eh    -89.40 kcal/mol
-----------------------------------------------------------------------
Final Gibbs free energy         ...  -2379.18646090 Eh

For completeness - the Gibbs free energy minus the electronic energy
G-E(el)                           ...      0.89464312 Eh    561.40 kcal/mol

--------------------------------------------------------------------------
WARNING: No preset parameters were found for the device that Open MPI
detected:

  Local host:            eu-g1-041-2
  Device name:           mlx5_0
  Device vendor ID:      0x02c9
  Device vendor part ID: 4123

Default device parameters will be used, which may result in lower
performance.  You can edit any of the files specified by the
btl_openib_device_param_files MCA parameter to set values for your
device.

NOTE: You can turn off this warning by setting the MCA parameter
      btl_openib_warn_no_device_params_found to 0.
--------------------------------------------------------------------------
--------------------------------------------------------------------------
WARNING: There was an error initializing an OpenFabrics device.

  Local host:   eu-g1-041-2
  Local device: mlx5_0
--------------------------------------------------------------------------

Timings for individual modules:

Sum of individual times         ...    25911.128 sec (= 431.852 min)
GTO integral calculation        ...       14.573 sec (=   0.243 min)   0.1 %
SCF iterations                  ...      394.881 sec (=   6.581 min)   1.5 %
SCF Gradient evaluation         ...       82.699 sec (=   1.378 min)   0.3 %
Geometry relaxation             ...        4.339 sec (=   0.072 min)   0.0 %
Analytical frequency calculation...    25414.636 sec (= 423.577 min)  98.1 %
                             ****ORCA TERMINATED NORMALLY****
TOTAL RUN TIME: 0 days 7 hours 12 minutes 9 seconds 175 msec
