
                                 *****************
                                 * O   R   C   A *
                                 *****************

           --- An Ab Initio, DFT and Semiempirical electronic structure package ---

                  #######################################################
                  #                        -***-                        #
                  #          Department of theory and spectroscopy      #
                  #               Directorship: Frank Neese             #
                  #        Max Planck Institute fuer Kohlenforschung    #
                  #                Kaiser Wilhelm Platz 1               #
                  #                 D-45470 Muelheim/Ruhr               #
                  #                      Germany                        #
                  #                                                     #
                  #                  All rights reserved                #
                  #                        -***-                        #
                  #######################################################


                         Program Version 4.2.0 -  RELEASE  -


 With contributions from (in alphabetic order):
   Daniel Aravena         : Magnetic Suceptibility
   Michael Atanasov       : Ab Initio Ligand Field Theory (pilot matlab implementation)
   Alexander A. Auer      : GIAO ZORA, VPT2
   Ute Becker             : Parallelization
   Giovanni Bistoni       : ED, misc. LED, open-shell LED, HFLED
   Martin Brehm           : Molecular dynamics
   Dmytro Bykov           : SCF Hessian
   Vijay G. Chilkuri      : MRCI spin determinant printing, contributions to CSF-ICE
   Dipayan Datta          : RHF DLPNO-CCSD density
   Achintya Kumar Dutta   : EOM-CC, STEOM-CC
   Dmitry Ganyushin       : Spin-Orbit,Spin-Spin,Magnetic field MRCI
   Miquel Garcia          : C-PCM Hessian, Gaussian charge scheme
   Yang Guo               : DLPNO-NEVPT2, CIM, IAO-localization
   Andreas Hansen         : Spin unrestricted coupled pair/coupled cluster methods
   Benjamin Helmich-Paris : CASSCF linear response (MC-RPA)
   Lee Huntington         : MR-EOM, pCC
   Robert Izsak           : Overlap fitted RIJCOSX, COSX-SCS-MP3, EOM
   Christian Kollmar      : KDIIS, OOCD, Brueckner-CCSD(T), CCSD density
   Simone Kossmann        : Meta GGA functionals, TD-DFT gradient, OOMP2, MP2 Hessian
   Martin Krupicka        : AUTO-CI
   Lucas Lang             : DCDCAS
   Dagmar Lenk            : GEPOL surface, SMD
   Dimitrios Liakos       : Extrapolation schemes; Compound Job, initial MDCI parallelization
   Dimitrios Manganas     : Further ROCIS development; embedding schemes
   Dimitrios Pantazis     : SARC Basis sets
   Taras Petrenko         : DFT Hessian,TD-DFT gradient, ASA, ECA, R-Raman, ABS, FL, XAS/XES, NRVS
   Peter Pinski           : DLPNO-MP2, DLPNO-MP2 Gradient
   Christoph Reimann      : Effective Core Potentials
   Marius Retegan         : Local ZFS, SOC
   Christoph Riplinger    : Optimizer, TS searches, QM/MM, DLPNO-CCSD(T), (RO)-DLPNO pert. Triples
   Tobias Risthaus        : Range-separated hybrids, TD-DFT gradient, RPA, STAB
   Michael Roemelt        : Original ROCIS implementation
   Masaaki Saitow         : Open-shell DLPNO-CCSD energy and density
   Barbara Sandhoefer     : DKH picture change effects
   Avijit Sen             : IP-ROCIS
   Kantharuban Sivalingam : CASSCF convergence, NEVPT2, FIC-MRCI
   Bernardo de Souza      : ESD, SOC TD-DFT
   Georgi Stoychev        : AutoAux, RI-MP2 NMR
   Willem Van den Heuvel  : Paramagnetic NMR
   Boris Wezisla          : Elementary symmetry handling
   Frank Wennmohs         : Technical directorship


 We gratefully acknowledge several colleagues who have allowed us to
 interface, adapt or use parts of their codes:
   Stefan Grimme, W. Hujo, H. Kruse,             : VdW corrections, initial TS optimization,
                  C. Bannwarth                     DFT functionals, gCP, sTDA/sTD-DF
   Ed Valeev, F. Pavosevic, A. Kumar             : LibInt (2-el integral package), F12 methods
   Garnet Chan, S. Sharma, J. Yang, R. Olivares  : DMRG
   Ulf Ekstrom                                   : XCFun DFT Library
   Mihaly Kallay                                 : mrcc  (arbitrary order and MRCC methods)
   Andreas Klamt, Michael Diedenhofen            : otool_cosmo (COSMO solvation model)
   Jiri Pittner, Ondrej Demel                    : Mk-CCSD
   Frank Weinhold                                : gennbo (NPA and NBO analysis)
   Christopher J. Cramer and Donald G. Truhlar   : smd solvation model
   Lars Goerigk                                  : TD-DFT with DH, B97 family of functionals
   V. Asgeirsson, H. Jonsson                     : NEB implementation
   FAccTs GmbH                                   : IRC, NEB, NEB-TS, Multilevel, MM, QM/MM, CI optimization
   S Lehtola, MJT Oliveira, MAL Marques          : LibXC Library


 Your calculation uses the libint2 library for the computation of 2-el integrals
 For citations please refer to: http://libint.valeyev.net

 Your ORCA version has been built with support for libXC version: 4.2.3
 For citations please refer to: https://tddft.org/programs/libxc/

 This ORCA versions uses:
   CBLAS   interface :  Fast vector & matrix operations
   LAPACKE interface :  Fast linear algebra routines
   SCALAPACK package :  Parallel linear algebra routines




***************************************
The coordinates will be read from file: 15.xyz
***************************************


Your calculation utilizes the atom-pairwise dispersion correction
with the Becke-Johnson damping scheme (D3BJ)
Cite in your paper:
S.Grimme, S.Ehrlich, L.Goerigk, J Comput Chem, (2011), 32, 1456–1465 
S.Grimme, J.Antony, S.Ehrlich and H.Krieg, J.Chem.Phys., 132, (2010), 154104 
   

----- Orbital basis set information -----
Your calculation utilizes the basis: def2-TZVP
   F. Weigend and R. Ahlrichs, Phys. Chem. Chem. Phys. 7, 3297 (2005).

----- AuxJ basis set information -----
Your calculation utilizes the auxiliary basis: def2/J
   F. Weigend, Phys. Chem. Chem. Phys. 8, 1057 (2006).

================================================================================
                                        WARNINGS
                       Please study these warnings very carefully!
================================================================================


WARNING: Geometry Optimization
  ===> : Switching off AutoStart
         For restart on a previous wavefunction, please use MOREAD

INFO   : the flag for use of LIBINT has been found!

================================================================================
                                       INPUT FILE
================================================================================
NAME = 15.inp
|  1> !RI BP86 def2-tzvp def2/J D3BJ TIGHTSCF TightOpt Grid5 FinalGrid6 freq
|  2> %maxcore 4000
|  3> %pal nprocs 24
|  4> end
|  5> * xyzfile 0 1 15.xyz 
|  6> 
|  7>                          ****END OF INPUT****
================================================================================

                       *****************************
                       * Geometry Optimization Run *
                       *****************************

Geometry optimization settings:
Update method            Update   .... BFGS
Choice of coordinates    CoordSys .... Z-matrix Internals
Initial Hessian          InHess   .... Almoef's Model

Convergence Tolerances:
Energy Change            TolE     ....  1.0000e-06 Eh
Max. Gradient            TolMAXG  ....  1.0000e-04 Eh/bohr
RMS Gradient             TolRMSG  ....  3.0000e-05 Eh/bohr
Max. Displacement        TolMAXD  ....  1.0000e-03 bohr
RMS Displacement         TolRMSD  ....  6.0000e-04 bohr
Strict Convergence                ....  False
------------------------------------------------------------------------------
                        ORCA OPTIMIZATION COORDINATE SETUP
------------------------------------------------------------------------------

The optimization will be done in new redundant internal coordinates
Making redundant internal coordinates   ...  (new redundants) done
Evaluating the initial hessian          ...  (Almloef) done
Evaluating the coordinates              ...  done
Calculating the B-matrix                .... done
Calculating the G-matrix                .... done
Diagonalizing the G-matrix              .... done
Small eigenvalue found = 1.629e-04
Small eigenvalue found = 5.165e-04
Small eigenvalue found = 1.559e-03
Small eigenvalue found = 2.031e-03
Small eigenvalue found = 2.876e-03
Small eigenvalue found = 3.915e-03
Small eigenvalue found = 5.866e-03
Small eigenvalue found = 7.031e-03
Small eigenvalue found = 7.808e-03
Small eigenvalue found = 8.962e-03
Small eigenvalue found = 9.804e-03
Small eigenvalue found = 9.974e-03
Small eigenvalue found = 1.307e-02
Small eigenvalue found = 1.511e-02
Small eigenvalue found = 1.569e-02
Small eigenvalue found = 1.612e-02
Small eigenvalue found = 1.884e-02
Small eigenvalue found = 2.185e-02
Small eigenvalue found = 2.483e-02
Small eigenvalue found = 2.720e-02
Small eigenvalue found = 2.855e-02
The first mode is                       ....  323
The number of degrees of freedom        ....  339

    -----------------------------------------------------------------
                    Redundant Internal Coordinates


    -----------------------------------------------------------------
         Definition                    Initial Value    Approx d2E/dq
    -----------------------------------------------------------------
      1. B(C   1,O   0)                  1.2307         1.004654   
      2. B(C   2,C   1)                  1.5515         0.345248   
      3. B(C   3,C   2)                  1.5275         0.376980   
      4. B(C   4,C   3)                  1.5350         0.366743   
      5. B(C   5,C   4)                  1.5326         0.370090   
      6. B(N   6,C   2)                  1.4839         0.396297   
      7. B(N   6,C   5)                  1.4808         0.400925   
      8. B(C   7,N   6)                  1.3520         0.643518   
      9. B(O   8,C   7)                  1.2478         0.943459   
     10. B(N   9,C   1)                  1.3572         0.631312   
     11. B(C  10,N   9)                  1.4613         0.430579   
     12. B(C  11,C  10)                  1.5519         0.344712   
     13. B(N  12,C  11)                  1.3749         0.591572   
     14. B(C  13,N  12)                  1.4559         0.439231   
     15. B(C  14,C  13)                  1.5387         0.361869   
     16. B(N  15,C  14)                  1.3498         0.648546   
     17. B(C  16,N  15)                  1.4580         0.435832   
     18. B(C  17,C  16)                  1.5512         0.345613   
     19. B(C  18,C  17)                  1.5474         0.350463   
     20. B(C  19,C  18)                  1.5305         0.372823   
     21. B(N  20,C  19)                  1.3627         0.618558   
     22. B(C  21,N  20)                  1.4562         0.438762   
     23. B(C  22,C  21)                  1.5346         0.367359   
     24. B(N  23,C  22)                  1.3567         0.632495   
     25. B(C  24,N  23)                  1.4519         0.445772   
     26. B(C  24,C   7)                  1.5267         0.378116   
     27. B(C  25,C  24)                  1.5404         0.359570   
     28. B(O  26,C  22)                  1.2349         0.989437   
     29. B(C  27,C  21)                  1.5362         0.365207   
     30. B(C  28,C  27)                  1.5366         0.364653   
     31. B(C  29,C  28)                  1.5326         0.370060   
     32. B(C  30,C  28)                  1.5335         0.368863   
     33. B(O  31,C  19)                  1.2358         0.985861   
     34. B(C  32,C  18)                  1.5422         0.357216   
     35. B(C  33,C  32)                  1.5086         0.404156   
     36. B(C  34,C  33)                  1.5246         0.381028   
     37. B(C  35,C  34)                  1.5300         0.373638   
     38. B(C  36,C  35)                  1.5301         0.373400   
     39. B(C  37,C  36)                  1.5301         0.373372   
     40. B(C  38,C  37)                  1.5303         0.373138   
     41. B(C  39,C  38)                  1.5302         0.373363   
     42. B(C  40,C  39)                  1.5310         0.372229   
     43. B(C  41,C  40)                  1.5299         0.373741   
     44. B(O  42,C  32)                  1.2194         1.047075   
     45. B(O  43,C  17)                  1.4183         0.504309   
     46. B(O  44,C  14)                  1.2403         0.969747   
     47. B(C  45,C  13)                  1.5352         0.366505   
     48. B(C  46,C  45)                  1.5277         0.376801   
     49. B(O  47,C  11)                  1.2244         1.028105   
     50. B(C  48,C  10)                  1.5520         0.344557   
     51. B(C  49,C  48)                  1.5313         0.371749   
     52. B(C  50,C  48)                  1.5344         0.367619   
     53. B(H  51,C   2)                  1.1002         0.346908   
     54. B(H  52,C   3)                  1.0996         0.347667   
     55. B(H  53,C   3)                  1.0953         0.353129   
     56. B(H  54,C   4)                  1.0979         0.349796   
     57. B(H  55,C   4)                  1.0966         0.351467   
     58. B(H  56,C   5)                  1.0984         0.349100   
     59. B(H  57,C   5)                  1.1010         0.345887   
     60. B(H  58,N   9)                  1.0280         0.405023   
     61. B(H  59,C  10)                  1.1042         0.341789   
     62. B(H  60,N  12)                  1.0177         0.420587   
     63. B(H  61,C  13)                  1.1029         0.343440   
     64. B(H  62,N  15)                  1.0157         0.423807   
     65. B(H  63,C  16)                  1.1000         0.347162   
     66. B(H  64,C  16)                  1.0958         0.352460   
     67. B(H  65,C  17)                  1.1098         0.334847   
     68. B(H  66,C  18)                  1.0996         0.347641   
     69. B(H  67,N  20)                  1.0180         0.420236   
     70. B(H  68,C  21)                  1.0986         0.348896   
     71. B(H  69,H  60)                  4.3516         0.000000   
     72. B(H  69,N  23)                  1.0182         0.419816   
     73. B(H  70,C  24)                  1.0989         0.348536   
     74. B(H  71,C  25)                  1.0969         0.351034   
     75. B(H  72,C  25)                  1.0988         0.348697   
     76. B(H  73,C  25)                  1.0981         0.349527   
     77. B(H  74,C  27)                  1.1017         0.344928   
     78. B(H  75,C  27)                  1.1021         0.344392   
     79. B(H  76,C  28)                  1.1050         0.340742   
     80. B(H  77,C  29)                  1.0996         0.347653   
     81. B(H  78,C  29)                  1.0996         0.347598   
     82. B(H  79,C  29)                  1.1013         0.345432   
     83. B(H  80,C  30)                  1.0994         0.347840   
     84. B(H  81,C  30)                  1.1011         0.345658   
     85. B(H  82,C  30)                  1.0994         0.347887   
     86. B(H  83,C  33)                  1.1045         0.341385   
     87. B(H  84,C  33)                  1.1040         0.342110   
     88. B(H  85,C  34)                  1.1016         0.345026   
     89. B(H  86,C  34)                  1.1010         0.345893   
     90. B(H  87,C  35)                  1.1047         0.341221   
     91. B(H  88,C  35)                  1.1046         0.341279   
     92. B(H  89,C  36)                  1.1042         0.341784   
     93. B(H  90,C  36)                  1.1041         0.341899   
     94. B(H  91,C  37)                  1.1044         0.341521   
     95. B(H  92,C  37)                  1.1045         0.341437   
     96. B(H  93,C  38)                  1.1044         0.341533   
     97. B(H  94,C  38)                  1.1044         0.341593   
     98. B(H  95,C  39)                  1.1046         0.341313   
     99. B(H  96,C  39)                  1.1046         0.341252   
    100. B(H  97,C  40)                  1.1034         0.342752   
    101. B(H  98,C  40)                  1.1034         0.342786   
    102. B(H  99,C  41)                  1.0995         0.347731   
    103. B(H 100,C  41)                  1.1008         0.346105   
    104. B(H 101,C  41)                  1.1008         0.346135   
    105. B(H 102,O  43)                  0.9886         0.468139   
    106. B(H 103,C  45)                  1.0984         0.349160   
    107. B(H 104,C  45)                  1.1061         0.339480   
    108. B(H 105,C  46)                  1.0993         0.347966   
    109. B(H 106,C  46)                  1.0995         0.347686   
    110. B(H 107,H  54)                  2.4173         0.000526   
    111. B(H 107,C  46)                  1.0996         0.347683   
    112. B(H 108,C  48)                  1.0995         0.347703   
    113. B(H 109,C  49)                  1.0975         0.350302   
    114. B(H 110,C  49)                  1.0990         0.348360   
    115. B(H 111,C  49)                  1.1018         0.344843   
    116. B(H 112,C  50)                  1.0956         0.352743   
    117. B(H 113,C  50)                  1.1029         0.343488   
    118. B(H 114,C  50)                  1.0993         0.348042   
    119. A(O   0,C   1,N   9)          123.9786         0.469144   
    120. A(C   2,C   1,N   9)          113.4527         0.389983   
    121. A(O   0,C   1,C   2)          122.5631         0.423357   
    122. A(C   1,C   2,H  51)          108.3598         0.318212   
    123. A(N   6,C   2,H  51)          108.1684         0.323533   
    124. A(C   1,C   2,N   6)          111.4821         0.359877   
    125. A(C   1,C   2,C   3)          111.8078         0.359052   
    126. A(C   3,C   2,H  51)          113.7346         0.322819   
    127. A(C   3,C   2,N   6)          103.2007         0.365322   
    128. A(C   4,C   3,H  53)          112.5092         0.322303   
    129. A(C   4,C   3,H  52)          111.0733         0.321482   
    130. A(C   2,C   3,C   4)          103.1234         0.362769   
    131. A(C   2,C   3,H  53)          110.9907         0.323762   
    132. A(C   2,C   3,H  52)          109.7278         0.322935   
    133. A(H  52,C   3,H  53)          109.2855         0.288357   
    134. A(H  54,C   4,H  55)          108.2648         0.288419   
    135. A(C   3,C   4,H  55)          113.3524         0.322054   
    136. A(C   3,C   4,C   5)          103.7391         0.361629   
    137. A(C   3,C   4,H  54)          109.3902         0.321803   
    138. A(C   5,C   4,H  55)          111.8029         0.322534   
    139. A(C   5,C   4,H  54)          110.2309         0.322282   
    140. A(H  56,C   5,H  57)          108.2345         0.287609   
    141. A(C   4,C   5,N   6)          103.5611         0.364894   
    142. A(C   4,C   5,H  56)          112.7588         0.322177   
    143. A(N   6,C   5,H  57)          110.0957         0.323993   
    144. A(N   6,C   5,H  56)          110.7566         0.324486   
    145. A(C   4,C   5,H  57)          111.3976         0.321690   
    146. A(C   5,N   6,C   7)          126.1052         0.399122   
    147. A(C   2,N   6,C   7)          121.6058         0.398308   
    148. A(C   2,N   6,C   5)          111.6386         0.366894   
    149. A(O   8,C   7,C  24)          119.8640         0.425490   
    150. A(N   6,C   7,O   8)          122.6312         0.465403   
    151. A(N   6,C   7,C  24)          117.4579         0.397577   
    152. A(C   1,N   9,C  10)          122.6793         0.402808   
    153. A(C  10,N   9,H  58)          120.7463         0.333621   
    154. A(C   1,N   9,H  58)          116.5588         0.355752   
    155. A(C  48,C  10,H  59)          107.3538         0.317338   
    156. A(C  11,C  10,H  59)          105.4882         0.317361   
    157. A(N   9,C  10,C  11)          111.2488         0.364914   
    158. A(N   9,C  10,C  48)          114.9226         0.364886   
    159. A(N   9,C  10,H  59)          104.9366         0.327176   
    160. A(C  11,C  10,C  48)          112.0964         0.353518   
    161. A(N  12,C  11,O  47)          122.7714         0.465553   
    162. A(C  10,C  11,O  47)          122.9107         0.424990   
    163. A(C  10,C  11,N  12)          114.1450         0.385482   
    164. A(C  13,N  12,H  60)          117.8959         0.336831   
    165. A(C  11,N  12,C  13)          122.4193         0.399620   
    166. A(C  11,N  12,H  60)          116.4845         0.354109   
    167. A(C  14,C  13,C  45)          110.8393         0.360206   
    168. A(N  12,C  13,H  61)          105.8637         0.328512   
    169. A(C  14,C  13,H  61)          105.8982         0.320138   
    170. A(N  12,C  13,C  14)          112.8532         0.369223   
    171. A(C  45,C  13,H  61)          109.5537         0.320805   
    172. A(N  12,C  13,C  45)          111.5152         0.370032   
    173. A(C  13,C  14,N  15)          115.9240         0.395063   
    174. A(N  15,C  14,O  44)          123.5938         0.468420   
    175. A(C  13,C  14,O  44)          120.4820         0.424241   
    176. A(C  14,N  15,H  62)          116.6434         0.360151   
    177. A(C  16,N  15,H  62)          119.8367         0.336823   
    178. A(C  14,N  15,C  16)          123.3844         0.405595   
    179. A(H  63,C  16,H  64)          108.8917         0.288206   
    180. A(C  17,C  16,H  64)          110.7290         0.319092   
    181. A(N  15,C  16,H  63)          109.6634         0.328675   
    182. A(C  17,C  16,H  63)          108.3861         0.318305   
    183. A(N  15,C  16,C  17)          112.1290         0.365836   
    184. A(N  15,C  16,H  64)          106.9955         0.329498   
    185. A(O  43,C  17,H  65)          110.1624         0.334707   
    186. A(C  18,C  17,H  65)          105.0535         0.317156   
    187. A(C  16,C  17,H  65)          105.9478         0.316438   
    188. A(C  16,C  17,C  18)          116.1773         0.354695   
    189. A(C  18,C  17,O  43)          107.2186         0.376037   
    190. A(C  16,C  17,O  43)          111.9986         0.375133   
    191. A(C  19,C  18,H  66)          109.2186         0.322344   
    192. A(C  17,C  18,H  66)          105.8783         0.319101   
    193. A(C  17,C  18,C  32)          118.1857         0.356688   
    194. A(C  17,C  18,C  19)          108.1544         0.359291   
    195. A(C  19,C  18,C  32)          110.9303         0.360461   
    196. A(C  32,C  18,H  66)          104.0340         0.320097   
    197. A(C  18,C  19,N  20)          113.9928         0.393852   
    198. A(N  20,C  19,O  31)          122.7793         0.465779   
    199. A(C  18,C  19,O  31)          123.1548         0.427773   
    200. A(C  19,N  20,H  67)          119.2614         0.356748   
    201. A(C  19,N  20,C  21)          122.3284         0.402696   
    202. A(C  21,N  20,H  67)          115.5666         0.336724   
    203. A(C  27,C  21,H  68)          110.7446         0.321446   
    204. A(C  22,C  21,H  68)          111.5090         0.321756   
    205. A(N  20,C  21,H  68)          105.9442         0.329310   
    206. A(N  20,C  21,C  22)          106.2675         0.370112   
    207. A(C  22,C  21,C  27)          110.5176         0.360914   
    208. A(N  20,C  21,C  27)          111.6990         0.369739   
    209. A(C  21,C  22,N  23)          116.2447         0.394372   
    210. A(C  21,C  22,O  26)          120.9105         0.426919   
    211. A(N  23,C  22,O  26)          122.8421         0.467994   
    212. A(C  22,N  23,C  24)          121.4386         0.405415   
    213. A(C  24,N  23,H  69)          116.4275         0.337558   
    214. A(C  22,N  23,H  69)          122.1326         0.358041   
    215. A(C  25,C  24,H  70)          109.0384         0.320575   
    216. A(N  23,C  24,H  70)          107.1036         0.330117   
    217. A(C   7,C  24,H  70)          111.5917         0.323226   
    218. A(N  23,C  24,C  25)          111.5999         0.369757   
    219. A(C   7,C  24,N  23)          107.6446         0.372971   
    220. A(C   7,C  24,C  25)          109.8478         0.361734   
    221. A(H  71,C  25,H  73)          109.3255         0.288329   
    222. A(C  24,C  25,H  73)          109.9633         0.320724   
    223. A(H  71,C  25,H  72)          108.4252         0.288222   
    224. A(C  24,C  25,H  72)          111.5019         0.320599   
    225. A(C  24,C  25,H  71)          108.9509         0.320950   
    226. A(H  72,C  25,H  73)          108.6363         0.288028   
    227. A(C  28,C  27,H  75)          109.8703         0.320684   
    228. A(C  21,C  27,C  28)          114.7167         0.360459   
    229. A(H  74,C  27,H  75)          107.1878         0.286875   
    230. A(C  21,C  27,H  75)          107.6399         0.320764   
    231. A(C  28,C  27,H  74)          109.3860         0.320766   
    232. A(C  21,C  27,H  74)          107.7575         0.320845   
    233. A(C  29,C  28,C  30)          110.6840         0.361980   
    234. A(C  27,C  28,C  30)          112.2500         0.361072   
    235. A(C  27,C  28,C  29)          109.8925         0.361271   
    236. A(C  30,C  28,H  76)          108.1882         0.320727   
    237. A(C  29,C  28,H  76)          107.7199         0.320897   
    238. A(C  27,C  28,H  76)          107.9474         0.320126   
    239. A(C  28,C  29,H  79)          110.7056         0.321616   
    240. A(H  78,C  29,H  79)          107.6889         0.287356   
    241. A(H  77,C  29,H  79)          107.7824         0.287363   
    242. A(H  77,C  29,H  78)          108.0356         0.287644   
    243. A(C  28,C  29,H  78)          111.1793         0.321945   
    244. A(C  28,C  29,H  77)          111.2961         0.321954   
    245. A(H  81,C  30,H  82)          107.7996         0.287423   
    246. A(H  80,C  30,H  82)          107.2403         0.287705   
    247. A(C  28,C  30,H  82)          110.8743         0.321818   
    248. A(H  80,C  30,H  81)          107.4191         0.287416   
    249. A(C  28,C  30,H  81)          110.6411         0.321480   
    250. A(C  28,C  30,H  80)          112.6532         0.321811   
    251. A(C  33,C  32,O  42)          122.7811         0.438753   
    252. A(C  18,C  32,O  42)          118.1756         0.429115   
    253. A(C  18,C  32,C  33)          119.0223         0.365465   
    254. A(C  32,C  33,C  34)          114.3110         0.369533   
    255. A(C  34,C  33,H  84)          111.5026         0.322647   
    256. A(H  83,C  33,H  84)          105.8072         0.286116   
    257. A(C  32,C  33,H  84)          107.2440         0.325785   
    258. A(C  34,C  33,H  83)          110.7459         0.322535   
    259. A(C  32,C  33,H  83)          106.7540         0.325671   
    260. A(C  33,C  34,C  35)          112.4256         0.364592   
    261. A(H  85,C  34,H  86)          105.7038         0.287082   
    262. A(C  35,C  34,H  86)          110.0736         0.322194   
    263. A(C  33,C  34,H  86)          109.2742         0.323230   
    264. A(C  35,C  34,H  85)          109.9548         0.322061   
    265. A(C  33,C  34,H  85)          109.1827         0.323097   
    266. A(C  34,C  35,C  36)          113.2318         0.363333   
    267. A(H  87,C  35,H  88)          105.8971         0.285986   
    268. A(C  36,C  35,H  88)          109.2539         0.321452   
    269. A(C  34,C  35,H  88)          109.5214         0.321486   
    270. A(C  36,C  35,H  87)          109.2327         0.321443   
    271. A(C  34,C  35,H  87)          109.4413         0.321477   
    272. A(C  35,C  36,C  37)          113.5203         0.363289   
    273. A(H  89,C  36,H  90)          105.8858         0.286141   
    274. A(C  37,C  36,H  90)          109.3419         0.321544   
    275. A(C  35,C  36,H  90)          109.2310         0.321548   
    276. A(C  37,C  36,H  89)          109.3427         0.321526   
    277. A(C  35,C  36,H  89)          109.2367         0.321530   
    278. A(C  36,C  37,C  38)          113.5262         0.363245   
    279. A(H  91,C  37,H  92)          105.8884         0.286046   
    280. A(C  38,C  37,H  92)          109.2782         0.321440   
    281. A(C  36,C  37,H  92)          109.3045         0.321473   
    282. A(C  38,C  37,H  91)          109.2717         0.321453   
    283. A(C  36,C  37,H  91)          109.2893         0.321486   
    284. A(C  37,C  38,C  39)          113.5660         0.363244   
    285. A(H  93,C  38,H  94)          105.8765         0.286068   
    286. A(C  39,C  38,H  94)          109.2885         0.321495   
    287. A(C  37,C  38,H  94)          109.2614         0.321464   
    288. A(C  39,C  38,H  93)          109.2935         0.321486   
    289. A(C  37,C  38,H  93)          109.2687         0.321455   
    290. A(C  38,C  39,C  40)          113.6046         0.363092   
    291. A(H  95,C  39,H  96)          105.8517         0.285995   
    292. A(C  40,C  39,H  96)          109.2337         0.321283   
    293. A(C  38,C  39,H  96)          109.3175         0.321443   
    294. A(C  40,C  39,H  95)          109.2318         0.321292   
    295. A(C  38,C  39,H  95)          109.3108         0.321452   
    296. A(C  39,C  40,C  41)          113.1449         0.363155   
    297. A(H  97,C  40,H  98)          105.9260         0.286383   
    298. A(C  41,C  40,H  98)          109.6353         0.321732   
    299. A(C  39,C  40,H  98)          109.1196         0.321519   
    300. A(C  41,C  40,H  97)          109.6356         0.321727   
    301. A(C  39,C  40,H  97)          109.1229         0.321514   
    302. A(H 100,C  41,H 101)          107.4311         0.287254   
    303. A(H  99,C  41,H 101)          107.6885         0.287464   
    304. A(C  40,C  41,H 101)          111.0837         0.322245   
    305. A(H  99,C  41,H 100)          107.6921         0.287460   
    306. A(C  40,C  41,H 100)          111.0807         0.322240   
    307. A(C  40,C  41,H  99)          111.6721         0.322488   
    308. A(C  17,O  43,H 102)          103.9418         0.350978   
    309. A(C  13,C  45,C  46)          112.7511         0.362700   
    310. A(C  46,C  45,H 104)          110.7501         0.321651   
    311. A(C  13,C  45,H 104)          108.3843         0.320197   
    312. A(C  46,C  45,H 103)          111.1072         0.323137   
    313. A(C  13,C  45,H 103)          107.3477         0.321673   
    314. A(H 103,C  45,H 104)          106.2155         0.286778   
    315. A(H 106,C  46,H 107)          107.3293         0.287659   
    316. A(H 105,C  46,H 107)          108.2905         0.287695   
    317. A(C  45,C  46,H 107)          112.0982         0.322912   
    318. A(H 105,C  46,H 106)          107.6254         0.287696   
    319. A(C  45,C  46,H 106)          110.5211         0.322913   
    320. A(C  45,C  46,H 105)          110.8009         0.322955   
    321. A(C  50,C  48,H 108)          108.8746         0.321613   
    322. A(C  49,C  48,H 108)          108.8615         0.322202   
    323. A(C  10,C  48,H 108)          107.3295         0.318227   
    324. A(C  49,C  48,C  50)          110.2341         0.362052   
    325. A(C  10,C  48,C  50)          109.8269         0.357398   
    326. A(C  10,C  48,C  49)          111.6272         0.358078   
    327. A(H 110,C  49,H 111)          107.5321         0.287378   
    328. A(H 109,C  49,H 111)          108.2074         0.287627   
    329. A(C  48,C  49,H 111)          111.3977         0.321766   
    330. A(H 109,C  49,H 110)          107.5608         0.288084   
    331. A(C  48,C  49,H 110)          109.6004         0.322301   
    332. A(C  48,C  49,H 109)          112.3530         0.322595   
    333. A(H 113,C  50,H 114)          107.5287         0.287160   
    334. A(H 112,C  50,H 114)          108.3077         0.288356   
    335. A(C  48,C  50,H 114)          110.2139         0.321664   
    336. A(H 112,C  50,H 113)          108.8402         0.287762   
    337. A(C  48,C  50,H 113)          110.5381         0.320971   
    338. A(C  48,C  50,H 112)          111.3037         0.322372   
    339. D(H  51,C   2,C   1,N   9)    -54.9218         0.009030   
    340. D(C   3,C   2,C   1,N   9)    178.9517         0.009030   
    341. D(N   6,C   2,C   1,N   9)     64.0036         0.009030   
    342. D(N   6,C   2,C   1,O   0)   -115.1733         0.009030   
    343. D(C   3,C   2,C   1,O   0)     -0.2252         0.009030   
    344. D(H  51,C   2,C   1,O   0)    125.9013         0.009030   
    345. D(C   4,C   3,C   2,N   6)     33.0080         0.011336   
    346. D(H  53,C   3,C   2,H  51)    -89.3593         0.011336   
    347. D(H  53,C   3,C   2,C   1)     33.7707         0.011336   
    348. D(C   4,C   3,C   2,H  51)    149.9443         0.011336   
    349. D(H  53,C   3,C   2,N   6)    153.7044         0.011336   
    350. D(H  52,C   3,C   2,H  51)     31.5309         0.011336   
    351. D(C   4,C   3,C   2,C   1)    -86.9257         0.011336   
    352. D(H  52,C   3,C   2,C   1)    154.6609         0.011336   
    353. D(H  52,C   3,C   2,N   6)    -85.4053         0.011336   
    354. D(H  55,C   4,C   3,H  53)     80.1985         0.010764   
    355. D(H  55,C   4,C   3,H  52)    -42.6772         0.010764   
    356. D(H  54,C   4,C   3,H  52)   -163.5986         0.010764   
    357. D(H  55,C   4,C   3,C   2)   -160.1471         0.010764   
    358. D(H  54,C   4,C   3,H  53)    -40.7229         0.010764   
    359. D(C   5,C   4,C   3,C   2)    -38.6784         0.010764   
    360. D(H  54,C   4,C   3,C   2)     78.9316         0.010764   
    361. D(C   5,C   4,C   3,H  53)   -158.3329         0.010764   
    362. D(C   5,C   4,C   3,H  52)     78.7914         0.010764   
    363. D(N   6,C   5,C   4,C   3)     28.7990         0.010949   
    364. D(H  57,C   5,C   4,C   3)    -89.5034         0.010949   
    365. D(H  56,C   5,C   4,H  55)    -88.9297         0.010949   
    366. D(H  56,C   5,C   4,C   3)    148.5700         0.010949   
    367. D(H  57,C   5,C   4,H  54)    153.4730         0.010949   
    368. D(H  56,C   5,C   4,H  54)     31.5463         0.010949   
    369. D(H  57,C   5,C   4,H  55)     32.9970         0.010949   
    370. D(N   6,C   5,C   4,H  54)    -88.2246         0.010949   
    371. D(N   6,C   5,C   4,H  55)    151.2994         0.010949   
    372. D(C   5,N   6,C   2,C   3)    -15.6382         0.013414   
    373. D(C   7,N   6,C   5,H  57)    -59.8974         0.013723   
    374. D(C   7,N   6,C   5,H  56)     59.7710         0.013723   
    375. D(C   7,N   6,C   5,C   4)   -179.0987         0.013723   
    376. D(C   2,N   6,C   5,H  57)    110.9152         0.013723   
    377. D(C   2,N   6,C   5,H  56)   -129.4164         0.013723   
    378. D(C   7,N   6,C   2,H  51)     34.8466         0.013414   
    379. D(C   2,N   6,C   5,C   4)     -8.2861         0.013723   
    380. D(C   7,N   6,C   2,C   3)    155.6500         0.013414   
    381. D(C   5,N   6,C   2,C   1)    104.5190         0.013414   
    382. D(C   7,N   6,C   2,C   1)    -84.1928         0.013414   
    383. D(C   5,N   6,C   2,H  51)   -136.4416         0.013414   
    384. D(C  24,C   7,N   6,C   5)      3.2537         0.033738   
    385. D(C  24,C   7,N   6,C   2)   -166.7106         0.033738   
    386. D(O   8,C   7,N   6,C   5)   -179.2430         0.033738   
    387. D(O   8,C   7,N   6,C   2)     10.7926         0.033738   
    388. D(H  58,N   9,C   1,O   0)   -179.4171         0.032366   
    389. D(C  10,N   9,C   1,C   2)    179.9945         0.032366   
    390. D(H  58,N   9,C   1,C   2)      1.4195         0.032366   
    391. D(C  10,N   9,C   1,O   0)     -0.8421         0.032366   
    392. D(H  59,C  10,N   9,C   1)    178.3692         0.015807   
    393. D(C  48,C  10,N   9,H  58)    114.5547         0.015807   
    394. D(C  48,C  10,N   9,C   1)    -63.9622         0.015807   
    395. D(C  11,C  10,N   9,C   1)     64.7740         0.015807   
    396. D(H  59,C  10,N   9,H  58)     -3.1139         0.015807   
    397. D(C  11,C  10,N   9,H  58)   -116.7091         0.015807   
    398. D(O  47,C  11,C  10,N   9)   -154.7123         0.009004   
    399. D(N  12,C  11,C  10,H  59)    -83.2986         0.009004   
    400. D(N  12,C  11,C  10,C  48)    160.1791         0.009004   
    401. D(N  12,C  11,C  10,N   9)     29.9503         0.009004   
    402. D(O  47,C  11,C  10,H  59)     92.0389         0.009004   
    403. D(O  47,C  11,C  10,C  48)    -24.4834         0.009004   
    404. D(H  60,N  12,C  11,O  47)    167.7882         0.028143   
    405. D(H  60,N  12,C  11,C  10)    -16.8670         0.028143   
    406. D(C  13,N  12,C  11,O  47)      8.4528         0.028143   
    407. D(C  13,N  12,C  11,C  10)   -176.2024         0.028143   
    408. D(H  61,C  13,N  12,C  11)      1.9386         0.016450   
    409. D(H  61,C  13,N  12,H  60)   -157.1214         0.016450   
    410. D(C  45,C  13,N  12,H  60)    -38.0415         0.016450   
    411. D(C  45,C  13,N  12,C  11)    121.0185         0.016450   
    412. D(C  14,C  13,N  12,C  11)   -113.4527         0.016450   
    413. D(C  14,C  13,N  12,H  60)     87.4873         0.016450   
    414. D(O  44,C  14,C  13,C  45)    -48.9659         0.009839   
    415. D(O  44,C  14,C  13,N  12)   -174.8590         0.009839   
    416. D(N  15,C  14,C  13,H  61)   -110.0606         0.009839   
    417. D(N  15,C  14,C  13,C  45)    131.2031         0.009839   
    418. D(O  44,C  14,C  13,H  61)     69.7704         0.009839   
    419. D(N  15,C  14,C  13,N  12)      5.3101         0.009839   
    420. D(H  62,N  15,C  14,O  44)   -177.9454         0.034313   
    421. D(H  62,N  15,C  14,C  13)      1.8797         0.034313   
    422. D(C  16,N  15,C  14,O  44)     -2.1932         0.034313   
    423. D(C  16,N  15,C  14,C  13)    177.6319         0.034313   
    424. D(H  64,C  16,N  15,H  62)     -4.8009         0.016196   
    425. D(H  64,C  16,N  15,C  14)    179.5763         0.016196   
    426. D(H  63,C  16,N  15,H  62)    113.1521         0.016196   
    427. D(H  63,C  16,N  15,C  14)    -62.4707         0.016196   
    428. D(C  17,C  16,N  15,C  14)     57.9866         0.016196   
    429. D(C  17,C  16,N  15,H  62)   -126.3906         0.016196   
    430. D(H  65,C  17,C  16,H  64)    -96.6197         0.009644   
    431. D(H  65,C  17,C  16,H  63)    144.0000         0.009644   
    432. D(H  65,C  17,C  16,N  15)     22.8047         0.009644   
    433. D(O  43,C  17,C  16,H  64)    143.2429         0.009644   
    434. D(O  43,C  17,C  16,H  63)     23.8626         0.009644   
    435. D(O  43,C  17,C  16,N  15)    -97.3328         0.009644   
    436. D(C  18,C  17,C  16,H  64)     19.5773         0.009644   
    437. D(C  18,C  17,C  16,H  63)    -99.8030         0.009644   
    438. D(C  18,C  17,C  16,N  15)    139.0017         0.009644   
    439. D(H  66,C  18,C  17,H  65)    -57.7870         0.009894   
    440. D(H  66,C  18,C  17,O  43)     59.4086         0.009894   
    441. D(H  66,C  18,C  17,C  16)   -174.4827         0.009894   
    442. D(C  32,C  18,C  17,O  43)    -56.5972         0.009894   
    443. D(C  32,C  18,C  17,C  16)     69.5115         0.009894   
    444. D(C  32,C  18,C  17,H  65)   -173.7928         0.009894   
    445. D(C  19,C  18,C  17,H  65)     59.1771         0.009894   
    446. D(C  19,C  18,C  17,O  43)    176.3726         0.009894   
    447. D(C  19,C  18,C  17,C  16)    -57.5186         0.009894   
    448. D(O  31,C  19,C  18,H  66)   -167.7333         0.010398   
    449. D(O  31,C  19,C  18,C  32)    -53.6364         0.010398   
    450. D(O  31,C  19,C  18,C  17)     77.4809         0.010398   
    451. D(N  20,C  19,C  18,H  66)     15.3014         0.010398   
    452. D(N  20,C  19,C  18,C  17)    -99.4845         0.010398   
    453. D(N  20,C  19,C  18,C  32)    129.3983         0.010398   
    454. D(H  67,N  20,C  19,O  31)   -173.2813         0.030971   
    455. D(H  67,N  20,C  19,C  18)      3.6969         0.030971   
    456. D(C  21,N  20,C  19,O  31)    -13.2276         0.030971   
    457. D(C  21,N  20,C  19,C  18)    163.7506         0.030971   
    458. D(H  68,C  21,N  20,H  67)    162.6231         0.016415   
    459. D(H  68,C  21,N  20,C  19)      1.8865         0.016415   
    460. D(C  27,C  21,N  20,H  67)    -76.7029         0.016415   
    461. D(C  27,C  21,N  20,C  19)    122.5605         0.016415   
    462. D(C  22,C  21,N  20,H  67)     43.8994         0.016415   
    463. D(C  22,C  21,N  20,C  19)   -116.8372         0.016415   
    464. D(N  23,C  22,C  21,C  27)   -109.9149         0.010116   
    465. D(N  23,C  22,C  21,N  20)    128.7233         0.010116   
    466. D(O  26,C  22,C  21,H  68)   -165.6943         0.010116   
    467. D(O  26,C  22,C  21,C  27)     70.6648         0.010116   
    468. D(O  26,C  22,C  21,N  20)    -50.6971         0.010116   
    469. D(N  23,C  22,C  21,H  68)     13.7260         0.010116   
    470. D(H  69,N  23,C  22,O  26)    179.2241         0.032498   
    471. D(H  69,N  23,C  22,C  21)     -0.1840         0.032498   
    472. D(C  24,N  23,C  22,O  26)     -1.2166         0.032498   
    473. D(C  24,N  23,C  22,C  21)    179.3754         0.032498   
    474. D(H  70,C  24,N  23,H  69)   -145.8248         0.016948   
    475. D(H  70,C  24,N  23,C  22)     34.5919         0.016948   
    476. D(C  25,C  24,N  23,H  69)     94.9067         0.016948   
    477. D(C  25,C  24,N  23,C  22)    -84.6766         0.016948   
    478. D(C   7,C  24,N  23,H  69)    -25.6990         0.016948   
    479. D(C   7,C  24,N  23,C  22)    154.7177         0.016948   
    480. D(H  70,C  24,C   7,O   8)    147.6864         0.010675   
    481. D(H  70,C  24,C   7,N   6)    -34.7382         0.010675   
    482. D(C  25,C  24,C   7,O   8)    -91.2606         0.010675   
    483. D(C  25,C  24,C   7,N   6)     86.3148         0.010675   
    484. D(N  23,C  24,C   7,O   8)     30.4417         0.010675   
    485. D(N  23,C  24,C   7,N   6)   -151.9829         0.010675   
    486. D(H  73,C  25,C  24,H  70)   -178.5104         0.010374   
    487. D(H  73,C  25,C  24,N  23)    -60.3955         0.010374   
    488. D(H  73,C  25,C  24,C   7)     58.9128         0.010374   
    489. D(H  72,C  25,C  24,H  70)     60.9244         0.010374   
    490. D(H  72,C  25,C  24,N  23)    179.0393         0.010374   
    491. D(H  72,C  25,C  24,C   7)    -61.6524         0.010374   
    492. D(H  71,C  25,C  24,H  70)    -58.7089         0.010374   
    493. D(H  71,C  25,C  24,N  23)     59.4060         0.010374   
    494. D(H  71,C  25,C  24,C   7)    178.7143         0.010374   
    495. D(H  75,C  27,C  21,H  68)     59.6709         0.010680   
    496. D(H  75,C  27,C  21,C  22)   -176.2480         0.010680   
    497. D(H  75,C  27,C  21,N  20)    -58.1601         0.010680   
    498. D(H  74,C  27,C  21,H  68)    174.9755         0.010680   
    499. D(H  74,C  27,C  21,C  22)    -60.9434         0.010680   
    500. D(H  74,C  27,C  21,N  20)     57.1445         0.010680   
    501. D(C  28,C  27,C  21,H  68)    -62.9448         0.010680   
    502. D(C  28,C  27,C  21,C  22)     61.1363         0.010680   
    503. D(C  28,C  27,C  21,N  20)    179.2242         0.010680   
    504. D(H  76,C  28,C  27,H  75)   -178.2398         0.010649   
    505. D(H  76,C  28,C  27,H  74)     64.3558         0.010649   
    506. D(H  76,C  28,C  27,C  21)    -56.8357         0.010649   
    507. D(C  30,C  28,C  27,H  75)    -59.0953         0.010649   
    508. D(C  30,C  28,C  27,H  74)   -176.4997         0.010649   
    509. D(C  30,C  28,C  27,C  21)     62.3088         0.010649   
    510. D(C  29,C  28,C  27,H  75)     64.5383         0.010649   
    511. D(C  29,C  28,C  27,H  74)    -52.8661         0.010649   
    512. D(C  29,C  28,C  27,C  21)   -174.0576         0.010649   
    513. D(H  79,C  29,C  28,C  30)     62.1533         0.010947   
    514. D(H  79,C  29,C  28,C  27)    -62.3903         0.010947   
    515. D(H  78,C  29,C  28,H  76)     60.5887         0.010947   
    516. D(H  78,C  29,C  28,C  30)    -57.5041         0.010947   
    517. D(H  78,C  29,C  28,C  27)    177.9523         0.010947   
    518. D(H  77,C  29,C  28,H  76)    -59.9023         0.010947   
    519. D(H  77,C  29,C  28,C  30)   -177.9951         0.010947   
    520. D(H  79,C  29,C  28,H  76)   -179.7540         0.010947   
    521. D(H  77,C  29,C  28,C  27)     57.4613         0.010947   
    522. D(H  82,C  30,C  28,H  76)    -62.3175         0.010881   
    523. D(H  82,C  30,C  28,C  29)     55.4892         0.010881   
    524. D(H  82,C  30,C  28,C  27)    178.6793         0.010881   
    525. D(H  81,C  30,C  28,H  76)    178.1277         0.010881   
    526. D(H  81,C  30,C  28,C  29)    -64.0656         0.010881   
    527. D(H  81,C  30,C  28,C  27)     59.1245         0.010881   
    528. D(H  80,C  30,C  28,H  76)     57.8727         0.010881   
    529. D(H  80,C  30,C  28,C  29)    175.6794         0.010881   
    530. D(H  80,C  30,C  28,C  27)    -61.1305         0.010881   
    531. D(O  42,C  32,C  18,H  66)     20.4403         0.009608   
    532. D(O  42,C  32,C  18,C  19)    -96.8741         0.009608   
    533. D(O  42,C  32,C  18,C  17)    137.4343         0.009608   
    534. D(C  33,C  32,C  18,H  66)   -161.1801         0.009608   
    535. D(C  33,C  32,C  18,C  19)     81.5056         0.009608   
    536. D(C  33,C  32,C  18,C  17)    -44.1861         0.009608   
    537. D(H  84,C  33,C  32,O  42)    128.9435         0.012111   
    538. D(H  84,C  33,C  32,C  18)    -49.3576         0.012111   
    539. D(H  83,C  33,C  32,O  42)   -118.0207         0.012111   
    540. D(H  83,C  33,C  32,C  18)     63.6783         0.012111   
    541. D(C  34,C  33,C  32,O  42)      4.7936         0.012111   
    542. D(C  34,C  33,C  32,C  18)   -173.5075         0.012111   
    543. D(H  86,C  34,C  33,H  84)   -178.3032         0.011568   
    544. D(H  86,C  34,C  33,H  83)     64.1609         0.011568   
    545. D(H  86,C  34,C  33,C  32)    -56.4602         0.011568   
    546. D(H  85,C  34,C  33,H  84)    -63.1368         0.011568   
    547. D(H  85,C  34,C  33,H  83)    179.3272         0.011568   
    548. D(H  85,C  34,C  33,C  32)     58.7061         0.011568   
    549. D(C  35,C  34,C  33,H  84)     59.1718         0.011568   
    550. D(C  35,C  34,C  33,H  83)    -58.3641         0.011568   
    551. D(C  35,C  34,C  33,C  32)   -178.9852         0.011568   
    552. D(H  88,C  35,C  34,H  86)   -179.6541         0.011147   
    553. D(H  88,C  35,C  34,H  85)     64.2897         0.011147   
    554. D(H  88,C  35,C  34,C  33)    -57.5812         0.011147   
    555. D(H  87,C  35,C  34,H  86)    -63.9752         0.011147   
    556. D(H  87,C  35,C  34,H  85)    179.9686         0.011147   
    557. D(H  87,C  35,C  34,C  33)     58.0977         0.011147   
    558. D(C  36,C  35,C  34,H  86)     58.1426         0.011147   
    559. D(C  36,C  35,C  34,H  85)    -57.9137         0.011147   
    560. D(C  36,C  35,C  34,C  33)   -179.7846         0.011147   
    561. D(H  90,C  36,C  35,H  87)     64.6955         0.011134   
    562. D(H  90,C  36,C  35,C  34)    -57.5385         0.011134   
    563. D(H  89,C  36,C  35,H  88)    -64.5013         0.011134   
    564. D(H  89,C  36,C  35,H  87)   -179.9149         0.011134   
    565. D(H  89,C  36,C  35,C  34)     57.8511         0.011134   
    566. D(C  37,C  36,C  35,H  88)     57.8065         0.011134   
    567. D(C  37,C  36,C  35,H  87)    -57.6070         0.011134   
    568. D(H  90,C  36,C  35,H  88)   -179.8909         0.011134   
    569. D(C  37,C  36,C  35,C  34)   -179.8411         0.011134   
    570. D(H  92,C  37,C  36,H  90)   -179.9323         0.011132   
    571. D(H  92,C  37,C  36,H  89)     64.5580         0.011132   
    572. D(H  92,C  37,C  36,C  35)    -57.6912         0.011132   
    573. D(H  91,C  37,C  36,H  90)    -64.4698         0.011132   
    574. D(H  91,C  37,C  36,H  89)   -179.9796         0.011132   
    575. D(H  91,C  37,C  36,C  35)     57.7713         0.011132   
    576. D(C  38,C  37,C  36,H  90)     57.7892         0.011132   
    577. D(C  38,C  37,C  36,H  89)    -57.7206         0.011132   
    578. D(C  38,C  37,C  36,C  35)   -179.9697         0.011132   
    579. D(H  94,C  38,C  37,H  92)   -179.9409         0.011119   
    580. D(H  94,C  38,C  37,H  91)     64.6210         0.011119   
    581. D(H  94,C  38,C  37,C  36)    -57.6478         0.011119   
    582. D(H  93,C  38,C  37,H  92)    -64.5279         0.011119   
    583. D(H  93,C  38,C  37,H  91)   -179.9660         0.011119   
    584. D(H  93,C  38,C  37,C  36)     57.7652         0.011119   
    585. D(C  39,C  38,C  37,H  92)     57.7716         0.011119   
    586. D(C  39,C  38,C  37,H  91)    -57.6666         0.011119   
    587. D(C  39,C  38,C  37,C  36)   -179.9353         0.011119   
    588. D(H  95,C  39,C  38,H  94)    -64.5443         0.011132   
    589. D(H  95,C  39,C  38,H  93)   -179.9860         0.011132   
    590. D(H  95,C  39,C  38,C  37)     57.7283         0.011132   
    591. D(C  40,C  39,C  38,H  94)     57.7332         0.011132   
    592. D(C  40,C  39,C  38,H  93)    -57.7086         0.011132   
    593. D(C  40,C  39,C  38,C  37)   -179.9943         0.011132   
    594. D(H  96,C  39,C  38,H  94)   -179.9820         0.011132   
    595. D(H  96,C  39,C  38,H  93)     64.5762         0.011132   
    596. D(H  96,C  39,C  38,C  37)    -57.7095         0.011132   
    597. D(H  98,C  40,C  39,H  95)     64.6619         0.011068   
    598. D(H  98,C  40,C  39,C  38)    -57.6592         0.011068   
    599. D(H  97,C  40,C  39,H  96)    -64.6765         0.011068   
    600. D(H  97,C  40,C  39,H  95)    179.9758         0.011068   
    601. D(H  97,C  40,C  39,C  38)     57.6546         0.011068   
    602. D(C  41,C  40,C  39,H  96)     57.6680         0.011068   
    603. D(C  41,C  40,C  39,H  95)    -57.6798         0.011068   
    604. D(H  98,C  40,C  39,H  96)   -179.9903         0.011068   
    605. D(C  41,C  40,C  39,C  38)    179.9991         0.011068   
    606. D(H 101,C  41,C  40,H  98)    -62.2722         0.011153   
    607. D(H 101,C  41,C  40,H  97)   -178.1604         0.011153   
    608. D(H 101,C  41,C  40,C  39)     59.7815         0.011153   
    609. D(H 100,C  41,C  40,H  98)    178.2098         0.011153   
    610. D(H 100,C  41,C  40,H  97)     62.3216         0.011153   
    611. D(H 100,C  41,C  40,C  39)    -59.7365         0.011153   
    612. D(H  99,C  41,C  40,H  98)     57.9676         0.011153   
    613. D(H  99,C  41,C  40,H  97)    -57.9207         0.011153   
    614. D(H  99,C  41,C  40,C  39)   -179.9788         0.011153   
    615. D(H 102,O  43,C  17,H  65)    -62.8770         0.020118   
    616. D(H 102,O  43,C  17,C  18)   -176.6711         0.020118   
    617. D(H 102,O  43,C  17,C  16)     54.7701         0.020118   
    618. D(H 104,C  45,C  13,H  61)    171.1302         0.010751   
    619. D(H 104,C  45,C  13,C  14)    -72.3672         0.010751   
    620. D(H 104,C  45,C  13,N  12)     54.2695         0.010751   
    621. D(H 103,C  45,C  13,H  61)    -74.5321         0.010751   
    622. D(H 103,C  45,C  13,C  14)     41.9704         0.010751   
    623. D(H 103,C  45,C  13,N  12)    168.6072         0.010751   
    624. D(C  46,C  45,C  13,H  61)     48.1587         0.010751   
    625. D(C  46,C  45,C  13,C  14)    164.6613         0.010751   
    626. D(C  46,C  45,C  13,N  12)    -68.7020         0.010751   
    627. D(H 107,C  46,C  45,H 104)    -65.3033         0.011326   
    628. D(H 107,C  46,C  45,H 103)    176.8994         0.011326   
    629. D(H 107,C  46,C  45,C  13)     56.3383         0.011326   
    630. D(H 106,C  46,C  45,H 104)    175.0115         0.011326   
    631. D(H 106,C  46,C  45,H 103)     57.2141         0.011326   
    632. D(H 106,C  46,C  45,C  13)    -63.3470         0.011326   
    633. D(H 105,C  46,C  45,H 104)     55.7995         0.011326   
    634. D(H 105,C  46,C  45,H 103)    -61.9979         0.011326   
    635. D(H 105,C  46,C  45,C  13)    177.4411         0.011326   
    636. D(H 108,C  48,C  10,H  59)   -157.5980         0.009590   
    637. D(H 108,C  48,C  10,C  11)    -42.2052         0.009590   
    638. D(H 108,C  48,C  10,N   9)     86.1080         0.009590   
    639. D(C  50,C  48,C  10,H  59)    -39.3858         0.009590   
    640. D(C  50,C  48,C  10,C  11)     76.0071         0.009590   
    641. D(C  50,C  48,C  10,N   9)   -155.6798         0.009590   
    642. D(C  49,C  48,C  10,H  59)     83.1920         0.009590   
    643. D(C  49,C  48,C  10,C  11)   -161.4152         0.009590   
    644. D(C  49,C  48,C  10,N   9)    -33.1020         0.009590   
    645. D(H 111,C  49,C  48,C  50)     65.3797         0.011041   
    646. D(H 111,C  49,C  48,C  10)    -56.9647         0.011041   
    647. D(H 110,C  49,C  48,H 108)     65.8576         0.011041   
    648. D(H 110,C  49,C  48,C  50)    -53.5003         0.011041   
    649. D(H 110,C  49,C  48,C  10)   -175.8447         0.011041   
    650. D(H 109,C  49,C  48,H 108)    -53.6623         0.011041   
    651. D(H 109,C  49,C  48,C  50)   -173.0202         0.011041   
    652. D(H 111,C  49,C  48,H 108)   -175.2624         0.011041   
    653. D(H 109,C  49,C  48,C  10)     64.6354         0.011041   
    654. D(H 114,C  50,C  48,H 108)    -60.0248         0.010812   
    655. D(H 114,C  50,C  48,C  49)     59.3252         0.010812   
    656. D(H 114,C  50,C  48,C  10)   -177.2762         0.010812   
    657. D(H 113,C  50,C  48,H 108)   -178.7545         0.010812   
    658. D(H 113,C  50,C  48,C  49)    -59.4046         0.010812   
    659. D(H 113,C  50,C  48,C  10)     63.9941         0.010812   
    660. D(H 112,C  50,C  48,H 108)     60.1654         0.010812   
    661. D(H 112,C  50,C  48,C  49)    179.5153         0.010812   
    662. D(H 112,C  50,C  48,C  10)    -57.0860         0.010812   
    -----------------------------------------------------------------

Number of atoms                         .... 115
Number of degrees of freedom            .... 662

         *************************************************************
         *                GEOMETRY OPTIMIZATION CYCLE   1            *
         *************************************************************
---------------------------------
CARTESIAN COORDINATES (ANGSTROEM)
---------------------------------
  O      6.191300   -2.627856    1.269776
  C      6.013100   -1.507399    0.792847
  C      6.640740   -0.228675    1.407647
  C      7.475854   -0.545818    2.646741
  C      6.441754   -0.516716    3.780800
  C      5.522832    0.650977    3.405584
  N      5.599378    0.691923    1.927364
  C      4.966621    1.573487    1.120973
  O      5.066719    1.539911   -0.122367
  N      5.244640   -1.260941   -0.298324
  C      4.557706   -2.319652   -1.035057
  C      3.474325   -3.002836   -0.158758
  N      2.910814   -2.176606    0.784682
  C      1.935247   -2.651600    1.755442
  C      0.538591   -2.040499    1.547112
  N      0.392572   -1.260674    0.455035
  C     -0.871539   -0.641862    0.074274
  C     -1.433777    0.274429    1.192509
  C     -2.055043    1.613858    0.729523
  C     -0.990528    2.388833   -0.050733
  N     -0.364121    3.355657    0.677211
  C      0.889748    3.961514    0.251393
  C      1.927701    3.599053    1.321987
  N      3.084733    3.050068    0.874287
  C      4.149288    2.676870    1.788326
  C      5.059369    3.875068    2.118342
  O      1.698375    3.794046    2.519598
  C      0.766330    5.486686    0.115653
  C      2.057883    6.200156   -0.313217
  C      1.853618    7.718464   -0.270849
  C      2.532837    5.756081   -1.701994
  O     -0.682550    2.125224   -1.218200
  C     -3.385399    1.569123   -0.049256
  C     -3.558128    0.546475   -1.144781
  C     -4.846480    0.696571   -1.946088
  C     -4.989303   -0.375892   -3.027838
  C     -6.274332   -0.239338   -3.847195
  C     -6.425762   -1.311156   -4.928688
  C     -7.710555   -1.174274   -5.748715
  C     -7.863671   -2.246600   -6.829476
  C     -9.148689   -2.110406   -7.650503
  C     -9.291054   -3.187444   -8.727654
  O     -4.244515    2.387896    0.231079
  O     -2.406689   -0.388460    1.983486
  O     -0.376436   -2.273386    2.351423
  C      2.419434   -2.429287    3.195228
  C      3.605858   -3.318408    3.563472
  O      3.090729   -4.149931   -0.349145
  C      5.492302   -3.352838   -1.719010
  C      6.797977   -2.706948   -2.191261
  C      4.766578   -4.008407   -2.901321
  H      7.200142    0.296320    0.619105
  H      8.239975    0.232059    2.788400
  H      7.965633   -1.520825    2.550788
  H      5.877234   -1.458363    3.783582
  H      6.888484   -0.380884    4.773032
  H      4.486736    0.500051    3.737710
  H      5.885737    1.599994    3.829593
  H      5.182182   -0.281694   -0.604845
  H      4.003770   -1.796795   -1.834463
  H      3.417326   -1.320182    0.998611
  H      1.823390   -3.732390    1.566349
  H      1.203271   -1.167255   -0.149614
  H     -1.615706   -1.422644   -0.141382
  H     -0.684487   -0.067713   -0.840179
  H     -0.563161    0.561475    1.818025
  H     -2.302507    2.164335    1.648665
  H     -0.589140    3.459379    1.664558
  H      1.132906    3.503076   -0.716925
  H      3.257822    2.883432   -0.115194
  H      3.672223    2.323680    2.713104
  H      4.453707    4.667134    2.575600
  H      5.854222    3.594924    2.823324
  H      5.523836    4.257311    1.199641
  H      0.434152    5.884758    1.087753
  H     -0.035200    5.693455   -0.612023
  H      2.846170    5.946296    0.418408
  H      1.547012    8.052365    0.730933
  H      2.777302    8.251237   -0.539407
  H      1.071032    8.026073   -0.982075
  H      2.762471    4.681865   -1.747532
  H      1.760763    5.960543   -2.460024
  H      3.443857    6.296771   -1.995864
  H     -3.510005   -0.446643   -0.663757
  H     -2.667842    0.609368   -1.794505
  H     -4.873432    1.698237   -2.403854
  H     -5.707231    0.658920   -1.260670
  H     -4.960641   -1.376160   -2.559956
  H     -4.118570   -0.334133   -3.706253
  H     -6.302317    0.759945   -4.316162
  H     -7.144332   -0.279153   -3.168525
  H     -6.398023   -2.310181   -4.458665
  H     -5.554602   -1.271589   -5.606483
  H     -7.737951   -0.175470   -6.219206
  H     -8.581376   -1.212801   -5.070628
  H     -7.836562   -3.245698   -6.359180
  H     -6.992691   -2.208698   -7.507837
  H     -9.174132   -1.111721   -8.119078
  H    -10.017350   -2.148325   -6.971157
  H    -10.220716   -3.066731   -9.302187
  H     -8.451303   -3.150032   -9.438398
  H     -9.301461   -4.194010   -8.282229
  H     -1.943843   -1.204026    2.296389
  H      1.565075   -2.614250    3.860313
  H      2.678477   -1.360698    3.315072
  H      3.954694   -3.101379    4.583148
  H      3.318084   -4.379063    3.528730
  H      4.451892   -3.185835    2.873788
  H      5.727514   -4.125766   -0.973197
  H      7.405138   -2.334302   -1.356385
  H      7.400595   -3.448273   -2.734528
  H      6.605615   -1.867586   -2.878572
  H      3.832921   -4.483951   -2.581127
  H      4.536835   -3.259539   -3.677663
  H      5.405317   -4.776172   -3.360610

----------------------------
CARTESIAN COORDINATES (A.U.)
----------------------------
  NO LB      ZA    FRAG     MASS         X           Y           Z
   0 O     8.0000    0    15.999   11.699861   -4.965928    2.399529
   1 C     6.0000    0    12.011   11.363112   -2.848570    1.498264
   2 C     6.0000    0    12.011   12.549179   -0.432134    2.660068
   3 C     6.0000    0    12.011   14.127316   -1.031447    5.001615
   4 C     6.0000    0    12.011   12.173152   -0.976452    7.144677
   5 C     6.0000    0    12.011   10.436640    1.230169    6.435621
   6 N     7.0000    0    14.007   10.581292    1.307544    3.642191
   7 C     6.0000    0    12.011    9.385553    2.973460    2.118332
   8 O     8.0000    0    15.999    9.574712    2.910009   -0.231240
   9 N     7.0000    0    14.007    9.910933   -2.382833   -0.563751
  10 C     6.0000    0    12.011    8.612816   -4.383506   -1.955975
  11 C     6.0000    0    12.011    6.565523   -5.674538   -0.300008
  12 N     7.0000    0    14.007    5.500640   -4.113189    1.482834
  13 C     6.0000    0    12.011    3.657087   -5.010797    3.317305
  14 C     6.0000    0    12.011    1.017790   -3.855984    2.923619
  15 N     7.0000    0    14.007    0.741853   -2.382328    0.859892
  16 C     6.0000    0    12.011   -1.646971   -1.212942    0.140357
  17 C     6.0000    0    12.011   -2.709446    0.518596    2.253516
  18 C     6.0000    0    12.011   -3.883468    3.049749    1.378598
  19 C     6.0000    0    12.011   -1.871826    4.514240   -0.095871
  20 N     7.0000    0    14.007   -0.688089    6.341274    1.279743
  21 C     6.0000    0    12.011    1.681380    7.486177    0.475064
  22 C     6.0000    0    12.011    3.642827    6.801224    2.498194
  23 N     7.0000    0    14.007    5.829301    5.763793    1.652163
  24 C     6.0000    0    12.011    7.841019    5.058552    3.379447
  25 C     6.0000    0    12.011    9.560822    7.322818    4.003086
  26 O     8.0000    0    15.999    3.209463    7.169708    4.761350
  27 C     6.0000    0    12.011    1.448153   10.368334    0.218552
  28 C     6.0000    0    12.011    3.888835   11.716596   -0.591894
  29 C     6.0000    0    12.011    3.502831   14.585784   -0.511831
  30 C     6.0000    0    12.011    4.786369   10.877416   -3.216302
  31 O     8.0000    0    15.999   -1.289833    4.016092   -2.302065
  32 C     6.0000    0    12.011   -6.397478    2.965213   -0.093080
  33 C     6.0000    0    12.011   -6.723888    1.032688   -2.163322
  34 C     6.0000    0    12.011   -9.158520    1.316329   -3.677573
  35 C     6.0000    0    12.011   -9.428417   -0.710333   -5.721784
  36 C     6.0000    0    12.011  -11.856768   -0.452283   -7.270144
  37 C     6.0000    0    12.011  -12.142930   -2.477725   -9.313870
  38 C     6.0000    0    12.011  -14.570837   -2.219055  -10.863497
  39 C     6.0000    0    12.011  -14.860185   -4.245459  -12.905839
  40 C     6.0000    0    12.011  -17.288517   -3.988090  -14.457356
  41 C     6.0000    0    12.011  -17.557548   -6.023396  -16.492875
  42 O     8.0000    0    15.999   -8.020971    4.512470    0.436675
  43 O     8.0000    0    15.999   -4.547983   -0.734083    3.748245
  44 O     8.0000    0    15.999   -0.711362   -4.296076    4.443546
  45 C     6.0000    0    12.011    4.572067   -4.590688    6.038106
  46 C     6.0000    0    12.011    6.814083   -6.270883    6.733987
  47 O     8.0000    0    15.999    5.840631   -7.842233   -0.659788
  48 C     6.0000    0    12.011   10.378947   -6.335946   -3.248458
  49 C     6.0000    0    12.011   12.846315   -5.115391   -4.140883
  50 C     6.0000    0    12.011    9.007526   -7.574792   -5.482702
  51 H     1.0000    0     1.008   13.606296    0.559964    1.169938
  52 H     1.0000    0     1.008   15.571296    0.438528    5.269312
  53 H     1.0000    0     1.008   15.052866   -2.873943    4.820291
  54 H     1.0000    0     1.008   11.106362   -2.755908    7.149934
  55 H     1.0000    0     1.008   13.017348   -0.719766    9.019724
  56 H     1.0000    0     1.008    8.478703    0.944959    7.063248
  57 H     1.0000    0     1.008   11.122432    3.023551    7.236881
  58 H     1.0000    0     1.008    9.792905   -0.532325   -1.142992
  59 H     1.0000    0     1.008    7.566028   -3.395451   -3.466632
  60 H     1.0000    0     1.008    6.457810   -2.494782    1.887101
  61 H     1.0000    0     1.008    3.445708   -7.053194    2.959970
  62 H     1.0000    0     1.008    2.273852   -2.205793   -0.282730
  63 H     1.0000    0     1.008   -3.053242   -2.688407   -0.267172
  64 H     1.0000    0     1.008   -1.293492   -0.127958   -1.587708
  65 H     1.0000    0     1.008   -1.064221    1.061033    3.435570
  66 H     1.0000    0     1.008   -4.351107    4.090001    3.115526
  67 H     1.0000    0     1.008   -1.113313    6.537279    3.145559
  68 H     1.0000    0     1.008    2.140881    6.619855   -1.354793
  69 H     1.0000    0     1.008    6.156392    5.448898   -0.217684
  70 H     1.0000    0     1.008    6.939495    4.391119    5.127023
  71 H     1.0000    0     1.008    8.416287    8.819605    4.867178
  72 H     1.0000    0     1.008   11.062877    6.793422    5.335309
  73 H     1.0000    0     1.008   10.438538    8.045152    2.266993
  74 H     1.0000    0     1.008    0.820429   11.120580    2.055555
  75 H     1.0000    0     1.008   -0.066518   10.759071   -1.156557
  76 H     1.0000    0     1.008    5.378482   11.236871    0.790677
  77 H     1.0000    0     1.008    2.923430   15.216765    1.381264
  78 H     1.0000    0     1.008    5.248340   15.592579   -1.019332
  79 H     1.0000    0     1.008    2.023958   15.167081   -1.855853
  80 H     1.0000    0     1.008    5.220313    8.847442   -3.302356
  81 H     1.0000    0     1.008    3.327359   11.263794   -4.648771
  82 H     1.0000    0     1.008    6.507947   11.899173   -3.771637
  83 H     1.0000    0     1.008   -6.632949   -0.844033   -1.254318
  84 H     1.0000    0     1.008   -5.041492    1.151538   -3.391124
  85 H     1.0000    0     1.008   -9.209451    3.209204   -4.542626
  86 H     1.0000    0     1.008  -10.785104    1.245178   -2.382321
  87 H     1.0000    0     1.008   -9.374253   -2.600565   -4.837615
  88 H     1.0000    0     1.008   -7.782969   -0.631420   -7.003803
  89 H     1.0000    0     1.008  -11.909653    1.436088   -8.156364
  90 H     1.0000    0     1.008  -13.500831   -0.527523   -5.987644
  91 H     1.0000    0     1.008  -12.090512   -4.365610   -8.425655
  92 H     1.0000    0     1.008  -10.496676   -2.402956  -10.594717
  93 H     1.0000    0     1.008  -14.622607   -0.331590  -11.752597
  94 H     1.0000    0     1.008  -16.216451   -2.291863   -9.582099
  95 H     1.0000    0     1.008  -14.808956   -6.133481  -12.017109
  96 H     1.0000    0     1.008  -13.214271   -4.173835  -14.187756
  97 H     1.0000    0     1.008  -17.336598   -2.100849  -15.342833
  98 H     1.0000    0     1.008  -18.930047   -4.059745  -13.173578
  99 H     1.0000    0     1.008  -19.314355   -5.795281  -17.578586
 100 H     1.0000    0     1.008  -15.970648   -5.952698  -17.835987
 101 H     1.0000    0     1.008  -17.577213   -7.925531  -15.651144
 102 H     1.0000    0     1.008   -3.673331   -2.275280    4.339546
 103 H     1.0000    0     1.008    2.957562   -4.940216    7.294934
 104 H     1.0000    0     1.008    5.061588   -2.571346    6.264578
 105 H     1.0000    0     1.008    7.473289   -5.860757    8.660895
 106 H     1.0000    0     1.008    6.270270   -8.275230    6.668333
 107 H     1.0000    0     1.008    8.412856   -6.020356    5.430672
 108 H     1.0000    0     1.008   10.823433   -7.796568   -1.839075
 109 H     1.0000    0     1.008   13.993682   -4.411191   -2.563196
 110 H     1.0000    0     1.008   13.985098   -6.516292   -5.167510
 111 H     1.0000    0     1.008   12.482804   -3.529226   -5.439713
 112 H     1.0000    0     1.008    7.243171   -8.473438   -4.877623
 113 H     1.0000    0     1.008    8.573375   -6.159635   -6.949776
 114 H     1.0000    0     1.008   10.214570   -9.025656   -6.350633

--------------------------------
INTERNAL COORDINATES (ANGSTROEM)
--------------------------------
 O      0   0   0     0.000000000000     0.00000000     0.00000000
 C      1   0   0     1.230707524975     0.00000000     0.00000000
 C      2   1   0     1.551465147673   122.56312041     0.00000000
 C      3   2   1     1.527530049510   111.80779557   359.77482896
 C      4   3   2     1.535023903199   103.12344333   273.07427655
 C      5   4   3     1.532551329471   103.73910257   321.32155305
 N      6   5   4     1.480766597867   103.56111707    28.79903917
 C      7   6   5     1.351963303382   126.10520318   180.90132704
 O      8   7   6     1.247814791355   122.63121374   180.75696791
 N      2   1   3     1.357176206808   123.97863903   180.91064367
 C     10   2   1     1.461342724174   122.67932380   359.15792428
 C     11  10   2     1.551887984772   111.24878245    64.77401120
 N     12  11  10     1.374874413066   114.14503397    29.95025095
 C     13  12  11     1.455927386081   122.41925463   183.79756765
 C     14  13  12     1.538666300105   112.85316834   246.54728049
 N     15  14  13     1.349844771876   115.92399030     5.31007737
 C     16  15  14     1.458041706731   123.38442428   177.63190712
 C     17  16  15     1.551177250499   112.12904587    57.98658921
 C     18  17  16     1.547383935895   116.17725594   139.00171188
 C     19  18  17     1.530548235631   108.15436057   302.48135894
 N     20  19  18     1.362731752722   113.99280402   260.51554221
 C     21  20  19     1.456217919645   122.32836946   163.75064952
 C     22  21  20     1.534567008453   106.26748951   243.16284147
 N     23  22  21     1.356666284892   116.24468127   128.72325599
 C     24  23  22     1.451903033226   121.43857940   179.37538156
 C     25  24  23     1.540401131731   111.59994550   275.32338873
 O     23  22  21     1.234862039768   120.91052208   309.30292478
 C     22  21  20     1.536166395466   111.69903021   122.56052210
 C     28  22  21     1.536579888404   114.71672255   179.22417823
 C     29  28  22     1.532573322028   109.89252544   185.94240584
 C     29  28  22     1.533455303640   112.24995555    62.30877652
 O     20  19  18     1.235847593920   123.15477675    77.48086660
 C     19  18  17     1.542188600384   118.18569178    69.51154510
 C     33  19  18     1.508581788149   119.02229604   315.81392633
 C     34  33  19     1.524622290071   114.31095798   186.49254713
 C     35  34  33     1.529953828135   112.42555553   181.01475756
 C     36  35  34     1.530127672000   113.23179966   180.21543177
 C     37  36  35     1.530147528987   113.52028247   180.15892311
 C     38  37  36     1.530318601591   113.52619486   180.03030866
 C     39  38  37     1.530154421985   113.56601553   180.06467831
 C     40  39  38     1.530982208600   113.60464093   180.00569165
 C     41  40  39     1.529879189252   113.14488724   179.99909786
 O     33  19  18     1.219449455410   118.17563015   137.43430806
 O     18  17  16     1.418317260772   111.99858545   262.66724459
 O     15  14  13     1.240333777030   120.48199415   185.14104336
 C     14  13  12     1.535201086556   111.51521260   121.01849479
 C     46  14  13     1.527659089903   112.75110295   291.29798378
 O     12  11  10     1.224426503077   122.91066487   205.28773218
 C     11  10   2     1.552010208154   114.92264912   296.03775023
 C     49  11  10     1.531333646984   111.62723494   326.89795739
 C     49  11  10     1.534374740365   109.82689859   204.32020542
 H      3   2   1     1.100159243899   108.35976269   125.90131379
 H      4   3   2     1.099564648993   109.72780460   154.66092468
 H      4   3   2     1.095321624437   110.99067591    33.77065433
 H      5   4   3     1.097902951939   109.39019056    78.93155721
 H      5   4   3     1.096605111228   113.35237448   199.85291186
 H      6   5   4     1.098444578033   112.75879682   148.56995890
 H      6   5   4     1.100961505442   111.39763464   270.49664413
 H     10   2   1     1.027998157883   116.55884746   180.58290830
 H     11  10   2     1.104206568209   104.93661529   178.36916122
 H     13  12  11     1.017733881823   116.48452620   343.13298267
 H     14  13  12     1.102894041956   105.86374480     1.93858791
 H     16  15  14     1.015657771948   116.64336602     1.87974234
 H     17  16  15     1.099960120567   109.66343137   297.52934568
 H     17  16  15     1.095837123799   106.99545645   179.57626923
 H     18  17  16     1.109791547718   105.94784405    22.80465747
 H     19  18  17     1.099584848557   105.87826088   185.51733782
 H     21  20  19     1.017961547060   119.26138825     3.69686849
 H     22  21  20     1.098604233276   105.94415584     1.88649698
 H     24  23  22     1.018233541491   122.13255994   359.81602100
 H     25  24  23     1.098884947937   107.10359463    34.59189146
 H     26  25  24     1.096940741170   108.95091141    59.40603730
 H     26  25  24     1.098759485402   111.50190112   179.03928954
 H     26  25  24     1.098112303132   109.96327269   299.60453925
 H     28  22  21     1.101717559368   107.75753923    57.14451517
 H     28  22  21     1.102141313085   107.63985600   301.83990030
 H     29  28  22     1.105041304321   107.94735061   303.16427394
 H     30  29  28     1.099575178269   111.29609034    57.46134614
 H     30  29  28     1.099618647450   111.17933430   177.95233878
 H     30  29  28     1.101320155389   110.70556059   297.60967157
 H     31  29  28     1.099429371375   112.65323902   298.86952602
 H     31  29  28     1.101141878662   110.64114014    59.12451383
 H     31  29  28     1.099392053643   110.87427813   178.67930334
 H     34  33  19     1.104528353542   106.75396609    63.67826178
 H     34  33  19     1.103950244568   107.24404783   310.64243078
 H     35  34  33     1.101640167635   109.18271319    58.70612888
 H     35  34  33     1.100957378139   109.27417257   303.53976052
 H     36  35  34     1.104658550450   109.44127837    58.09771280
 H     36  35  34     1.104612265580   109.52137443   302.41876446
 H     37  36  35     1.104209927842   109.23671705    57.85109590
 H     37  36  35     1.104118971946   109.23101844   302.46148643
 H     38  37  36     1.104419686031   109.28930011    57.77132861
 H     38  37  36     1.104487048745   109.30448020   302.30884705
 H     39  38  37     1.104410010432   109.26874239    57.76524691
 H     39  38  37     1.104362437005   109.26135434   302.35221538
 H     40  39  38     1.104585669334   109.31080179    57.72825315
 H     40  39  38     1.104634413347   109.31746664   302.29046562
 H     41  40  39     1.103440604668   109.12289351    57.65464468
 H     41  40  39     1.103413032600   109.11963030   302.34078555
 H     42  41  40     1.099514230137   111.67208101   180.02122940
 H     42  41  40     1.100790128576   111.08070280   300.26348646
 H     42  41  40     1.100767021079   111.08368266    59.78148925
 H     44  18  17     0.988576557415   103.94182167    54.77009912
 H     46  14  13     1.098398103934   107.34768830   168.60717692
 H     46  14  13     1.106051245528   108.38434806    54.26951075
 H     47  46  14     1.099330611002   110.80092617   177.44106885
 H     47  46  14     1.099549701529   110.52108452   296.65304395
 H     47  46  14     1.099551890110   112.09816448    56.33831971
 H     49  11  10     1.099536231240   107.32947773    86.10800074
 H     50  49  11     1.097509156972   112.35299197    64.63538381
 H     50  49  11     1.099022741491   109.60043688   184.15529284
 H     50  49  11     1.101784298822   111.39768692   303.03531101
 H     51  49  11     1.095618968601   111.30372855   302.91398714
 H     51  49  11     1.102856559787   110.53807762    63.99406249
 H     51  49  11     1.099271346007   110.21389262   182.72384574

---------------------------
INTERNAL COORDINATES (A.U.)
---------------------------
 O      0   0   0     0.000000000000     0.00000000     0.00000000
 C      1   0   0     2.325700173159     0.00000000     0.00000000
 C      2   1   0     2.931844235426   122.56312041     0.00000000
 C      3   2   1     2.886613454909   111.80779557   359.77482896
 C      4   3   2     2.900774786069   103.12344333   273.07427655
 C      5   4   3     2.896102298877   103.73910257   321.32155305
 N      6   5   4     2.798243338228   103.56111707    28.79903917
 C      7   6   5     2.554840386503   126.10520318   180.90132704
 O      8   7   6     2.358028221516   122.63121374   180.75696791
 N      2   1   3     2.564691346341   123.97863903   180.91064367
 C     10   2   1     2.761537536488   122.67932380   359.15792428
 C     11  10   2     2.932643281742   111.24878245    64.77401120
 N     12  11  10     2.598136109230   114.14503397    29.95025095
 C     13  12  11     2.751304030569   122.41925463   183.79756765
 C     14  13  12     2.907657918692   112.85316834   246.54728049
 N     15  14  13     2.550836942152   115.92399030     5.31007737
 C     16  15  14     2.755299517557   123.38442428   177.63190712
 C     17  16  15     2.931300188612   112.12904587    57.98658921
 C     18  17  16     2.924131862871   116.17725594   139.00171188
 C     19  18  17     2.892317000099   108.15436057   302.48135894
 N     20  19  18     2.575189806643   113.99280402   260.51554221
 C     21  20  19     2.751853059437   122.32836946   163.75064952
 C     22  21  20     2.899911380128   106.26748951   243.16284147
 N     23  22  21     2.563727733570   116.24468127   128.72325599
 C     24  23  22     2.743699105806   121.43857940   179.37538156
 C     25  24  23     2.910936275353   111.59994550   275.32338873
 O     23  22  21     2.333551068338   120.91052208   309.30292478
 C     22  21  20     2.902933783563   111.69903021   122.56052210
 C     28  22  21     2.903715171975   114.71672255   179.22417823
 C     29  28  22     2.896143858786   109.89252544   185.94240584
 C     29  28  22     2.897810562488   112.24995555    62.30877652
 O     20  19  18     2.335413495774   123.15477675    77.48086660
 C     19  18  17     2.914314101581   118.18569178    69.51154510
 C     33  19  18     2.850806430224   119.02229604   315.81392633
 C     34  33  19     2.881118585905   114.31095798   186.49254713
 C     35  34  33     2.891193732719   112.42555553   181.01475756
 C     36  35  34     2.891522250014   113.23179966   180.21543177
 C     37  36  35     2.891559774281   113.52028247   180.15892311
 C     38  37  36     2.891883054652   113.52619486   180.03030866
 C     39  38  37     2.891572800160   113.56601553   180.06467831
 C     40  39  38     2.893137090159   113.60464093   180.00569165
 C     41  40  39     2.891052685672   113.14488724   179.99909786
 O     33  19  18     2.304425504884   118.17563015   137.43430806
 O     18  17  16     2.680231193873   111.99858545   262.66724459
 O     15  14  13     2.343891153238   120.48199415   185.14104336
 C     14  13  12     2.901109614088   111.51521260   121.01849479
 C     46  14  13     2.886857305912   112.75110295   291.29798378
 O     12  11  10     2.313830761931   122.91066487   205.28773218
 C     11  10   2     2.932874250462   114.92264912   296.03775023
 C     49  11  10     2.893801212458   111.62723494   326.89795739
 C     49  11  10     2.899548046096   109.82689859   204.32020542
 H      3   2   1     2.078999674671   108.35976269   125.90131379
 H      4   3   2     2.077876053139   109.72780460   154.66092468
 H      4   3   2     2.069857898748   110.99067591    33.77065433
 H      5   4   3     2.074735900789   109.39019056    78.93155721
 H      5   4   3     2.072283337279   113.35237448   199.85291186
 H      6   5   4     2.075759425773   112.75879682   148.56995890
 H      6   5   4     2.080515729276   111.39763464   270.49664413
 H     10   2   1     1.942634984574   116.55884746   180.58290830
 H     11  10   2     2.086648009192   104.93661529   178.36916122
[...]
freq.      79.20  E(vib)   ...       0.49 
freq.      85.36  E(vib)   ...       0.48 
freq.      90.98  E(vib)   ...       0.47 
freq.      94.20  E(vib)   ...       0.47 
freq.      95.91  E(vib)   ...       0.47 
freq.      98.94  E(vib)   ...       0.46 
freq.     108.65  E(vib)   ...       0.45 
freq.     114.10  E(vib)   ...       0.44 
freq.     117.79  E(vib)   ...       0.44 
freq.     118.84  E(vib)   ...       0.44 
freq.     120.95  E(vib)   ...       0.44 
freq.     127.50  E(vib)   ...       0.43 
freq.     132.35  E(vib)   ...       0.42 
freq.     137.50  E(vib)   ...       0.42 
freq.     153.81  E(vib)   ...       0.40 
freq.     154.89  E(vib)   ...       0.40 
freq.     158.10  E(vib)   ...       0.39 
freq.     163.96  E(vib)   ...       0.39 
freq.     166.64  E(vib)   ...       0.39 
freq.     171.15  E(vib)   ...       0.38 
freq.     183.73  E(vib)   ...       0.37 
freq.     186.52  E(vib)   ...       0.37 
freq.     194.88  E(vib)   ...       0.36 
freq.     203.26  E(vib)   ...       0.35 
freq.     207.51  E(vib)   ...       0.34 
freq.     214.19  E(vib)   ...       0.34 
freq.     220.03  E(vib)   ...       0.33 
freq.     223.12  E(vib)   ...       0.33 
freq.     227.78  E(vib)   ...       0.33 
freq.     231.13  E(vib)   ...       0.32 
freq.     235.42  E(vib)   ...       0.32 
freq.     237.14  E(vib)   ...       0.32 
freq.     241.01  E(vib)   ...       0.31 
freq.     242.89  E(vib)   ...       0.31 
freq.     249.41  E(vib)   ...       0.31 
freq.     256.72  E(vib)   ...       0.30 
freq.     264.33  E(vib)   ...       0.29 
freq.     279.15  E(vib)   ...       0.28 
freq.     289.31  E(vib)   ...       0.27 
freq.     299.40  E(vib)   ...       0.26 
freq.     304.33  E(vib)   ...       0.26 
freq.     308.49  E(vib)   ...       0.26 
freq.     322.93  E(vib)   ...       0.25 
freq.     324.65  E(vib)   ...       0.24 
freq.     328.06  E(vib)   ...       0.24 
freq.     333.57  E(vib)   ...       0.24 
freq.     345.78  E(vib)   ...       0.23 
freq.     352.82  E(vib)   ...       0.22 
freq.     357.12  E(vib)   ...       0.22 
freq.     366.96  E(vib)   ...       0.22 
freq.     380.71  E(vib)   ...       0.21 
freq.     389.18  E(vib)   ...       0.20 
freq.     396.69  E(vib)   ...       0.20 
freq.     400.10  E(vib)   ...       0.19 
freq.     402.12  E(vib)   ...       0.19 
freq.     427.12  E(vib)   ...       0.18 
freq.     432.82  E(vib)   ...       0.17 
freq.     454.56  E(vib)   ...       0.16 
freq.     458.68  E(vib)   ...       0.16 
freq.     459.60  E(vib)   ...       0.16 
freq.     463.78  E(vib)   ...       0.16 
freq.     478.53  E(vib)   ...       0.15 
freq.     484.04  E(vib)   ...       0.15 
freq.     495.38  E(vib)   ...       0.14 
freq.     501.68  E(vib)   ...       0.14 
freq.     506.98  E(vib)   ...       0.14 
freq.     536.73  E(vib)   ...       0.12 
freq.     542.58  E(vib)   ...       0.12 
freq.     555.13  E(vib)   ...       0.12 
freq.     559.59  E(vib)   ...       0.12 
freq.     568.31  E(vib)   ...       0.11 
freq.     597.92  E(vib)   ...       0.10 
freq.     618.26  E(vib)   ...       0.09 
freq.     628.07  E(vib)   ...       0.09 
freq.     633.68  E(vib)   ...       0.09 
freq.     647.65  E(vib)   ...       0.09 
freq.     658.00  E(vib)   ...       0.08 
freq.     675.04  E(vib)   ...       0.08 
freq.     686.48  E(vib)   ...       0.07 
freq.     699.34  E(vib)   ...       0.07 
freq.     709.57  E(vib)   ...       0.07 
freq.     711.65  E(vib)   ...       0.07 
freq.     715.88  E(vib)   ...       0.07 
freq.     718.19  E(vib)   ...       0.07 
freq.     731.65  E(vib)   ...       0.06 
freq.     736.53  E(vib)   ...       0.06 
freq.     747.81  E(vib)   ...       0.06 
freq.     748.53  E(vib)   ...       0.06 
freq.     752.70  E(vib)   ...       0.06 
freq.     756.76  E(vib)   ...       0.06 
freq.     759.82  E(vib)   ...       0.06 
freq.     768.68  E(vib)   ...       0.06 
freq.     774.23  E(vib)   ...       0.05 
freq.     797.09  E(vib)   ...       0.05 
freq.     804.53  E(vib)   ...       0.05 
freq.     809.78  E(vib)   ...       0.05 
freq.     818.73  E(vib)   ...       0.05 
freq.     838.63  E(vib)   ...       0.04 
freq.     851.52  E(vib)   ...       0.04 
freq.     853.58  E(vib)   ...       0.04 
freq.     866.82  E(vib)   ...       0.04 
freq.     871.91  E(vib)   ...       0.04 
freq.     873.30  E(vib)   ...       0.04 
freq.     877.41  E(vib)   ...       0.04 
freq.     882.75  E(vib)   ...       0.04 
freq.     887.14  E(vib)   ...       0.04 
freq.     898.93  E(vib)   ...       0.03 
freq.     901.89  E(vib)   ...       0.03 
freq.     904.95  E(vib)   ...       0.03 
freq.     913.69  E(vib)   ...       0.03 
freq.     919.77  E(vib)   ...       0.03 
freq.     921.44  E(vib)   ...       0.03 
freq.     928.05  E(vib)   ...       0.03 
freq.     936.20  E(vib)   ...       0.03 
freq.     937.74  E(vib)   ...       0.03 
freq.     939.76  E(vib)   ...       0.03 
freq.     944.65  E(vib)   ...       0.03 
freq.     945.45  E(vib)   ...       0.03 
freq.     951.19  E(vib)   ...       0.03 
freq.     959.16  E(vib)   ...       0.03 
freq.     975.10  E(vib)   ...       0.03 
freq.     976.61  E(vib)   ...       0.03 
freq.     978.85  E(vib)   ...       0.03 
freq.     992.90  E(vib)   ...       0.02 
freq.     993.95  E(vib)   ...       0.02 
freq.    1004.34  E(vib)   ...       0.02 
freq.    1020.32  E(vib)   ...       0.02 
freq.    1026.10  E(vib)   ...       0.02 
freq.    1029.34  E(vib)   ...       0.02 
freq.    1036.37  E(vib)   ...       0.02 
freq.    1041.71  E(vib)   ...       0.02 
freq.    1043.38  E(vib)   ...       0.02 
freq.    1046.53  E(vib)   ...       0.02 
freq.    1050.63  E(vib)   ...       0.02 
freq.    1051.58  E(vib)   ...       0.02 
freq.    1056.34  E(vib)   ...       0.02 
freq.    1057.88  E(vib)   ...       0.02 
freq.    1060.59  E(vib)   ...       0.02 
freq.    1074.75  E(vib)   ...       0.02 
freq.    1076.94  E(vib)   ...       0.02 
freq.    1077.87  E(vib)   ...       0.02 
freq.    1082.46  E(vib)   ...       0.02 
freq.    1093.19  E(vib)   ...       0.02 
freq.    1095.24  E(vib)   ...       0.02 
freq.    1098.84  E(vib)   ...       0.02 
freq.    1107.55  E(vib)   ...       0.02 
freq.    1109.45  E(vib)   ...       0.02 
freq.    1116.28  E(vib)   ...       0.01 
freq.    1117.14  E(vib)   ...       0.01 
freq.    1125.10  E(vib)   ...       0.01 
freq.    1127.21  E(vib)   ...       0.01 
freq.    1137.28  E(vib)   ...       0.01 
freq.    1141.30  E(vib)   ...       0.01 
freq.    1153.35  E(vib)   ...       0.01 
freq.    1158.75  E(vib)   ...       0.01 
freq.    1160.07  E(vib)   ...       0.01 
freq.    1167.72  E(vib)   ...       0.01 
freq.    1169.45  E(vib)   ...       0.01 
freq.    1172.14  E(vib)   ...       0.01 
freq.    1174.12  E(vib)   ...       0.01 
freq.    1176.60  E(vib)   ...       0.01 
freq.    1193.51  E(vib)   ...       0.01 
freq.    1203.90  E(vib)   ...       0.01 
freq.    1210.85  E(vib)   ...       0.01 
freq.    1213.34  E(vib)   ...       0.01 
freq.    1218.79  E(vib)   ...       0.01 
freq.    1222.88  E(vib)   ...       0.01 
freq.    1228.65  E(vib)   ...       0.01 
freq.    1232.35  E(vib)   ...       0.01 
freq.    1233.26  E(vib)   ...       0.01 
freq.    1234.65  E(vib)   ...       0.01 
freq.    1240.54  E(vib)   ...       0.01 
freq.    1249.49  E(vib)   ...       0.01 
freq.    1253.91  E(vib)   ...       0.01 
freq.    1262.24  E(vib)   ...       0.01 
freq.    1265.22  E(vib)   ...       0.01 
freq.    1268.80  E(vib)   ...       0.01 
freq.    1273.13  E(vib)   ...       0.01 
freq.    1275.30  E(vib)   ...       0.01 
freq.    1280.47  E(vib)   ...       0.01 
freq.    1282.77  E(vib)   ...       0.01 
freq.    1286.97  E(vib)   ...       0.01 
freq.    1289.13  E(vib)   ...       0.01 
freq.    1293.97  E(vib)   ...       0.01 
freq.    1294.13  E(vib)   ...       0.01 
freq.    1295.46  E(vib)   ...       0.01 
freq.    1297.84  E(vib)   ...       0.01 
freq.    1301.73  E(vib)   ...       0.01 
freq.    1304.26  E(vib)   ...       0.01 
freq.    1305.41  E(vib)   ...       0.01 
freq.    1308.68  E(vib)   ...       0.01 
freq.    1309.67  E(vib)   ...       0.01 
freq.    1312.55  E(vib)   ...       0.01 
freq.    1313.66  E(vib)   ...       0.01 
freq.    1316.30  E(vib)   ...       0.01 
freq.    1318.87  E(vib)   ...       0.01 
freq.    1322.80  E(vib)   ...       0.01 
freq.    1323.78  E(vib)   ...       0.01 
freq.    1325.82  E(vib)   ...       0.01 
freq.    1333.44  E(vib)   ...       0.01 
freq.    1334.99  E(vib)   ...       0.01 
freq.    1341.72  E(vib)   ...       0.01 
freq.    1344.82  E(vib)   ...       0.01 
freq.    1345.81  E(vib)   ...       0.01 
freq.    1346.26  E(vib)   ...       0.01 
freq.    1347.25  E(vib)   ...       0.01 
freq.    1350.29  E(vib)   ...       0.01 
freq.    1352.09  E(vib)   ...       0.01 
freq.    1353.19  E(vib)   ...       0.01 
freq.    1363.42  E(vib)   ...       0.01 
freq.    1368.69  E(vib)   ...       0.01 
freq.    1372.97  E(vib)   ...       0.01 
freq.    1373.78  E(vib)   ...       0.01 
freq.    1401.43  E(vib)   ...       0.00 
freq.    1409.97  E(vib)   ...       0.00 
freq.    1413.94  E(vib)   ...       0.00 
freq.    1426.26  E(vib)   ...       0.00 
freq.    1426.45  E(vib)   ...       0.00 
freq.    1430.26  E(vib)   ...       0.00 
freq.    1433.09  E(vib)   ...       0.00 
freq.    1433.56  E(vib)   ...       0.00 
freq.    1434.55  E(vib)   ...       0.00 
freq.    1434.79  E(vib)   ...       0.00 
freq.    1437.07  E(vib)   ...       0.00 
freq.    1437.37  E(vib)   ...       0.00 
freq.    1438.97  E(vib)   ...       0.00 
freq.    1439.89  E(vib)   ...       0.00 
freq.    1445.39  E(vib)   ...       0.00 
freq.    1445.51  E(vib)   ...       0.00 
freq.    1446.37  E(vib)   ...       0.00 
freq.    1446.87  E(vib)   ...       0.00 
freq.    1450.50  E(vib)   ...       0.00 
freq.    1450.88  E(vib)   ...       0.00 
freq.    1451.83  E(vib)   ...       0.00 
freq.    1453.07  E(vib)   ...       0.00 
freq.    1453.82  E(vib)   ...       0.00 
freq.    1455.15  E(vib)   ...       0.00 
freq.    1456.16  E(vib)   ...       0.00 
freq.    1458.80  E(vib)   ...       0.00 
freq.    1460.16  E(vib)   ...       0.00 
freq.    1464.79  E(vib)   ...       0.00 
freq.    1467.17  E(vib)   ...       0.00 
freq.    1469.67  E(vib)   ...       0.00 
freq.    1470.13  E(vib)   ...       0.00 
freq.    1472.77  E(vib)   ...       0.00 
freq.    1478.03  E(vib)   ...       0.00 
freq.    1501.02  E(vib)   ...       0.00 
freq.    1525.12  E(vib)   ...       0.00 
freq.    1613.67  E(vib)   ...       0.00 
freq.    1652.71  E(vib)   ...       0.00 
freq.    1657.87  E(vib)   ...       0.00 
freq.    1670.54  E(vib)   ...       0.00 
freq.    1685.89  E(vib)   ...       0.00 
freq.    1703.56  E(vib)   ...       0.00 
freq.    1711.97  E(vib)   ...       0.00 
freq.    2866.07  E(vib)   ...       0.00 
freq.    2920.83  E(vib)   ...       0.00 
freq.    2924.14  E(vib)   ...       0.00 
freq.    2925.17  E(vib)   ...       0.00 
freq.    2925.71  E(vib)   ...       0.00 
freq.    2929.16  E(vib)   ...       0.00 
freq.    2931.86  E(vib)   ...       0.00 
freq.    2939.44  E(vib)   ...       0.00 
freq.    2941.66  E(vib)   ...       0.00 
freq.    2943.88  E(vib)   ...       0.00 
freq.    2944.30  E(vib)   ...       0.00 
freq.    2945.49  E(vib)   ...       0.00 
freq.    2948.76  E(vib)   ...       0.00 
freq.    2950.52  E(vib)   ...       0.00 
freq.    2952.85  E(vib)   ...       0.00 
freq.    2955.20  E(vib)   ...       0.00 
freq.    2956.26  E(vib)   ...       0.00 
freq.    2957.45  E(vib)   ...       0.00 
freq.    2958.31  E(vib)   ...       0.00 
freq.    2961.50  E(vib)   ...       0.00 
freq.    2964.43  E(vib)   ...       0.00 
freq.    2964.55  E(vib)   ...       0.00 
freq.    2965.56  E(vib)   ...       0.00 
freq.    2968.35  E(vib)   ...       0.00 
freq.    2975.88  E(vib)   ...       0.00 
freq.    2976.38  E(vib)   ...       0.00 
freq.    2976.71  E(vib)   ...       0.00 
freq.    2979.34  E(vib)   ...       0.00 
freq.    2980.08  E(vib)   ...       0.00 
freq.    2986.76  E(vib)   ...       0.00 
freq.    2987.60  E(vib)   ...       0.00 
freq.    2997.40  E(vib)   ...       0.00 
freq.    2997.55  E(vib)   ...       0.00 
freq.    2998.52  E(vib)   ...       0.00 
freq.    2999.92  E(vib)   ...       0.00 
freq.    3005.90  E(vib)   ...       0.00 
freq.    3007.89  E(vib)   ...       0.00 
freq.    3008.44  E(vib)   ...       0.00 
freq.    3016.81  E(vib)   ...       0.00 
freq.    3018.07  E(vib)   ...       0.00 
freq.    3019.20  E(vib)   ...       0.00 
freq.    3019.32  E(vib)   ...       0.00 
freq.    3019.66  E(vib)   ...       0.00 
freq.    3021.16  E(vib)   ...       0.00 
freq.    3025.61  E(vib)   ...       0.00 
freq.    3026.70  E(vib)   ...       0.00 
freq.    3029.68  E(vib)   ...       0.00 
freq.    3030.07  E(vib)   ...       0.00 
freq.    3032.06  E(vib)   ...       0.00 
freq.    3032.84  E(vib)   ...       0.00 
freq.    3041.09  E(vib)   ...       0.00 
freq.    3046.04  E(vib)   ...       0.00 
freq.    3050.22  E(vib)   ...       0.00 
freq.    3053.96  E(vib)   ...       0.00 
freq.    3057.01  E(vib)   ...       0.00 
freq.    3065.86  E(vib)   ...       0.00 
freq.    3068.98  E(vib)   ...       0.00 
freq.    3070.29  E(vib)   ...       0.00 
freq.    3295.63  E(vib)   ...       0.00 
freq.    3413.83  E(vib)   ...       0.00 
freq.    3474.94  E(vib)   ...       0.00 
freq.    3482.84  E(vib)   ...       0.00 
freq.    3488.58  E(vib)   ...       0.00 
freq.    3503.76  E(vib)   ...       0.00 

------------
INNER ENERGY
------------

The inner energy is: U= E(el) + E(ZPE) + E(vib) + E(rot) + E(trans)
    E(el)   - is the total energy from the electronic structure calculation
              = E(kin-el) + E(nuc-el) + E(el-el) + E(nuc-nuc)
    E(ZPE)  - the the zero temperature vibrational energy from the frequency calculation
    E(vib)  - the the finite temperature correction to E(ZPE) due to population
              of excited vibrational states
    E(rot)  - is the rotational thermal energy
    E(trans)- is the translational thermal energy

Summary of contributions to the inner energy U:
Electronic energy                ...  -2380.07259182 Eh
Zero point energy                ...      0.97669079 Eh     612.88 kcal/mol
Thermal vibrational correction   ...      0.05618819 Eh      35.26 kcal/mol
Thermal rotational correction    ...      0.00141627 Eh       0.89 kcal/mol
Thermal translational correction ...      0.00141627 Eh       0.89 kcal/mol
-----------------------------------------------------------------------
Total thermal energy                  -2379.03688031 Eh


Summary of corrections to the electronic energy:
(perhaps to be used in another calculation)
Total thermal correction                  0.05902073 Eh      37.04 kcal/mol
Non-thermal (ZPE) correction              0.97669079 Eh     612.88 kcal/mol
-----------------------------------------------------------------------
Total correction                          1.03571151 Eh     649.92 kcal/mol


--------
ENTHALPY
--------

The enthalpy is H = U + kB*T
                kB is Boltzmann's constant
Total free energy                 ...  -2379.03688031 Eh 
Thermal Enthalpy correction       ...      0.00094421 Eh       0.59 kcal/mol
-----------------------------------------------------------------------
Total Enthalpy                    ...  -2379.03593610 Eh


Note: Only C1 symmetry has been detected, increase convergence thresholds 
      if your molecule has a higher symmetry. Symmetry factor of 1.0 is   
      used for the rotational entropy correction. 
 

Note: Rotational entropy computed according to Herzberg 
Infrared and Raman Spectra, Chapter V,1, Van Nostrand Reinhold, 1945 
Point Group:  C1, Symmetry Number:   1  
Rotational constants in cm-1:     0.002006     0.000834     0.000697 

Vibrational entropy computed according to the QRRHO of S. Grimme
Chem.Eur.J. 2012 18 9955


-------
ENTROPY
-------

The entropy contributions are T*S = T*(S(el)+S(vib)+S(rot)+S(trans))
     S(el)   - electronic entropy
     S(vib)  - vibrational entropy
     S(rot)  - rotational entropy
     S(trans)- translational entropy
The entropies will be listed as mutliplied by the temperature to get
units of energy

Electronic entropy                ...      0.00000000 Eh      0.00 kcal/mol
Vibrational entropy               ...      0.10449540 Eh     65.57 kcal/mol
Rotational entropy                ...      0.01922110 Eh     12.06 kcal/mol
Translational entropy             ...      0.02166895 Eh     13.60 kcal/mol
-----------------------------------------------------------------------
Final entropy term                ...      0.14538545 Eh     91.23 kcal/mol

In case the symmetry of your molecule has not been determined correctly
or in case you have a reason to use a different symmetry number we print 
out the resulting rotational entropy values for sn=1,12 :
 --------------------------------------------------------
|  sn= 1 | S(rot)=       0.01922110 Eh     12.06 kcal/mol|
|  sn= 2 | S(rot)=       0.01856664 Eh     11.65 kcal/mol|
|  sn= 3 | S(rot)=       0.01818381 Eh     11.41 kcal/mol|
|  sn= 4 | S(rot)=       0.01791218 Eh     11.24 kcal/mol|
|  sn= 5 | S(rot)=       0.01770150 Eh     11.11 kcal/mol|
|  sn= 6 | S(rot)=       0.01752935 Eh     11.00 kcal/mol|
|  sn= 7 | S(rot)=       0.01738381 Eh     10.91 kcal/mol|
|  sn= 8 | S(rot)=       0.01725773 Eh     10.83 kcal/mol|
|  sn= 9 | S(rot)=       0.01714652 Eh     10.76 kcal/mol|
|  sn=10 | S(rot)=       0.01704704 Eh     10.70 kcal/mol|
|  sn=11 | S(rot)=       0.01695705 Eh     10.64 kcal/mol|
|  sn=12 | S(rot)=       0.01687489 Eh     10.59 kcal/mol|
 --------------------------------------------------------


-------------------
GIBBS FREE ENERGY
-------------------

The Gibbs free energy is G = H - T*S

Total enthalpy                    ...  -2379.03593610 Eh 
Total entropy correction          ...     -0.14538545 Eh    -91.23 kcal/mol
-----------------------------------------------------------------------
Final Gibbs free energy         ...  -2379.18132155 Eh

For completeness - the Gibbs free energy minus the electronic energy
G-E(el)                           ...      0.89127027 Eh    559.28 kcal/mol

--------------------------------------------------------------------------
WARNING: No preset parameters were found for the device that Open MPI
detected:

  Local host:            eu-g1-004-4
  Device name:           mlx5_0
  Device vendor ID:      0x02c9
  Device vendor part ID: 4123

Default device parameters will be used, which may result in lower
performance.  You can edit any of the files specified by the
btl_openib_device_param_files MCA parameter to set values for your
device.

NOTE: You can turn off this warning by setting the MCA parameter
      btl_openib_warn_no_device_params_found to 0.
--------------------------------------------------------------------------
--------------------------------------------------------------------------
WARNING: There was an error initializing an OpenFabrics device.

  Local host:   eu-g1-004-4
  Local device: mlx5_0
--------------------------------------------------------------------------

Timings for individual modules:

Sum of individual times         ...    21703.688 sec (= 361.728 min)
GTO integral calculation        ...       11.689 sec (=   0.195 min)   0.1 %
SCF iterations                  ...      330.586 sec (=   5.510 min)   1.5 %
SCF Gradient evaluation         ...       59.675 sec (=   0.995 min)   0.3 %
Geometry relaxation             ...        3.997 sec (=   0.067 min)   0.0 %
Analytical frequency calculation...    21297.740 sec (= 354.962 min)  98.1 %
                             ****ORCA TERMINATED NORMALLY****
TOTAL RUN TIME: 0 days 6 hours 2 minutes 1 seconds 210 msec
