
                                 *****************
                                 * O   R   C   A *
                                 *****************

           --- An Ab Initio, DFT and Semiempirical electronic structure package ---

                  #######################################################
                  #                        -***-                        #
                  #          Department of theory and spectroscopy      #
                  #               Directorship: Frank Neese             #
                  #        Max Planck Institute fuer Kohlenforschung    #
                  #                Kaiser Wilhelm Platz 1               #
                  #                 D-45470 Muelheim/Ruhr               #
                  #                      Germany                        #
                  #                                                     #
                  #                  All rights reserved                #
                  #                        -***-                        #
                  #######################################################


                         Program Version 4.2.0 -  RELEASE  -


 With contributions from (in alphabetic order):
   Daniel Aravena         : Magnetic Suceptibility
   Michael Atanasov       : Ab Initio Ligand Field Theory (pilot matlab implementation)
   Alexander A. Auer      : GIAO ZORA, VPT2
   Ute Becker             : Parallelization
   Giovanni Bistoni       : ED, misc. LED, open-shell LED, HFLED
   Martin Brehm           : Molecular dynamics
   Dmytro Bykov           : SCF Hessian
   Vijay G. Chilkuri      : MRCI spin determinant printing, contributions to CSF-ICE
   Dipayan Datta          : RHF DLPNO-CCSD density
   Achintya Kumar Dutta   : EOM-CC, STEOM-CC
   Dmitry Ganyushin       : Spin-Orbit,Spin-Spin,Magnetic field MRCI
   Miquel Garcia          : C-PCM Hessian, Gaussian charge scheme
   Yang Guo               : DLPNO-NEVPT2, CIM, IAO-localization
   Andreas Hansen         : Spin unrestricted coupled pair/coupled cluster methods
   Benjamin Helmich-Paris : CASSCF linear response (MC-RPA)
   Lee Huntington         : MR-EOM, pCC
   Robert Izsak           : Overlap fitted RIJCOSX, COSX-SCS-MP3, EOM
   Christian Kollmar      : KDIIS, OOCD, Brueckner-CCSD(T), CCSD density
   Simone Kossmann        : Meta GGA functionals, TD-DFT gradient, OOMP2, MP2 Hessian
   Martin Krupicka        : AUTO-CI
   Lucas Lang             : DCDCAS
   Dagmar Lenk            : GEPOL surface, SMD
   Dimitrios Liakos       : Extrapolation schemes; Compound Job, initial MDCI parallelization
   Dimitrios Manganas     : Further ROCIS development; embedding schemes
   Dimitrios Pantazis     : SARC Basis sets
   Taras Petrenko         : DFT Hessian,TD-DFT gradient, ASA, ECA, R-Raman, ABS, FL, XAS/XES, NRVS
   Peter Pinski           : DLPNO-MP2, DLPNO-MP2 Gradient
   Christoph Reimann      : Effective Core Potentials
   Marius Retegan         : Local ZFS, SOC
   Christoph Riplinger    : Optimizer, TS searches, QM/MM, DLPNO-CCSD(T), (RO)-DLPNO pert. Triples
   Tobias Risthaus        : Range-separated hybrids, TD-DFT gradient, RPA, STAB
   Michael Roemelt        : Original ROCIS implementation
   Masaaki Saitow         : Open-shell DLPNO-CCSD energy and density
   Barbara Sandhoefer     : DKH picture change effects
   Avijit Sen             : IP-ROCIS
   Kantharuban Sivalingam : CASSCF convergence, NEVPT2, FIC-MRCI
   Bernardo de Souza      : ESD, SOC TD-DFT
   Georgi Stoychev        : AutoAux, RI-MP2 NMR
   Willem Van den Heuvel  : Paramagnetic NMR
   Boris Wezisla          : Elementary symmetry handling
   Frank Wennmohs         : Technical directorship


 We gratefully acknowledge several colleagues who have allowed us to
 interface, adapt or use parts of their codes:
   Stefan Grimme, W. Hujo, H. Kruse,             : VdW corrections, initial TS optimization,
                  C. Bannwarth                     DFT functionals, gCP, sTDA/sTD-DF
   Ed Valeev, F. Pavosevic, A. Kumar             : LibInt (2-el integral package), F12 methods
   Garnet Chan, S. Sharma, J. Yang, R. Olivares  : DMRG
   Ulf Ekstrom                                   : XCFun DFT Library
   Mihaly Kallay                                 : mrcc  (arbitrary order and MRCC methods)
   Andreas Klamt, Michael Diedenhofen            : otool_cosmo (COSMO solvation model)
   Jiri Pittner, Ondrej Demel                    : Mk-CCSD
   Frank Weinhold                                : gennbo (NPA and NBO analysis)
   Christopher J. Cramer and Donald G. Truhlar   : smd solvation model
   Lars Goerigk                                  : TD-DFT with DH, B97 family of functionals
   V. Asgeirsson, H. Jonsson                     : NEB implementation
   FAccTs GmbH                                   : IRC, NEB, NEB-TS, Multilevel, MM, QM/MM, CI optimization
   S Lehtola, MJT Oliveira, MAL Marques          : LibXC Library


 Your calculation uses the libint2 library for the computation of 2-el integrals
 For citations please refer to: http://libint.valeyev.net

 Your ORCA version has been built with support for libXC version: 4.2.3
 For citations please refer to: https://tddft.org/programs/libxc/

 This ORCA versions uses:
   CBLAS   interface :  Fast vector & matrix operations
   LAPACKE interface :  Fast linear algebra routines
   SCALAPACK package :  Parallel linear algebra routines




***************************************
The coordinates will be read from file: 18.xyz
***************************************


Your calculation utilizes the atom-pairwise dispersion correction
with the Becke-Johnson damping scheme (D3BJ)
Cite in your paper:
S.Grimme, S.Ehrlich, L.Goerigk, J Comput Chem, (2011), 32, 1456–1465 
S.Grimme, J.Antony, S.Ehrlich and H.Krieg, J.Chem.Phys., 132, (2010), 154104 
   

----- Orbital basis set information -----
Your calculation utilizes the basis: def2-TZVP
   F. Weigend and R. Ahlrichs, Phys. Chem. Chem. Phys. 7, 3297 (2005).

----- AuxJ basis set information -----
Your calculation utilizes the auxiliary basis: def2/J
   F. Weigend, Phys. Chem. Chem. Phys. 8, 1057 (2006).

================================================================================
                                        WARNINGS
                       Please study these warnings very carefully!
================================================================================


WARNING: Geometry Optimization
  ===> : Switching off AutoStart
         For restart on a previous wavefunction, please use MOREAD

INFO   : the flag for use of LIBINT has been found!

================================================================================
                                       INPUT FILE
================================================================================
NAME = 18.inp
|  1> !RI BP86 def2-tzvp def2/J D3BJ TIGHTSCF TightOpt Grid5 FinalGrid6 freq
|  2> %maxcore 4000
|  3> %pal nprocs 24
|  4> end
|  5> * xyzfile 0 1 18.xyz 
|  6> 
|  7>                          ****END OF INPUT****
================================================================================

                       *****************************
                       * Geometry Optimization Run *
                       *****************************

Geometry optimization settings:
Update method            Update   .... BFGS
Choice of coordinates    CoordSys .... Z-matrix Internals
Initial Hessian          InHess   .... Almoef's Model

Convergence Tolerances:
Energy Change            TolE     ....  1.0000e-06 Eh
Max. Gradient            TolMAXG  ....  1.0000e-04 Eh/bohr
RMS Gradient             TolRMSG  ....  3.0000e-05 Eh/bohr
Max. Displacement        TolMAXD  ....  1.0000e-03 bohr
RMS Displacement         TolRMSD  ....  6.0000e-04 bohr
Strict Convergence                ....  False
------------------------------------------------------------------------------
                        ORCA OPTIMIZATION COORDINATE SETUP
------------------------------------------------------------------------------

The optimization will be done in new redundant internal coordinates
Making redundant internal coordinates   ...  (new redundants) done
Evaluating the initial hessian          ...  (Almloef) done
Evaluating the coordinates              ...  done
Calculating the B-matrix                .... done
Calculating the G-matrix                .... done
Diagonalizing the G-matrix              .... done
Small eigenvalue found = 3.536e-04
Small eigenvalue found = 1.728e-03
Small eigenvalue found = 2.552e-03
Small eigenvalue found = 3.211e-03
Small eigenvalue found = 3.947e-03
Small eigenvalue found = 5.406e-03
Small eigenvalue found = 6.485e-03
Small eigenvalue found = 6.758e-03
Small eigenvalue found = 8.640e-03
Small eigenvalue found = 1.056e-02
Small eigenvalue found = 1.102e-02
Small eigenvalue found = 1.222e-02
Small eigenvalue found = 1.431e-02
Small eigenvalue found = 1.690e-02
Small eigenvalue found = 1.946e-02
Small eigenvalue found = 2.328e-02
Small eigenvalue found = 2.512e-02
Small eigenvalue found = 2.577e-02
Small eigenvalue found = 2.915e-02
Small eigenvalue found = 3.000e-02
The first mode is                       ....  326
The number of degrees of freedom        ....  339

    -----------------------------------------------------------------
                    Redundant Internal Coordinates


    -----------------------------------------------------------------
         Definition                    Initial Value    Approx d2E/dq
    -----------------------------------------------------------------
      1. B(C   1,O   0)                  1.2345         0.990921   
      2. B(C   2,C   1)                  1.5339         0.368321   
      3. B(C   3,C   2)                  1.5426         0.356665   
      4. B(C   4,C   3)                  1.5363         0.365005   
      5. B(C   5,C   4)                  1.5326         0.369956   
      6. B(N   6,C   5)                  1.4801         0.401944   
      7. B(N   6,C   2)                  1.4682         0.419801   
      8. B(C   7,N   6)                  1.3697         0.602940   
      9. B(O   8,C   7)                  1.2311         1.003070   
     10. B(N   9,C   1)                  1.3625         0.619119   
     11. B(C  10,N   9)                  1.4547         0.441234   
     12. B(C  11,C  10)                  1.5386         0.361958   
     13. B(N  12,C  11)                  1.3556         0.635017   
     14. B(C  13,N  12)                  1.4616         0.430165   
     15. B(C  14,C  13)                  1.5434         0.355680   
     16. B(N  15,C  14)                  1.3529         0.641201   
     17. B(C  16,N  15)                  1.4612         0.430787   
     18. B(C  17,C  16)                  1.5374         0.363562   
     19. B(C  18,C  17)                  1.5667         0.326504   
     20. B(C  19,C  18)                  1.5196         0.388061   
     21. B(N  20,C  19)                  1.3626         0.618755   
     22. B(C  21,N  20)                  1.4570         0.437564   
     23. B(C  22,C  21)                  1.5454         0.352993   
     24. B(N  23,C  22)                  1.3582         0.629032   
     25. B(C  24,N  23)                  1.4611         0.430920   
     26. B(C  24,C   7)                  1.5385         0.362047   
     27. B(C  25,C  24)                  1.5263         0.378715   
     28. B(O  26,C  22)                  1.2375         0.980043   
     29. B(C  27,C  21)                  1.5292         0.374646   
     30. B(C  28,C  27)                  1.5354         0.366182   
     31. B(C  29,C  28)                  1.5332         0.369154   
     32. B(C  30,C  28)                  1.5325         0.370131   
     33. B(O  31,C  19)                  1.2354         0.987346   
     34. B(C  32,C  18)                  1.5330         0.369433   
     35. B(C  33,C  32)                  1.5052         0.409198   
     36. B(C  34,C  33)                  1.5457         0.352606   
     37. B(C  35,C  34)                  1.5338         0.368342   
     38. B(C  36,C  35)                  1.5311         0.372090   
     39. B(C  37,C  36)                  1.5296         0.374191   
     40. B(C  38,C  37)                  1.5304         0.373070   
     41. B(C  39,C  38)                  1.5297         0.374015   
     42. B(C  40,C  39)                  1.5311         0.372126   
     43. B(C  41,C  40)                  1.5298         0.373794   
     44. B(O  42,C  32)                  1.2310         1.003486   
     45. B(O  43,C  17)                  1.4272         0.488060   
     46. B(O  44,C  14)                  1.2377         0.979294   
     47. B(C  45,C  13)                  1.5373         0.363740   
     48. B(C  46,C  45)                  1.5287         0.375410   
     49. B(O  47,C  11)                  1.2411         0.967092   
     50. B(C  48,C  10)                  1.5396         0.360654   
     51. B(C  49,C  48)                  1.5294         0.374415   
     52. B(C  50,C  48)                  1.5336         0.368607   
     53. B(H  51,C   2)                  1.0970         0.350965   
     54. B(H  52,C   3)                  1.0999         0.347280   
     55. B(H  53,C   3)                  1.0966         0.351529   
     56. B(H  54,C   4)                  1.0999         0.347212   
     57. B(H  55,C   4)                  1.0972         0.350711   
     58. B(H  56,C   5)                  1.0984         0.349113   
     59. B(H  57,C   5)                  1.1034         0.342809   
     60. B(H  58,N   9)                  1.0174         0.421049   
     61. B(H  59,C  10)                  1.1003         0.346790   
     62. B(H  60,N  12)                  1.0219         0.414164   
     63. B(H  61,C  13)                  1.1022         0.344271   
     64. B(H  62,N  15)                  1.0213         0.415076   
     65. B(H  63,C  16)                  1.0961         0.352088   
     66. B(H  64,C  16)                  1.0989         0.348533   
     67. B(H  65,C  17)                  1.1009         0.346017   
     68. B(H  66,C  18)                  1.1015         0.345197   
     69. B(H  67,O  47)                  2.1353         0.006931   
     70. B(H  67,N  20)                  1.0238         0.411354   
     71. B(H  68,C  21)                  1.1025         0.343977   
     72. B(H  69,O  44)                  3.9197         0.000010   
     73. B(H  69,N  23)                  1.0295         0.402809   
     74. B(H  70,C  24)                  1.0969         0.351094   
     75. B(H  71,C  25)                  1.0978         0.349941   
     76. B(H  72,C  25)                  1.0989         0.348565   
     77. B(H  73,C  25)                  1.0974         0.350404   
     78. B(H  74,C  27)                  1.1012         0.345623   
     79. B(H  75,C  27)                  1.0979         0.349759   
     80. B(H  76,C  28)                  1.1046         0.341268   
     81. B(H  77,C  29)                  1.0986         0.348884   
     82. B(H  78,C  29)                  1.0999         0.347186   
     83. B(H  79,C  29)                  1.1021         0.344430   
     84. B(H  80,C  30)                  1.1003         0.346765   
     85. B(H  81,C  30)                  1.1016         0.345030   
     86. B(H  82,C  30)                  1.0999         0.347232   
     87. B(H  83,C  33)                  1.0987         0.348771   
     88. B(H  84,C  33)                  1.0994         0.347872   
     89. B(H  85,C  34)                  1.1015         0.345252   
     90. B(H  86,C  34)                  1.0997         0.347489   
     91. B(H  87,C  35)                  1.1043         0.341648   
     92. B(H  88,C  35)                  1.1033         0.342976   
     93. B(H  89,C  36)                  1.1026         0.343863   
     94. B(H  90,C  36)                  1.1027         0.343735   
     95. B(H  91,C  37)                  1.1047         0.341165   
     96. B(H  92,C  37)                  1.1044         0.341543   
     97. B(H  93,C  38)                  1.1040         0.342000   
     98. B(H  94,H  78)                  2.6663         0.000211   
     99. B(H  94,C  38)                  1.1042         0.341786   
    100. B(H  95,C  39)                  1.1047         0.341171   
    101. B(H  96,C  39)                  1.1046         0.341313   
    102. B(H  97,C  40)                  1.1034         0.342837   
    103. B(H  98,C  40)                  1.1034         0.342750   
    104. B(H  99,C  41)                  1.0995         0.347712   
    105. B(H 100,C  41)                  1.1008         0.346127   
    106. B(H 101,C  41)                  1.1008         0.346080   
    107. B(H 102,O   8)                  2.6044         0.001237   
    108. B(H 102,O  43)                  0.9975         0.453034   
    109. B(H 103,C  45)                  1.1009         0.345948   
    110. B(H 104,C  45)                  1.0997         0.347490   
    111. B(H 105,C  46)                  1.0984         0.349222   
    112. B(H 106,C  46)                  1.1007         0.346223   
    113. B(H 107,C  46)                  1.0982         0.349364   
    114. B(H 108,C  48)                  1.1036         0.342536   
    115. B(H 109,H  76)                  3.1805         0.000032   
    116. B(H 109,C  49)                  1.0947         0.353996   
    117. B(H 110,C  49)                  1.0994         0.347902   
    118. B(H 111,C  49)                  1.1015         0.345235   
    119. B(H 112,C  50)                  1.0996         0.347613   
    120. B(H 113,C  50)                  1.1002         0.346905   
    121. B(H 114,C  50)                  1.0988         0.348663   
    122. A(O   0,C   1,N   9)          123.0678         0.466293   
    123. A(C   2,C   1,N   9)          115.4162         0.393078   
    124. A(O   0,C   1,C   2)          121.3518         0.427234   
    125. A(C   1,C   2,H  51)          106.1328         0.322205   
    126. A(N   6,C   2,H  51)          110.4680         0.327237   
    127. A(C   1,C   2,N   6)          113.0545         0.367480   
    128. A(C   1,C   2,C   3)          110.8265         0.359621   
    129. A(C   3,C   2,H  51)          113.2902         0.320514   
    130. A(C   3,C   2,N   6)          103.2442         0.365461   
    131. A(C   4,C   3,H  53)          113.9710         0.321813   
    132. A(C   4,C   3,H  52)          110.4542         0.321173   
    133. A(C   2,C   3,C   4)          103.4161         0.359068   
    134. A(C   2,C   3,H  53)          111.8610         0.320598   
    135. A(C   2,C   3,H  52)          109.0556         0.319962   
    136. A(H  52,C   3,H  53)          107.9852         0.288102   
    137. A(H  54,C   4,H  55)          107.7951         0.287988   
    138. A(C   3,C   4,H  55)          113.1556         0.321690   
    139. A(C   3,C   4,C   5)          103.5835         0.361314   
    140. A(C   3,C   4,H  54)          110.1914         0.321163   
    141. A(C   5,C   4,H  55)          112.1485         0.322401   
    142. A(C   5,C   4,H  54)          109.9398         0.321872   
    143. A(H  56,C   5,H  57)          108.6689         0.287209   
    144. A(C   4,C   5,N   6)          102.8741         0.365030   
    145. A(C   4,C   5,H  56)          113.5538         0.322160   
    146. A(N   6,C   5,H  57)          110.1007         0.323653   
    147. A(N   6,C   5,H  56)          110.7924         0.324623   
    148. A(C   4,C   5,H  57)          110.7519         0.321200   
    149. A(C   5,N   6,C   7)          127.6025         0.394760   
    150. A(C   2,N   6,C   7)          118.7991         0.397783   
    151. A(C   2,N   6,C   5)          112.7651         0.370704   
    152. A(O   8,C   7,C  24)          120.9887         0.426852   
    153. A(N   6,C   7,O   8)          121.4643         0.465074   
    154. A(N   6,C   7,C  24)          117.3901         0.390088   
    155. A(C   1,N   9,C  10)          120.6558         0.403160   
    156. A(C  10,N   9,H  58)          120.1057         0.337148   
    157. A(C   1,N   9,H  58)          117.8527         0.356920   
    158. A(C  48,C  10,H  59)          107.4696         0.320470   
    159. A(C  11,C  10,H  59)          106.8976         0.320659   
    160. A(N   9,C  10,C  11)          108.4511         0.369528   
    161. A(N   9,C  10,C  48)          112.9983         0.369299   
    162. A(N   9,C  10,H  59)          104.6495         0.329286   
    163. A(C  11,C  10,C  48)          115.6236         0.359235   
    164. A(N  12,C  11,O  47)          123.4909         0.466379   
    165. A(C  10,C  11,O  47)          124.0838         0.424051   
    166. A(C  10,C  11,N  12)          112.4155         0.393624   
    167. A(C  13,N  12,H  60)          118.4534         0.334806   
    168. A(C  11,N  12,C  13)          122.4740         0.403156   
    169. A(C  11,N  12,H  60)          115.3620         0.357459   
    170. A(C  14,C  13,C  45)          116.0397         0.358687   
    171. A(N  12,C  13,H  61)          105.4954         0.327514   
    172. A(C  14,C  13,H  61)          105.0628         0.319363   
    173. A(N  12,C  13,C  14)          108.9062         0.366817   
    174. A(C  45,C  13,H  61)          108.3559         0.320534   
    175. A(N  12,C  13,C  45)          112.2162         0.368230   
    176. A(C  13,C  14,N  15)          117.2337         0.393086   
    177. A(N  15,C  14,O  44)          123.2757         0.468283   
    178. A(C  13,C  14,O  44)          119.4341         0.423676   
    179. A(C  14,N  15,H  62)          119.1742         0.358182   
    180. A(C  16,N  15,H  62)          113.6435         0.335009   
    181. A(C  14,N  15,C  16)          121.0688         0.403949   
    182. A(H  63,C  16,H  64)          108.4726         0.288336   
    183. A(C  17,C  16,H  64)          108.1426         0.321154   
    184. A(N  15,C  16,H  63)          106.7796         0.328808   
    185. A(C  17,C  16,H  63)          109.9068         0.321688   
    186. A(N  15,C  16,C  17)          114.1251         0.368290   
    187. A(N  15,C  16,H  64)          109.2888         0.328258   
    188. A(O  43,C  17,H  65)          106.1561         0.334710   
    189. A(C  18,C  17,H  65)          108.1504         0.315202   
    190. A(C  16,C  17,H  65)          109.0517         0.320774   
    191. A(C  16,C  17,C  18)          111.9384         0.353484   
    192. A(C  18,C  17,O  43)          109.4260         0.369387   
    193. A(C  16,C  17,O  43)          111.8855         0.376293   
    194. A(C  19,C  18,H  66)          109.4935         0.324094   
    195. A(C  17,C  18,H  66)          106.2575         0.315081   
    196. A(C  17,C  18,C  32)          114.1933         0.354444   
    197. A(C  17,C  18,C  19)          105.6459         0.357416   
    198. A(C  19,C  18,C  32)          115.8651         0.365027   
    199. A(C  32,C  18,H  66)          104.9822         0.321491   
    200. A(C  18,C  19,N  20)          114.0551         0.396651   
    201. A(N  20,C  19,O  31)          123.2640         0.465934   
    202. A(C  18,C  19,O  31)          122.5652         0.430975   
    203. A(C  19,N  20,H  67)          117.7196         0.355476   
    204. A(C  19,N  20,C  21)          120.9142         0.402525   
    205. A(C  21,N  20,H  67)          119.8523         0.335377   
    206. A(C  27,C  21,H  68)          109.1412         0.322043   
    207. A(C  22,C  21,H  68)          105.8793         0.318924   
    208. A(N  20,C  21,H  68)          104.0162         0.328391   
    209. A(N  20,C  21,C  22)          110.3756         0.367413   
    210. A(C  22,C  21,C  27)          112.5894         0.360031   
    211. A(N  20,C  21,C  27)          114.1453         0.371190   
    212. A(C  21,C  22,N  23)          114.0302         0.391251   
    213. A(C  21,C  22,O  26)          122.1816         0.423160   
    214. A(N  23,C  22,O  26)          123.7123         0.466707   
    215. A(C  22,N  23,C  24)          122.7174         0.402608   
    216. A(C  24,N  23,H  69)          116.4008         0.333361   
    217. A(C  22,N  23,H  69)          120.7421         0.355204   
    218. A(C  25,C  24,H  70)          111.1081         0.323698   
    219. A(N  23,C  24,H  70)          106.2045         0.328671   
    220. A(C   7,C  24,H  70)          111.1878         0.321320   
    221. A(N  23,C  24,C  25)          110.3360         0.370903   
    222. A(C   7,C  24,N  23)          107.4312         0.368046   
    223. A(C   7,C  24,C  25)          110.4267         0.362256   
    224. A(H  71,C  25,H  73)          109.3690         0.288301   
    225. A(C  24,C  25,H  73)          109.9895         0.323594   
    226. A(H  71,C  25,H  72)          108.8438         0.288064   
    227. A(C  24,C  25,H  72)          110.4194         0.323315   
    228. A(C  24,C  25,H  71)          109.9313         0.323524   
    229. A(H  72,C  25,H  73)          108.2524         0.288124   
    230. A(C  28,C  27,H  75)          109.6599         0.321717   
    231. A(C  21,C  27,C  28)          114.1370         0.362290   
    232. A(H  74,C  27,H  75)          105.6607         0.287659   
    233. A(C  21,C  27,H  75)          109.6719         0.322924   
    234. A(C  28,C  27,H  74)          109.8678         0.321091   
    235. A(C  21,C  27,H  74)          107.4824         0.322294   
    236. A(C  29,C  28,C  30)          110.9917         0.362040   
    237. A(C  27,C  28,C  30)          109.7920         0.361541   
    238. A(C  27,C  28,C  29)          112.4047         0.361378   
    239. A(C  30,C  28,H  76)          107.8992         0.320988   
    240. A(C  29,C  28,H  76)          107.9299         0.320850   
    241. A(C  27,C  28,H  76)          107.6463         0.320426   
    242. A(C  28,C  29,H  79)          110.6313         0.321334   
    243. A(H  78,C  29,H  79)          107.4221         0.287172   
    244. A(H  77,C  29,H  79)          108.0624         0.287391   
    245. A(H  77,C  29,H  78)          107.6034         0.287749   
    246. A(C  28,C  29,H  78)          110.7719         0.321754   
    247. A(C  28,C  29,H  77)          112.1656         0.322011   
    248. A(H  81,C  30,H  82)          107.6630         0.287256   
    249. A(H  80,C  30,H  82)          107.9782         0.287482   
    250. A(C  28,C  30,H  82)          111.1976         0.321900   
    251. A(H  80,C  30,H  81)          107.6869         0.287196   
    252. A(C  28,C  30,H  81)          110.7537         0.321565   
    253. A(C  28,C  30,H  80)          111.3986         0.321829   
    254. A(C  33,C  32,O  42)          120.6427         0.436377   
    255. A(C  18,C  32,O  42)          118.9291         0.428431   
    256. A(C  18,C  32,C  33)          120.4280         0.368360   
    257. A(C  32,C  33,C  34)          111.1333         0.365428   
    258. A(C  34,C  33,H  84)          109.9139         0.319453   
    259. A(H  83,C  33,H  84)          109.4182         0.287824   
    260. A(C  32,C  33,H  84)          107.7128         0.327349   
    261. A(C  34,C  33,H  83)          108.9150         0.319588   
    262. A(C  32,C  33,H  83)          109.7267         0.327488   
    263. A(C  33,C  34,C  35)          112.5399         0.358925   
    264. A(H  85,C  34,H  86)          107.9763         0.287318   
    265. A(C  35,C  34,H  86)          108.9851         0.321684   
    266. A(C  33,C  34,H  86)          108.6745         0.319396   
    267. A(C  35,C  34,H  85)          110.0011         0.321344   
    268. A(C  33,C  34,H  85)          108.5525         0.319059   
    269. A(C  34,C  35,C  36)          113.7870         0.362231   
    270. A(H  87,C  35,H  88)          106.1318         0.286263   
    271. A(C  36,C  35,H  88)          109.0147         0.321528   
    272. A(C  34,C  35,H  88)          108.1258         0.320996   
    273. A(C  36,C  35,H  87)          109.6871         0.321324   
    274. A(C  34,C  35,H  87)          109.7968         0.320793   
    275. A(C  35,C  36,C  37)          113.5818         0.363207   
    276. A(H  89,C  36,H  90)          105.5894         0.286651   
    277. A(C  37,C  36,H  90)          108.5330         0.321941   
    278. A(C  35,C  36,H  90)          109.8593         0.321645   
    279. A(C  37,C  36,H  89)          109.8095         0.321961   
    280. A(C  35,C  36,H  89)          109.1603         0.321664   
    281. A(C  36,C  37,C  38)          112.9137         0.363370   
    282. A(H  91,C  37,H  92)          105.9443         0.286013   
    283. A(C  38,C  37,H  92)          109.3936         0.321446   
    284. A(C  36,C  37,H  92)          109.4524         0.321604   
    285. A(C  38,C  37,H  91)          109.3264         0.321388   
    286. A(C  36,C  37,H  91)          109.5721         0.321546   
    287. A(C  37,C  38,C  39)          113.7988         0.363341   
    288. A(H  93,C  38,H  94)          105.7167         0.286154   
    289. A(C  39,C  38,H  94)          109.2629         0.321617   
    290. A(C  37,C  38,H  94)          109.1439         0.321484   
    291. A(C  39,C  38,H  93)          109.4019         0.321650   
    292. A(C  37,C  38,H  93)          109.2018         0.321517   
    293. A(C  38,C  39,C  40)          113.4640         0.363183   
    294. A(H  95,C  39,H  96)          105.8723         0.285984   
    295. A(C  40,C  39,H  96)          109.2450         0.321278   
    296. A(C  38,C  39,H  96)          109.3792         0.321544   
    297. A(C  40,C  39,H  95)          109.2377         0.321256   
    298. A(C  38,C  39,H  95)          109.3630         0.321522   
    299. A(C  39,C  40,C  41)          113.1885         0.363147   
    300. A(H  97,C  40,H  98)          105.9071         0.286389   
    301. A(C  41,C  40,H  98)          109.6457         0.321734   
    302. A(C  39,C  40,H  98)          109.0894         0.321499   
    303. A(C  41,C  40,H  97)          109.6494         0.321748   
    304. A(C  39,C  40,H  97)          109.0997         0.321512   
    305. A(H 100,C  41,H 101)          107.4326         0.287250   
    306. A(H  99,C  41,H 101)          107.6881         0.287455   
    307. A(C  40,C  41,H 101)          111.0885         0.322244   
    308. A(H  99,C  41,H 100)          107.6825         0.287461   
    309. A(C  40,C  41,H 100)          111.0863         0.322251   
    310. A(C  40,C  41,H  99)          111.6697         0.322493   
    311. A(C  17,O  43,H 102)          107.8771         0.347120   
    312. A(C  13,C  45,C  46)          112.8405         0.362002   
    313. A(C  46,C  45,H 104)          110.1194         0.322687   
    314. A(C  13,C  45,H 104)          109.1310         0.321023   
    315. A(C  46,C  45,H 103)          109.1158         0.322452   
    316. A(C  13,C  45,H 103)          108.0480         0.320789   
    317. A(H 103,C  45,H 104)          107.4209         0.287409   
    318. A(H 106,C  46,H 107)          107.7687         0.287686   
    319. A(H 105,C  46,H 107)          107.9186         0.288074   
    320. A(C  45,C  46,H 107)          111.1988         0.322971   
    321. A(H 105,C  46,H 106)          107.8099         0.287668   
    322. A(C  45,C  46,H 106)          111.3315         0.322494   
    323. A(C  45,C  46,H 105)          110.6619         0.322950   
    324. A(C  50,C  48,H 108)          108.3778         0.320967   
    325. A(C  49,C  48,H 108)          107.9858         0.321789   
    326. A(C  10,C  48,H 108)          105.5322         0.319824   
    327. A(C  49,C  48,C  50)          110.9695         0.362661   
    328. A(C  10,C  48,C  50)          109.4250         0.360351   
    329. A(C  10,C  48,C  49)          114.2529         0.361313   
    330. A(H 110,C  49,H 111)          106.5798         0.287370   
    331. A(H 109,C  49,H 111)          108.8859         0.288151   
    332. A(C  48,C  49,H 111)          112.1099         0.322203   
    333. A(H 109,C  49,H 110)          108.1037         0.288498   
    334. A(C  48,C  49,H 110)          110.0824         0.322609   
    335. A(C  48,C  49,H 109)          110.9081         0.323529   
    336. A(H 113,C  50,H 114)          107.6591         0.287684   
    337. A(H 112,C  50,H 114)          108.2032         0.287776   
    338. A(C  48,C  50,H 114)          110.5909         0.321899   
    339. A(H 112,C  50,H 113)          107.8268         0.287549   
    340. A(C  48,C  50,H 113)          110.6929         0.321633   
    341. A(C  48,C  50,H 112)          111.7208         0.321740   
    342. D(H  51,C   2,C   1,N   9)   -141.7322         0.010166   
    343. D(C   3,C   2,C   1,N   9)     94.8733         0.010166   
    344. D(N   6,C   2,C   1,N   9)    -20.4857         0.010166   
    345. D(N   6,C   2,C   1,O   0)    164.0349         0.010166   
    346. D(C   3,C   2,C   1,O   0)    -80.6062         0.010166   
    347. D(H  51,C   2,C   1,O   0)     42.7883         0.010166   
    348. D(C   4,C   3,C   2,N   6)     29.3705         0.010219   
    349. D(H  53,C   3,C   2,H  51)    -88.0547         0.010219   
    350. D(H  53,C   3,C   2,C   1)     31.1157         0.010219   
    351. D(C   4,C   3,C   2,H  51)    148.8705         0.010219   
    352. D(H  53,C   3,C   2,N   6)    152.4453         0.010219   
    353. D(H  52,C   3,C   2,H  51)     31.3231         0.010219   
    354. D(C   4,C   3,C   2,C   1)    -91.9591         0.010219   
    355. D(H  52,C   3,C   2,C   1)    150.4935         0.010219   
    356. D(H  52,C   3,C   2,N   6)    -88.1769         0.010219   
    357. D(H  55,C   4,C   3,H  53)     78.6761         0.010669   
    358. D(H  55,C   4,C   3,H  52)    -43.0923         0.010669   
    359. D(H  54,C   4,C   3,H  52)   -163.8521         0.010669   
    360. D(H  55,C   4,C   3,C   2)   -159.6562         0.010669   
    361. D(H  54,C   4,C   3,H  53)    -42.0837         0.010669   
    362. D(C   5,C   4,C   3,C   2)    -37.9760         0.010669   
    363. D(H  54,C   4,C   3,C   2)     79.5839         0.010669   
    364. D(C   5,C   4,C   3,H  53)   -159.6436         0.010669   
    365. D(C   5,C   4,C   3,H  52)     78.5880         0.010669   
    366. D(N   6,C   5,C   4,C   3)     31.3153         0.010941   
    367. D(H  57,C   5,C   4,C   3)    -86.3038         0.010941   
    368. D(H  56,C   5,C   4,H  55)    -86.5394         0.010941   
    369. D(H  56,C   5,C   4,C   3)    151.1082         0.010941   
    370. D(H  57,C   5,C   4,H  54)    155.9608         0.010941   
    371. D(H  56,C   5,C   4,H  54)     33.3728         0.010941   
    372. D(H  57,C   5,C   4,H  55)     36.0486         0.010941   
    373. D(N   6,C   5,C   4,H  54)    -86.4201         0.010941   
    374. D(N   6,C   5,C   4,H  55)    153.6677         0.010941   
    375. D(C   5,N   6,C   2,C   3)    -10.1033         0.015027   
    376. D(C   7,N   6,C   5,H  57)    -64.5732         0.013791   
    377. D(C   7,N   6,C   5,H  56)     55.6631         0.013791   
    378. D(C   7,N   6,C   5,C   4)    177.3486         0.013791   
    379. D(C   2,N   6,C   5,H  57)    104.7300         0.013791   
    380. D(C   2,N   6,C   5,H  56)   -135.0337         0.013791   
    381. D(C   7,N   6,C   2,H  51)     38.8092         0.015027   
    382. D(C   2,N   6,C   5,C   4)    -13.3482         0.013791   
    383. D(C   7,N   6,C   2,C   3)    160.2363         0.015027   
    384. D(C   5,N   6,C   2,C   1)    109.7068         0.015027   
    385. D(C   7,N   6,C   2,C   1)    -79.9536         0.015027   
    386. D(C   5,N   6,C   2,H  51)   -131.5303         0.015027   
    387. D(C  24,C   7,N   6,C   5)    -14.3281         0.029314   
    388. D(C  24,C   7,N   6,C   2)    176.9347         0.029314   
    389. D(O   8,C   7,N   6,C   5)    170.1821         0.029314   
    390. D(O   8,C   7,N   6,C   2)      1.4449         0.029314   
    391. D(H  58,N   9,C   1,O   0)   -168.3480         0.031031   
    392. D(C  10,N   9,C   1,C   2)   -177.1635         0.031031   
    393. D(H  58,N   9,C   1,C   2)     16.2588         0.031031   
    394. D(C  10,N   9,C   1,O   0)     -1.7704         0.031031   
    395. D(H  59,C  10,N   9,C   1)     25.2433         0.016602   
    396. D(C  48,C  10,N   9,H  58)    -51.8630         0.016602   
    397. D(C  48,C  10,N   9,C   1)    141.8606         0.016602   
    398. D(C  11,C  10,N   9,C   1)    -88.5806         0.016602   
    399. D(H  59,C  10,N   9,H  58)   -168.4803         0.016602   
    400. D(C  11,C  10,N   9,H  58)     77.6958         0.016602   
    401. D(O  47,C  11,C  10,N   9)    -88.9833         0.009843   
    402. D(N  12,C  11,C  10,H  59)    -22.4212         0.009843   
    403. D(N  12,C  11,C  10,C  48)   -142.0031         0.009843   
    404. D(N  12,C  11,C  10,N   9)     89.9122         0.009843   
    405. D(O  47,C  11,C  10,H  59)    158.6832         0.009843   
    406. D(O  47,C  11,C  10,C  48)     39.1013         0.009843   
    407. D(H  60,N  12,C  11,O  47)    163.6821         0.032779   
    408. D(H  60,N  12,C  11,C  10)    -15.2211         0.032779   
    409. D(C  13,N  12,C  11,O  47)      5.7605         0.032779   
    410. D(C  13,N  12,C  11,C  10)   -173.1427         0.032779   
    411. D(H  61,C  13,N  12,C  11)    169.9383         0.015776   
    412. D(H  61,C  13,N  12,H  60)     12.6635         0.015776   
    413. D(C  45,C  13,N  12,H  60)    130.4535         0.015776   
    414. D(C  45,C  13,N  12,C  11)    -72.2717         0.015776   
    415. D(C  14,C  13,N  12,C  11)     57.6038         0.015776   
    416. D(C  14,C  13,N  12,H  60)    -99.6710         0.015776   
    417. D(O  44,C  14,C  13,C  45)    166.1812         0.009532   
    418. D(O  44,C  14,C  13,N  12)     38.4354         0.009532   
    419. D(N  15,C  14,C  13,H  61)    103.1721         0.009532   
    420. D(N  15,C  14,C  13,C  45)    -16.4621         0.009532   
    421. D(O  44,C  14,C  13,H  61)    -74.1846         0.009532   
    422. D(N  15,C  14,C  13,N  12)   -144.2079         0.009532   
    423. D(H  62,N  15,C  14,O  44)   -157.8762         0.033475   
    424. D(H  62,N  15,C  14,C  13)     24.8774         0.033475   
    425. D(C  16,N  15,C  14,O  44)     -7.1134         0.033475   
    426. D(C  16,N  15,C  14,C  13)    175.6402         0.033475   
    427. D(H  64,C  16,N  15,H  62)   -152.5564         0.015822   
    428. D(H  64,C  16,N  15,C  14)     55.1890         0.015822   
    429. D(H  63,C  16,N  15,H  62)    -35.4173         0.015822   
    430. D(H  63,C  16,N  15,C  14)    172.3281         0.015822   
    431. D(C  17,C  16,N  15,C  14)    -66.0232         0.015822   
    432. D(C  17,C  16,N  15,H  62)     86.2314         0.015822   
    433. D(H  65,C  17,C  16,H  64)     78.5863         0.010590   
    434. D(H  65,C  17,C  16,H  63)    -39.6610         0.010590   
    435. D(H  65,C  17,C  16,N  15)   -159.5685         0.010590   
    436. D(O  43,C  17,C  16,H  64)    -38.5409         0.010590   
    437. D(O  43,C  17,C  16,H  63)   -156.7881         0.010590   
    438. D(O  43,C  17,C  16,N  15)     83.3044         0.010590   
    439. D(C  18,C  17,C  16,H  64)   -161.7844         0.010590   
    440. D(C  18,C  17,C  16,H  63)     79.9684         0.010590   
    441. D(C  18,C  17,C  16,N  15)    -39.9391         0.010590   
    442. D(H  66,C  18,C  17,H  65)    178.8248         0.008700   
    443. D(H  66,C  18,C  17,O  43)    -65.9539         0.008700   
    444. D(H  66,C  18,C  17,C  16)     58.6678         0.008700   
    445. D(C  32,C  18,C  17,O  43)    178.8173         0.008700   
    446. D(C  32,C  18,C  17,C  16)    -56.5610         0.008700   
    447. D(C  32,C  18,C  17,H  65)     63.5960         0.008700   
    448. D(C  19,C  18,C  17,H  65)    -64.9023         0.008700   
    449. D(C  19,C  18,C  17,O  43)     50.3190         0.008700   
    450. D(C  19,C  18,C  17,C  16)    174.9407         0.008700   
    451. D(O  31,C  19,C  18,H  66)    177.3201         0.011210   
    452. D(O  31,C  19,C  18,C  32)    -64.2299         0.011210   
    453. D(O  31,C  19,C  18,C  17)     63.2692         0.011210   
    454. D(N  20,C  19,C  18,H  66)      1.1159         0.011210   
    455. D(N  20,C  19,C  18,C  17)   -112.9350         0.011210   
    456. D(N  20,C  19,C  18,C  32)    119.5659         0.011210   
    457. D(H  67,N  20,C  19,O  31)   -175.6667         0.030992   
    458. D(H  67,N  20,C  19,C  18)      0.5073         0.030992   
    459. D(C  21,N  20,C  19,O  31)     -9.7226         0.030992   
    460. D(C  21,N  20,C  19,C  18)    166.4515         0.030992   
    461. D(H  68,C  21,N  20,H  67)    170.6775         0.016325   
    462. D(H  68,C  21,N  20,C  19)      5.0300         0.016325   
    463. D(C  27,C  21,N  20,H  67)    -70.4892         0.016325   
    464. D(C  27,C  21,N  20,C  19)    123.8632         0.016325   
    465. D(C  22,C  21,N  20,H  67)     57.5021         0.016325   
    466. D(C  22,C  21,N  20,C  19)   -108.1454         0.016325   
    467. D(N  23,C  22,C  21,C  27)    172.8836         0.009401   
    468. D(N  23,C  22,C  21,N  20)     44.0445         0.009401   
    469. D(O  26,C  22,C  21,H  68)    109.0056         0.009401   
    470. D(O  26,C  22,C  21,C  27)    -10.1763         0.009401   
    471. D(O  26,C  22,C  21,N  20)   -139.0154         0.009401   
    472. D(N  23,C  22,C  21,H  68)    -67.9346         0.009401   
    473. D(H  69,N  23,C  22,O  26)    171.1561         0.032114   
    474. D(H  69,N  23,C  22,C  21)    -11.9572         0.032114   
    475. D(C  24,N  23,C  22,O  26)     -4.3901         0.032114   
    476. D(C  24,N  23,C  22,C  21)    172.4965         0.032114   
    477. D(H  70,C  24,N  23,H  69)    168.8883         0.015832   
    478. D(H  70,C  24,N  23,C  22)    -15.3849         0.015832   
    479. D(C  25,C  24,N  23,H  69)     48.3799         0.015832   
    480. D(C  25,C  24,N  23,C  22)   -135.8934         0.015832   
    481. D(C   7,C  24,N  23,H  69)    -72.0506         0.015832   
    482. D(C   7,C  24,N  23,C  22)    103.6761         0.015832   
    483. D(H  70,C  24,C   7,O   8)   -168.2525         0.009848   
    484. D(H  70,C  24,C   7,N   6)     16.2350         0.009848   
    485. D(C  25,C  24,C   7,O   8)    -44.4370         0.009848   
    486. D(C  25,C  24,C   7,N   6)    140.0505         0.009848   
    487. D(N  23,C  24,C   7,O   8)     75.9361         0.009848   
    488. D(N  23,C  24,C   7,N   6)    -99.5765         0.009848   
    489. D(H  73,C  25,C  24,H  70)   -179.1732         0.011435   
    490. D(H  73,C  25,C  24,N  23)    -61.6509         0.011435   
    491. D(H  73,C  25,C  24,C   7)     56.9653         0.011435   
    492. D(H  72,C  25,C  24,H  70)     61.4170         0.011435   
    493. D(H  72,C  25,C  24,N  23)    178.9394         0.011435   
    494. D(H  72,C  25,C  24,C   7)    -62.4444         0.011435   
    495. D(H  71,C  25,C  24,H  70)    -58.6889         0.011435   
    496. D(H  71,C  25,C  24,N  23)     58.8335         0.011435   
    497. D(H  71,C  25,C  24,C   7)    177.4497         0.011435   
    498. D(H  75,C  27,C  21,H  68)   -172.4932         0.011204   
    499. D(H  75,C  27,C  21,C  22)    -55.2291         0.011204   
    500. D(H  75,C  27,C  21,N  20)     71.6236         0.011204   
    501. D(H  74,C  27,C  21,H  68)    -58.0902         0.011204   
    502. D(H  74,C  27,C  21,C  22)     59.1740         0.011204   
    503. D(H  74,C  27,C  21,N  20)   -173.9734         0.011204   
    504. D(C  28,C  27,C  21,H  68)     64.0221         0.011204   
    505. D(C  28,C  27,C  21,C  22)   -178.7138         0.011204   
    506. D(C  28,C  27,C  21,N  20)    -51.8611         0.011204   
    507. D(H  76,C  28,C  27,H  75)    -65.7599         0.010733   
    508. D(H  76,C  28,C  27,H  74)    178.5253         0.010733   
    509. D(H  76,C  28,C  27,C  21)     57.7313         0.010733   
    510. D(C  30,C  28,C  27,H  75)     51.4495         0.010733   
    511. D(C  30,C  28,C  27,H  74)    -64.2653         0.010733   
    512. D(C  30,C  28,C  27,C  21)    174.9407         0.010733   
    513. D(C  29,C  28,C  27,H  75)    175.5170         0.010733   
    514. D(C  29,C  28,C  27,H  74)     59.8022         0.010733   
    515. D(C  29,C  28,C  27,C  21)    -60.9918         0.010733   
    516. D(H  79,C  29,C  28,C  30)     63.7495         0.010897   
    517. D(H  79,C  29,C  28,C  27)    -59.6501         0.010897   
    518. D(H  78,C  29,C  28,H  76)     62.7826         0.010897   
    519. D(H  78,C  29,C  28,C  30)    -55.2613         0.010897   
    520. D(H  78,C  29,C  28,C  27)   -178.6609         0.010897   
    521. D(H  77,C  29,C  28,H  76)    -57.4682         0.010897   
    522. D(H  77,C  29,C  28,C  30)   -175.5121         0.010897   
    523. D(H  79,C  29,C  28,H  76)   -178.2066         0.010897   
    524. D(H  77,C  29,C  28,C  27)     61.0883         0.010897   
    525. D(H  82,C  30,C  28,H  76)    -60.4367         0.010951   
    526. D(H  82,C  30,C  28,C  29)     57.6258         0.010951   
    527. D(H  82,C  30,C  28,C  27)   -177.4879         0.010951   
    528. D(H  81,C  30,C  28,H  76)    179.8947         0.010951   
    529. D(H  81,C  30,C  28,C  29)    -62.0428         0.010951   
    530. D(H  81,C  30,C  28,C  27)     62.8435         0.010951   
    531. D(H  80,C  30,C  28,H  76)     60.0635         0.010951   
    532. D(H  80,C  30,C  28,C  29)    178.1260         0.010951   
    533. D(H  80,C  30,C  28,C  27)    -56.9877         0.010951   
    534. D(O  42,C  32,C  18,H  66)    -46.6769         0.010223   
    535. D(O  42,C  32,C  18,C  19)   -167.5840         0.010223   
    536. D(O  42,C  32,C  18,C  17)     69.2960         0.010223   
    537. D(C  33,C  32,C  18,H  66)    133.1563         0.010223   
    538. D(C  33,C  32,C  18,C  19)     12.2492         0.010223   
    539. D(C  33,C  32,C  18,C  17)   -110.8708         0.010223   
    540. D(H  84,C  33,C  32,O  42)     23.4960         0.012403   
    541. D(H  84,C  33,C  32,C  18)   -156.3343         0.012403   
    542. D(H  83,C  33,C  32,O  42)    142.5275         0.012403   
    543. D(H  83,C  33,C  32,C  18)    -37.3028         0.012403   
    544. D(C  34,C  33,C  32,O  42)    -96.9545         0.012403   
    545. D(C  34,C  33,C  32,C  18)     83.2152         0.012403   
    546. D(H  86,C  34,C  33,H  84)   -174.9953         0.010005   
    547. D(H  86,C  34,C  33,H  83)     65.1418         0.010005   
    548. D(H  86,C  34,C  33,C  32)    -55.8544         0.010005   
    549. D(H  85,C  34,C  33,H  84)    -57.7974         0.010005   
    550. D(H  85,C  34,C  33,H  83)   -177.6603         0.010005   
    551. D(H  85,C  34,C  33,C  32)     61.3435         0.010005   
    552. D(C  35,C  34,C  33,H  84)     64.2025         0.010005   
    553. D(C  35,C  34,C  33,H  83)    -55.6605         0.010005   
    554. D(C  35,C  34,C  33,C  32)   -176.6567         0.010005   
    555. D(H  88,C  35,C  34,H  86)     63.4802         0.010852   
    556. D(H  88,C  35,C  34,H  85)    -54.7200         0.010852   
    557. D(H  88,C  35,C  34,C  33)   -175.8958         0.010852   
    558. D(H  87,C  35,C  34,H  86)    178.8559         0.010852   
    559. D(H  87,C  35,C  34,H  85)     60.6557         0.010852   
    560. D(H  87,C  35,C  34,C  33)    -60.5202         0.010852   
    561. D(C  36,C  35,C  34,H  86)    -57.7808         0.010852   
    562. D(C  36,C  35,C  34,H  85)   -175.9810         0.010852   
    563. D(C  36,C  35,C  34,C  33)     62.8431         0.010852   
    564. D(H  90,C  36,C  35,H  87)     58.6389         0.011060   
    565. D(H  90,C  36,C  35,C  34)    -64.7842         0.011060   
    566. D(H  89,C  36,C  35,H  88)    -70.2084         0.011060   
    567. D(H  89,C  36,C  35,H  87)    173.9790         0.011060   
    568. D(H  89,C  36,C  35,C  34)     50.5559         0.011060   
    569. D(C  37,C  36,C  35,H  88)     52.6885         0.011060   
    570. D(C  37,C  36,C  35,H  87)    -63.1242         0.011060   
    571. D(H  90,C  36,C  35,H  88)    174.4515         0.011060   
    572. D(C  37,C  36,C  35,C  34)    173.4528         0.011060   
    573. D(H  92,C  37,C  36,H  90)    177.8056         0.011178   
    574. D(H  92,C  37,C  36,H  89)     62.8432         0.011178   
    575. D(H  92,C  37,C  36,C  35)    -59.6961         0.011178   
    576. D(H  91,C  37,C  36,H  90)    -66.4240         0.011178   
    577. D(H  91,C  37,C  36,H  89)    178.6136         0.011178   
    578. D(H  91,C  37,C  36,C  35)     56.0743         0.011178   
    579. D(C  38,C  37,C  36,H  90)     55.6908         0.011178   
    580. D(C  38,C  37,C  36,H  89)    -59.2716         0.011178   
    581. D(C  38,C  37,C  36,C  35)    178.1891         0.011178   
    582. D(H  94,C  38,C  37,H  92)    179.6069         0.011115   
    583. D(H  94,C  38,C  37,H  91)     64.0073         0.011115   
    584. D(H  94,C  38,C  37,C  36)    -58.2454         0.011115   
    585. D(H  93,C  38,C  37,H  92)    -65.2723         0.011115   
    586. D(H  93,C  38,C  37,H  91)    179.1282         0.011115   
    587. D(H  93,C  38,C  37,C  36)     56.8754         0.011115   
    588. D(C  39,C  38,C  37,H  92)     57.2788         0.011115   
    589. D(C  39,C  38,C  37,H  91)    -58.3208         0.011115   
    590. D(C  39,C  38,C  37,C  36)    179.4265         0.011115   
    591. D(H  95,C  39,C  38,H  94)    -64.9034         0.011168   
    592. D(H  95,C  39,C  38,H  93)    179.8001         0.011168   
    593. D(H  95,C  39,C  38,C  37)     57.3591         0.011168   
    594. D(C  40,C  39,C  38,H  94)     57.3231         0.011168   
    595. D(C  40,C  39,C  38,H  93)    -57.9734         0.011168   
    596. D(C  40,C  39,C  38,C  37)    179.5856         0.011168   
    597. D(H  96,C  39,C  38,H  94)    179.5709         0.011168   
    598. D(H  96,C  39,C  38,H  93)     64.2744         0.011168   
    599. D(H  96,C  39,C  38,C  37)    -58.1666         0.011168   
    600. D(H  98,C  40,C  39,H  95)     64.7052         0.011062   
    601. D(H  98,C  40,C  39,C  38)    -57.5908         0.011062   
    602. D(H  97,C  40,C  39,H  96)    -64.6508         0.011062   
    603. D(H  97,C  40,C  39,H  95)    179.9674         0.011062   
    604. D(H  97,C  40,C  39,C  38)     57.6714         0.011062   
    605. D(C  41,C  40,C  39,H  96)     57.7242         0.011062   
    606. D(C  41,C  40,C  39,H  95)    -57.6576         0.011062   
    607. D(H  98,C  40,C  39,H  96)   -179.9130         0.011062   
    608. D(C  41,C  40,C  39,C  38)   -179.9536         0.011062   
    609. D(H 101,C  41,C  40,H  98)    -62.3147         0.011156   
    610. D(H 101,C  41,C  40,H  97)   -178.1939         0.011156   
    611. D(H 101,C  41,C  40,C  39)     59.7377         0.011156   
    612. D(H 100,C  41,C  40,H  98)    178.1586         0.011156   
    613. D(H 100,C  41,C  40,H  97)     62.2793         0.011156   
    614. D(H 100,C  41,C  40,C  39)    -59.7890         0.011156   
    615. D(H  99,C  41,C  40,H  98)     57.9262         0.011156   
    616. D(H  99,C  41,C  40,H  97)    -57.9530         0.011156   
    617. D(H  99,C  41,C  40,C  39)    179.9786         0.011156   
    618. D(H 102,O  43,C  17,H  65)   -150.9253         0.018806   
    619. D(H 102,O  43,C  17,C  18)     92.5832         0.018806   
    620. D(H 102,O  43,C  17,C  16)    -32.0694         0.018806   
    621. D(H 104,C  45,C  13,H  61)   -176.7311         0.010600   
    622. D(H 104,C  45,C  13,C  14)    -58.9005         0.010600   
    623. D(H 104,C  45,C  13,N  12)     67.1924         0.010600   
    624. D(H 103,C  45,C  13,H  61)    -60.2233         0.010600   
    625. D(H 103,C  45,C  13,C  14)     57.6074         0.010600   
    626. D(H 103,C  45,C  13,N  12)   -176.2997         0.010600   
    627. D(C  46,C  45,C  13,H  61)     60.5056         0.010600   
    628. D(C  46,C  45,C  13,C  14)    178.3362         0.010600   
    629. D(C  46,C  45,C  13,N  12)    -55.5709         0.010600   
    630. D(H 107,C  46,C  45,H 104)    -60.7305         0.011247   
    631. D(H 107,C  46,C  45,H 103)   -178.4032         0.011247   
    632. D(H 107,C  46,C  45,C  13)     61.4793         0.011247   
    633. D(H 106,C  46,C  45,H 104)    179.0801         0.011247   
    634. D(H 106,C  46,C  45,H 103)     61.4074         0.011247   
    635. D(H 106,C  46,C  45,C  13)    -58.7101         0.011247   
    636. D(H 105,C  46,C  45,H 104)     59.1995         0.011247   
    637. D(H 105,C  46,C  45,H 103)    -58.4732         0.011247   
    638. D(H 105,C  46,C  45,C  13)   -178.5907         0.011247   
    639. D(H 108,C  48,C  10,H  59)    -68.7486         0.010433   
    640. D(H 108,C  48,C  10,C  11)     50.5197         0.010433   
    641. D(H 108,C  48,C  10,N   9)    176.3153         0.010433   
    642. D(C  50,C  48,C  10,H  59)     47.6743         0.010433   
    643. D(C  50,C  48,C  10,C  11)    166.9426         0.010433   
    644. D(C  50,C  48,C  10,N   9)    -67.2617         0.010433   
    645. D(C  49,C  48,C  10,H  59)    172.7797         0.010433   
    646. D(C  49,C  48,C  10,C  11)    -67.9520         0.010433   
    647. D(C  49,C  48,C  10,N   9)     57.8437         0.010433   
    648. D(H 111,C  49,C  48,C  50)     64.4947         0.011191   
    649. D(H 111,C  49,C  48,C  10)    -59.7899         0.011191   
    650. D(H 110,C  49,C  48,H 108)     64.6868         0.011191   
    651. D(H 110,C  49,C  48,C  50)    -53.9602         0.011191   
    652. D(H 110,C  49,C  48,C  10)   -178.2448         0.011191   
    653. D(H 109,C  49,C  48,H 108)    -54.9066         0.011191   
    654. D(H 109,C  49,C  48,C  50)   -173.5537         0.011191   
    655. D(H 111,C  49,C  48,H 108)   -176.8583         0.011191   
    656. D(H 109,C  49,C  48,C  10)     62.1617         0.011191   
    657. D(H 114,C  50,C  48,H 108)    -61.6347         0.010867   
    658. D(H 114,C  50,C  48,C  49)     56.7755         0.010867   
    659. D(H 114,C  50,C  48,C  10)   -176.2397         0.010867   
    660. D(H 113,C  50,C  48,H 108)    179.1357         0.010867   
    661. D(H 113,C  50,C  48,C  49)    -62.4541         0.010867   
    662. D(H 113,C  50,C  48,C  10)     64.5307         0.010867   
    663. D(H 112,C  50,C  48,H 108)     58.9543         0.010867   
    664. D(H 112,C  50,C  48,C  49)    177.3645         0.010867   
    665. D(H 112,C  50,C  48,C  10)    -55.6507         0.010867   
    -----------------------------------------------------------------

Number of atoms                         .... 115
Number of degrees of freedom            .... 665

         *************************************************************
         *                GEOMETRY OPTIMIZATION CYCLE   1            *
         *************************************************************
---------------------------------
CARTESIAN COORDINATES (ANGSTROEM)
---------------------------------
  O      6.239678   -0.956821    1.434837
  C      5.308879   -0.245441    1.823975
  C      5.542016    1.207250    2.257622
  C      6.080870    1.268782    3.701745
  C      4.808176    1.403555    4.551660
  C      3.912805    2.324537    3.715527
  N      4.303295    1.992417    2.327061
  C      3.773501    2.493018    1.167417
  O      4.298199    2.276043    0.075028
  N      4.038624   -0.708951    1.991241
  C      3.705060   -2.089148    1.675159
  C      3.304733   -2.165872    0.191535
  N      4.364856   -2.407175   -0.618105
  C      4.261678   -2.378171   -2.075775
  C      3.742818   -0.991926   -2.512895
  N      2.912229   -0.950002   -3.580052
  C      2.296871    0.304372   -4.007858
  C      1.296341    0.889925   -2.998080
  C      0.414460   -0.222638   -2.335574
  C     -0.421136    0.488614   -1.284281
  N     -0.115146    0.140715   -0.002822
  C     -0.602821    0.926595    1.122925
  C      0.556117    1.720356    1.767243
  N      1.379381    2.322896    0.870703
  C      2.437308    3.249000    1.268213
  C      2.445500    4.469723    0.352080
  O      0.673869    1.836132    2.993635
  C     -1.404363    0.121987    2.146961
  C     -2.546598   -0.705563    1.540297
  C     -3.588344    0.167838    0.831241
  C     -3.199567   -1.564784    2.628410
  O     -1.250714    1.358141   -1.570693
  C     -0.362662   -1.086712   -3.335400
  C     -1.861778   -0.986191   -3.425940
  C     -2.287711    0.196900   -4.324906
  C     -3.809831    0.379606   -4.374238
  C     -4.434968    0.721840   -3.019137
  C     -5.924834    1.058406   -3.100068
  C     -6.543877    1.354859   -1.732249
  C     -8.031129    1.707739   -1.791206
  C     -8.644902    1.993004   -0.417872
  C    -10.132448    2.344059   -0.484041
  O      0.258863   -1.864725   -4.059157
  O      1.949691    1.646897   -1.979689
  O      4.134604    0.019719   -1.917162
  C      3.495169   -3.590681   -2.628457
  C      4.094148   -4.924697   -2.182984
  O      2.147124   -2.004312   -0.225741
  C      2.704315   -2.708576    2.667697
  C      1.379549   -1.952415    2.778352
  C      3.370863   -2.851923    4.041461
  H      6.229087    1.639161    1.519528
  H      6.712744    2.162316    3.811479
  H      6.690123    0.390931    3.947971
  H      4.327083    0.421917    4.673165
  H      4.998998    1.809688    5.552895
  H      2.839148    2.151917    3.870516
  H      4.134546    3.384204    3.928642
  H      3.298959   -0.026026    2.138494
  H      4.654356   -2.635615    1.778923
  H      5.282599   -2.263932   -0.192012
  H      5.299015   -2.425373   -2.445409
  H      2.361644   -1.777442   -3.815219
  H      1.791330    0.100647   -4.958865
  H      3.082320    1.052361   -4.184312
  H      0.627944    1.591719   -3.520211
  H      1.113032   -0.916730   -1.842068
  H      0.633752   -0.542735    0.139181
  H     -1.261672    1.678502    0.658180
  H      1.326752    2.090710   -0.130881
  H      2.220587    3.534552    2.304876
  H      1.472925    4.976996    0.395843
  H      3.228415    5.175999    0.661460
  H      2.649224    4.161817   -0.681382
  H     -1.808252    0.833559    2.883925
  H     -0.729635   -0.536466    2.709664
  H     -2.105469   -1.385602    0.789870
  H     -3.155025    0.733417   -0.005005
  H     -4.405034   -0.448834    0.427998
  H     -4.035474    0.888021    1.535555
  H     -2.463316   -2.218678    3.119281
  H     -3.654819   -0.930667    3.405743
  H     -3.993060   -2.201167    2.209868
  H     -2.285032   -0.841387   -2.422430
  H     -2.235472   -1.930293   -3.847503
  H     -1.895846    0.024693   -5.339798
  H     -1.829288    1.117652   -3.935790
  H     -4.282771   -0.530839   -4.782820
  H     -4.035353    1.189289   -5.088899
  H     -3.885238    1.565302   -2.569685
  H     -4.303740   -0.122454   -2.322138
  H     -6.468172    0.221174   -3.573561
  H     -6.069757    1.928557   -3.764552
  H     -5.989513    2.181336   -1.254216
  H     -6.402929    0.479831   -1.073663
  H     -8.584686    0.881940   -2.272858
  H     -8.173455    2.587723   -2.443496
  H     -8.090048    2.817586    0.061327
  H     -8.499935    1.113103    0.232007
  H    -10.547341    2.543532    0.514477
  H    -10.300876    3.239883   -1.101157
  H    -10.713861    1.522444   -0.929789
  H      2.843616    1.234933   -1.817832
  H      3.516094   -3.535253   -3.727775
  H      2.442988   -3.525127   -2.315463
  H      3.535490   -5.764693   -2.617358
  H      5.143826   -5.018303   -2.500710
  H      4.064295   -5.028205   -1.090041
  H      2.488749   -3.718520    2.278462
  H      0.850267   -1.949365    1.820167
  H      0.731599   -2.433351    3.525010
  H      1.522591   -0.911827    3.109960
  H      4.301752   -3.434335    3.983331
  H      3.616991   -1.864317    4.459088
  H      2.695551   -3.353773    4.748164

----------------------------
CARTESIAN COORDINATES (A.U.)
----------------------------
  NO LB      ZA    FRAG     MASS         X           Y           Z
   0 O     8.0000    0    15.999   11.791282   -1.808129    2.711448
   1 C     6.0000    0    12.011   10.032326   -0.463816    3.446813
   2 C     6.0000    0    12.011   10.472892    2.281371    4.266287
   3 C     6.0000    0    12.011   11.491180    2.397651    6.995285
   4 C     6.0000    0    12.011    9.086135    2.652334    8.601390
   5 C     6.0000    0    12.011    7.394129    4.392739    7.021328
   6 N     7.0000    0    14.007    8.132049    3.765122    4.397508
   7 C     6.0000    0    12.011    7.130883    4.711121    2.206098
   8 O     8.0000    0    15.999    8.122419    4.301099    0.141783
   9 N     7.0000    0    14.007    7.631894   -1.339722    3.762900
  10 C     6.0000    0    12.011    7.001548   -3.947918    3.165592
  11 C     6.0000    0    12.011    6.245040   -4.092905    0.361950
  12 N     7.0000    0    14.007    8.248383   -4.548901   -1.168049
  13 C     6.0000    0    12.011    8.053405   -4.494092   -3.922645
  14 C     6.0000    0    12.011    7.072902   -1.874468   -4.748684
  15 N     7.0000    0    14.007    5.503315   -1.795244   -6.765318
  16 C     6.0000    0    12.011    4.340457    0.575179   -7.573755
  17 C     6.0000    0    12.011    2.449730    1.681714   -5.665550
  18 C     6.0000    0    12.011    0.783216   -0.420725   -4.413595
  19 C     6.0000    0    12.011   -0.795832    0.923347   -2.426939
  20 N     7.0000    0    14.007   -0.217594    0.265913   -0.005332
  21 C     6.0000    0    12.011   -1.139166    1.751010    2.122020
  22 C     6.0000    0    12.011    1.050909    3.251003    3.339606
  23 N     7.0000    0    14.007    2.606652    4.389636    1.645391
  24 C     6.0000    0    12.011    4.605844    6.139720    2.396576
  25 C     6.0000    0    12.011    4.621326    8.446551    0.665335
  26 O     8.0000    0    15.999    1.273428    3.469786    5.657150
  27 C     6.0000    0    12.011   -2.653862    0.230522    4.057169
  28 C     6.0000    0    12.011   -4.812372   -1.333321    2.910740
  29 C     6.0000    0    12.011   -6.780988    0.317167    1.570817
  30 C     6.0000    0    12.011   -6.046306   -2.957013    4.966976
  31 O     8.0000    0    15.999   -2.363506    2.566514   -2.968179
  32 C     6.0000    0    12.011   -0.685333   -2.053589   -6.302992
  33 C     6.0000    0    12.011   -3.518250   -1.863632   -6.474089
  34 C     6.0000    0    12.011   -4.323148    0.372087   -8.172888
  35 C     6.0000    0    12.011   -7.199538    0.717351   -8.266112
  36 C     6.0000    0    12.011   -8.380875    1.364080   -5.705343
  37 C     6.0000    0    12.011  -11.196313    2.000098   -5.858279
  38 C     6.0000    0    12.011  -12.366136    2.560312   -3.273476
  39 C     6.0000    0    12.011  -15.176634    3.227160   -3.384888
  40 C     6.0000    0    12.011  -16.336497    3.766232   -0.789664
  41 C     6.0000    0    12.011  -19.147552    4.429629   -0.914706
  42 O     8.0000    0    15.999    0.489180   -3.523819   -7.670695
  43 O     8.0000    0    15.999    3.684381    3.112185   -3.741070
  44 O     8.0000    0    15.999    7.813270    0.037264   -3.622911
  45 C     6.0000    0    12.011    6.604911   -6.785403   -4.967063
  46 C     6.0000    0    12.011    7.736818   -9.306328   -4.125242
  47 O     8.0000    0    15.999    4.057476   -3.787601   -0.426589
  48 C     6.0000    0    12.011    5.110414   -5.118467    5.041216
  49 C     6.0000    0    12.011    2.606971   -3.689529    5.250324
  50 C     6.0000    0    12.011    6.370009   -5.389353    7.637254
  51 H     1.0000    0     1.008   11.771269    3.097566    2.871492
  52 H     1.0000    0     1.008   12.685249    4.086185    7.202651
  53 H     1.0000    0     1.008   12.642500    0.738753    7.460583
  54 H     1.0000    0     1.008    8.177003    0.797308    8.831003
  55 H     1.0000    0     1.008    9.446738    3.419814   10.493451
  56 H     1.0000    0     1.008    5.365211    4.066534    7.314215
  57 H     1.0000    0     1.008    7.813159    6.395219    7.424058
  58 H     1.0000    0     1.008    6.234129   -0.049183    4.041168
  59 H     1.0000    0     1.008    8.795458   -4.980590    3.361677
  60 H     1.0000    0     1.008    9.982666   -4.278211   -0.362850
  61 H     1.0000    0     1.008   10.013688   -4.583291   -4.621152
  62 H     1.0000    0     1.008    4.462861   -3.358879   -7.209718
  63 H     1.0000    0     1.008    3.385122    0.190195   -9.370897
  64 H     1.0000    0     1.008    5.824741    1.988674   -7.907203
  65 H     1.0000    0     1.008    1.186642    3.007913   -6.652235
  66 H     1.0000    0     1.008    2.103326   -1.732369   -3.481004
  67 H     1.0000    0     1.008    1.197618   -1.025621    0.263014
  68 H     1.0000    0     1.008   -2.384215    3.171909    1.243780
  69 H     1.0000    0     1.008    2.507197    3.950869   -0.247329
  70 H     1.0000    0     1.008    4.196301    6.679335    4.355585
  71 H     1.0000    0     1.008    2.783426    9.405159    0.748035
  72 H     1.0000    0     1.008    6.100820    9.781221    1.249978
  73 H     1.0000    0     1.008    5.006308    7.864694   -1.287625
  74 H     1.0000    0     1.008   -3.417101    1.575197    5.449828
  75 H     1.0000    0     1.008   -1.378810   -1.013773    5.120524
  76 H     1.0000    0     1.008   -3.978759   -2.618409    1.492638
  77 H     1.0000    0     1.008   -5.962134    1.385957   -0.009458
  78 H     1.0000    0     1.008   -8.324309   -0.848173    0.808799
  79 H     1.0000    0     1.008   -7.625941    1.678117    2.901779
  80 H     1.0000    0     1.008   -4.654993   -4.192694    5.894586
  81 H     1.0000    0     1.008   -6.906606   -1.758706    6.435922
  82 H     1.0000    0     1.008   -7.545789   -4.159604    4.176046
  83 H     1.0000    0     1.008   -4.318084   -1.589990   -4.577729
  84 H     1.0000    0     1.008   -4.224429   -3.647725   -7.270726
  85 H     1.0000    0     1.008   -3.582630    0.046664  -10.090755
  86 H     1.0000    0     1.008   -3.456854    2.112056   -7.437564
  87 H     1.0000    0     1.008   -8.093263   -1.003140   -9.038219
  88 H     1.0000    0     1.008   -7.625711    2.247431   -9.616626
  89 H     1.0000    0     1.008   -7.342037    2.957993   -4.856002
  90 H     1.0000    0     1.008   -8.132891   -0.231404   -4.388205
  91 H     1.0000    0     1.008  -12.223074    0.417959   -6.753052
  92 H     1.0000    0     1.008  -11.470179    3.644444   -7.113972
  93 H     1.0000    0     1.008  -11.318539    4.122127   -2.370124
  94 H     1.0000    0     1.008  -12.099782    0.906749   -2.028928
  95 H     1.0000    0     1.008  -16.222706    1.666625   -4.295079
  96 H     1.0000    0     1.008  -15.445592    4.890087   -4.617538
  97 H     1.0000    0     1.008  -15.287975    5.324466    0.115892
  98 H     1.0000    0     1.008  -16.062549    2.103460    0.438429
  99 H     1.0000    0     1.008  -19.931585    4.806579    0.972221
 100 H     1.0000    0     1.008  -19.465834    6.122491   -2.080886
 101 H     1.0000    0     1.008  -20.246263    2.877003   -1.757047
 102 H     1.0000    0     1.008    5.373655    2.333684   -3.435204
 103 H     1.0000    0     1.008    6.644454   -6.680660   -7.044474
 104 H     1.0000    0     1.008    4.616578   -6.661525   -4.375590
 105 H     1.0000    0     1.008    6.681109  -10.893692   -4.946089
 106 H     1.0000    0     1.008    9.720422   -9.483219   -4.725658
 107 H     1.0000    0     1.008    7.680404   -9.501930   -2.059878
 108 H     1.0000    0     1.008    4.703054   -7.026985    4.305669
 109 H     1.0000    0     1.008    1.606772   -3.683765    3.439618
 110 H     1.0000    0     1.008    1.382522   -4.598367    6.661303
 111 H     1.0000    0     1.008    2.877280   -1.723103    5.876972
 112 H     1.0000    0     1.008    8.129133   -6.489952    7.527404
 113 H     1.0000    0     1.008    6.835122   -3.523049    8.426455
 114 H     1.0000    0     1.008    5.093853   -6.337713    8.972729

--------------------------------
INTERNAL COORDINATES (ANGSTROEM)
--------------------------------
 O      0   0   0     0.000000000000     0.00000000     0.00000000
 C      1   0   0     1.234454164979     0.00000000     0.00000000
 C      2   1   0     1.533855255274   121.35184703     0.00000000
 C      3   2   1     1.542609330602   110.82646261   279.39381155
 C      4   3   2     1.536316926051   103.41611946   268.04091564
 C      5   4   3     1.532649926052   103.58353632   322.02397848
 N      3   2   1     1.468243245266   113.05445379   164.03488370
 C      7   3   2     1.369692976662   118.79905133   280.04635463
 O      8   7   3     1.231137025036   121.46429047     1.44485868
 N      2   1   3     1.362484739654   123.06775128   184.87301761
 C     10   2   1     1.454688618047   120.65583213   358.22962665
 C     11  10   2     1.538599416540   108.45110857   271.41937496
 N     12  11  10     1.355583218001   112.41547921    89.91224305
 C     13  12  11     1.461604660788   122.47401439   186.85725839
 C     14  13  12     1.543362124020   108.90618187    57.60383672
 N     15  14  13     1.352945030141   117.23372769   215.79214289
 C     16  15  14     1.461211234691   121.06884901   175.64024703
 C     17  16  15     1.537395239106   114.12511881   293.97677726
 C     18  17  16     1.566659943723   111.93844342   320.06085824
 C     19  18  17     1.519643840669   105.64590938   174.94070869
 N     20  19  18     1.362644888825   114.05505384   247.06502785
 C     21  20  19     1.456961877514   120.91422226   166.45147369
 C     22  21  20     1.545426019703   110.37561919   251.85458841
 N     23  22  21     1.358160828519   114.03023769    44.04447000
 C     24  23  22     1.461127244892   122.71735651   172.49653275
 C     25  24  23     1.526280094362   110.33599303   224.10661553
 O     23  22  21     1.237458974292   122.18155430   220.98460694
 C     22  21  20     1.529220744521   114.14526599   123.86324834
 C     28  22  21     1.535441078298   114.13701948   308.13885954
 C     29  28  22     1.533240339780   112.40472129   299.00819341
 C     29  28  22     1.532520864780   109.79199198   174.94069841
 O     20  19  18     1.235437980781   122.56519939    63.26921262
 C     19  18  17     1.533034939767   114.19334738   303.43902345
 C     33  19  18     1.505207079252   120.42798969   249.12920518
 C     34  33  19     1.545724495115   111.13328022    83.21522849
 C     35  34  33     1.533839653906   112.53992607   183.34332243
 C     36  35  34     1.531083711421   113.78696874    62.84312067
 C     37  36  35     1.529551118439   113.58184158   173.45279861
 C     38  37  36     1.530368285737   112.91374846   178.18909313
 C     39  38  37     1.529679120151   113.79880604   179.42651318
 C     40  39  38     1.531057748405   113.46402194   179.58558798
 C     41  40  39     1.529840329616   113.18848238   180.04638999
 O     33  19  18     1.231024116100   118.92907209    69.29601294
 O     18  17  16     1.427232726681   111.88546485    83.30435315
 O     15  14  13     1.237667050844   119.43409685    38.43542463
 C     14  13  12     1.537261905285   112.21622017   287.72830475
 C     46  14  13     1.528666258878   112.84054176   304.42913645
 O     12  11  10     1.241079965463   124.08384994   271.01665632
 C     11  10   2     1.539581447326   112.99825487   141.86061840
 C     49  11  10     1.529388080830   114.25289673    57.84366725
 C     49  11  10     1.533643916307   109.42498995   292.73829507
 H      3   2   1     1.096994795871   106.13280781    42.78834556
 H      4   3   2     1.099867587242   109.05562987   150.49352845
 H      4   3   2     1.096557150142   111.86097477    31.11571183
 H      5   4   3     1.099920867680   110.19135578    79.58394372
 H      5   4   3     1.097191724297   113.15558813   200.34375412
 H      6   5   4     1.098434608519   113.55382696   151.10815088
 H      6   5   4     1.103395313012   110.75192362   273.69615075
 H     10   2   1     1.017435091728   117.85271005   191.65195958
 H     11  10   2     1.100252235437   104.64953471    25.24326533
 H     13  12  11     1.021922825854   115.36197710   344.77892308
 H     14  13  12     1.102236621878   105.49538078   169.93827288
 H     16  15  14     1.021324364273   119.17424302    24.87742216
 H     17  16  15     1.096124710731   106.77961210   172.32812815
 H     17  16  15     1.098887626098   109.28880733    55.18903030
 H     18  17  16     1.100859626428   109.05166044   200.43151835
 H     19  18  17     1.101505700885   106.25751164    58.66780851
 H     21  20  19     1.023776098303   117.71962078     0.50732006
 H     22  21  20     1.102468759055   104.01621977     5.02995531
 H     24  23  22     1.029490581440   120.74209920   348.04278331
 H     25  24  23     1.096894423223   106.20446218   344.61507926
 H     26  25  24     1.097789953389   109.93132941    58.83350109
 H     26  25  24     1.098862065387   110.41944603   178.93938962
 H     26  25  24     1.097429964116   109.98948882   298.34912736
 H     28  22  21     1.101170003354   107.48243381   186.02656991
 H     28  22  21     1.097931272078   109.67188871    71.62355363
 H     29  28  22     1.104621607314   107.64632435    57.73129500
 H     30  29  28     1.098613553720   112.16563422    61.08830226
 H     30  29  28     1.099941430743   110.77185256   181.33913208
 H     30  29  28     1.102111135923   110.63127949   300.34987308
 H     31  29  28     1.100271351893   111.39860281   303.01231049
 H     31  29  28     1.101637195113   110.75367184    62.84354160
 H     31  29  28     1.099905216651   111.19763031   182.51207599
 H     34  33  19     1.098701581657   109.72668443   322.69720995
 H     34  33  19     1.099404450047   107.71283052   203.66572875
 H     35  34  33     1.101461840386   108.55249849    61.34347301
 H     35  34  33     1.099703635840   108.67449069   304.14555289
 H     36  35  34     1.104318816587   109.79683602   299.47983307
 H     36  35  34     1.103262319103   108.12582377   184.10416180
 H     37  36  35     1.102559680399   109.16027282    50.55592086
 H     37  36  35     1.102661065439   109.85926046   295.21582701
 H     38  37  36     1.104703290868   109.57209241    56.07426793
 H     38  37  36     1.104402256663   109.45238148   300.30385439
 H     39  38  37     1.104038370302   109.20179955    56.87544943
 H     39  38  37     1.104208275736   109.14385368   301.75462402
 H     40  39  38     1.104698898762   109.36296777    57.35908447
 H     40  39  38     1.104585903635   109.37919000   301.83337365
 H     41  40  39     1.103372754709   109.09973198    57.67139653
 H     41  40  39     1.103441947829   109.08944233   302.40920184
 H     42  41  40     1.099529526774   111.66971410   179.97864703
 H     42  41  40     1.100772753482   111.08627808   300.21096241
 H     42  41  40     1.100809640877   111.08848751    59.73772293
 H     44  18  17     0.997504347532   107.87709824   327.93058235
 H     46  14  13     1.100913743819   108.04804954   183.70030776
 H     46  14  13     1.099703328897   109.13099624    67.19242590
 H     47  46  14     1.098350145589   110.66187461   181.40927653
 H     47  46  14     1.100697778006   111.33154760   301.28985227
 H     47  46  14     1.098239402809   111.19876513    61.47925972
 H     49  11  10     1.103612009333   105.53217456   176.31534415
 H     50  49  11     1.094653727168   110.90807261    62.16169810
 H     50  49  11     1.099380451862   110.08244234   181.75515643
 H     50  49  11     1.101475070373   112.10986965   300.21006910
 H     51  49  11     1.099607131380   111.72080195   304.34934113
 H     51  49  11     1.100161862935   110.69289377    64.53070366
 H     51  49  11     1.098785840187   110.59086949   183.76032392

---------------------------
INTERNAL COORDINATES (A.U.)
---------------------------
 O      0   0   0     0.000000000000     0.00000000     0.00000000
 C      1   0   0     2.332780296690     0.00000000     0.00000000
 C      2   1   0     2.898566361544   121.35184703     0.00000000
 C      3   2   1     2.915109166469   110.82646261   279.39381155
 C      4   3   2     2.903218245145   103.41611946   268.04091564
 C      5   4   3     2.896288619413   103.58353632   322.02397848
 N      3   2   1     2.774577631533   113.05445379   164.03488370
 C      7   3   2     2.588344613447   118.79905133   280.04635463
 O      8   7   3     2.326511810649   121.46429047     1.44485868
 N      2   1   3     2.574723019593   123.06775128   184.87301761
 C     10   2   1     2.748963098242   120.65583213   358.22962665
 C     11  10   2     2.907531527071   108.45110857   271.41937496
 N     12  11  10     2.561681033761   112.41547921    89.91224305
 C     13  12  11     2.762032524952   122.47401439   186.85725839
 C     14  13  12     2.916531739865   108.90618187    57.60383672
 N     15  14  13     2.556695581217   117.23372769   215.79214289
 C     16  15  14     2.761289057375   121.06884901   175.64024703
 C     17  16  15     2.905255961505   114.12511881   293.97677726
 C     18  17  16     2.960558238621   111.93844342   320.06085824
 C     19  18  17     2.871710679965   105.64590938   174.94070869
 N     20  19  18     2.575025657667   114.05505384   247.06502785
 C     21  20  19     2.753258936065   120.91422226   166.45147369
 C     22  21  20     2.920431937474   110.37561919   251.85458841
 N     23  22  21     2.566552011720   114.03023769    44.04447000
 C     24  23  22     2.761130339657   122.71735651   172.49653275
 C     25  24  23     2.884251381999   110.33599303   224.10661553
 O     23  22  21     2.338458563375   122.18155430   220.98460694
 C     22  21  20     2.889808405455   114.14526599   123.86324834
 C     28  22  21     2.901563132756   114.13701948   308.13885954
 C     29  28  22     2.897404339664   112.40472129   299.00819341
 C     29  28  22     2.896044728955   109.79199198   174.94069841
 O     20  19  18     2.334639439121   122.56519939    63.26921262
 C     19  18  17     2.897016189892   114.19334738   303.43902345
 C     33  19  18     2.844429154626   120.42798969   249.12920518
 C     34  33  19     2.920995974261   111.13328022    83.21522849
 C     35  34  33     2.898536879231   112.53992607   183.34332243
 C     36  35  34     2.893328902693   113.78696874    62.84312067
 C     37  36  35     2.890432721683   113.58184158   173.45279861
 C     38  37  36     2.891976944081   112.91374846   178.18909313
 C     39  38  37     2.890674609864   113.79880604   179.42651318
 C     40  39  38     2.893279839704   113.46402194   179.58558798
 C     41  40  39     2.890979251601   113.18848238   180.04638999
 O     33  19  18     2.326298443682   118.92907209    69.29601294
 O     18  17  16     2.697078982797   111.88546485    83.30435315
 O     15  14  13     2.338851771074   119.43409685    38.43542463
 C     14  13  12     2.905003997099   112.21622017   287.72830475
 C     46  14  13     2.888760579445   112.84054176   304.42913645
 O     12  11  10     2.345301245021   124.08384994   271.01665632
 C     11  10   2     2.909387296311   112.99825487   141.86061840
 C     49  11  10     2.890124625251   114.25289673    57.84366725
 C     49  11  10     2.898166988775   109.42498995   292.73829507
 H      3   2   1     2.073019734534   106.13280781    42.78834556
 H      4   3   2     2.078448523464   109.05562987   150.49352845
 H      4   3   2     2.072192703962   111.86097477    31.11571183
 H      5   4   3     2.078549208901   110.19135578    79.58394372
 H      5   4   3     2.073391875326   113.15558813   200.34375412
 H      6   5   4     2.075740586121   113.55382696   151.10815088
 H      6   5   4     2.085114959045   110.75192362   273.69615075
[...]
freq.      85.07  E(vib)   ...       0.48 
freq.      88.85  E(vib)   ...       0.47 
freq.      91.15  E(vib)   ...       0.47 
freq.      98.01  E(vib)   ...       0.46 
freq.     101.26  E(vib)   ...       0.46 
freq.     112.04  E(vib)   ...       0.45 
freq.     117.85  E(vib)   ...       0.44 
freq.     125.77  E(vib)   ...       0.43 
freq.     129.60  E(vib)   ...       0.43 
freq.     134.16  E(vib)   ...       0.42 
freq.     144.25  E(vib)   ...       0.41 
freq.     145.23  E(vib)   ...       0.41 
freq.     147.02  E(vib)   ...       0.41 
freq.     153.58  E(vib)   ...       0.40 
freq.     159.79  E(vib)   ...       0.39 
freq.     163.17  E(vib)   ...       0.39 
freq.     170.16  E(vib)   ...       0.38 
freq.     183.01  E(vib)   ...       0.37 
freq.     190.99  E(vib)   ...       0.36 
freq.     195.34  E(vib)   ...       0.36 
freq.     199.64  E(vib)   ...       0.35 
freq.     210.63  E(vib)   ...       0.34 
freq.     213.87  E(vib)   ...       0.34 
freq.     214.62  E(vib)   ...       0.34 
freq.     220.70  E(vib)   ...       0.33 
freq.     226.34  E(vib)   ...       0.33 
freq.     230.88  E(vib)   ...       0.32 
freq.     231.35  E(vib)   ...       0.32 
freq.     234.59  E(vib)   ...       0.32 
freq.     237.12  E(vib)   ...       0.32 
freq.     240.99  E(vib)   ...       0.31 
freq.     242.99  E(vib)   ...       0.31 
freq.     249.63  E(vib)   ...       0.31 
freq.     260.67  E(vib)   ...       0.30 
freq.     262.11  E(vib)   ...       0.29 
freq.     268.33  E(vib)   ...       0.29 
freq.     270.60  E(vib)   ...       0.29 
freq.     279.37  E(vib)   ...       0.28 
freq.     285.01  E(vib)   ...       0.28 
freq.     291.57  E(vib)   ...       0.27 
freq.     302.18  E(vib)   ...       0.26 
freq.     309.99  E(vib)   ...       0.26 
freq.     317.56  E(vib)   ...       0.25 
freq.     325.48  E(vib)   ...       0.24 
freq.     331.02  E(vib)   ...       0.24 
freq.     336.09  E(vib)   ...       0.24 
freq.     342.67  E(vib)   ...       0.23 
freq.     349.45  E(vib)   ...       0.23 
freq.     357.48  E(vib)   ...       0.22 
freq.     371.52  E(vib)   ...       0.21 
freq.     375.93  E(vib)   ...       0.21 
freq.     390.53  E(vib)   ...       0.20 
freq.     398.90  E(vib)   ...       0.19 
freq.     406.20  E(vib)   ...       0.19 
freq.     413.57  E(vib)   ...       0.19 
freq.     415.81  E(vib)   ...       0.18 
freq.     427.58  E(vib)   ...       0.18 
freq.     443.56  E(vib)   ...       0.17 
freq.     454.26  E(vib)   ...       0.16 
freq.     458.94  E(vib)   ...       0.16 
freq.     461.64  E(vib)   ...       0.16 
freq.     469.84  E(vib)   ...       0.16 
freq.     493.47  E(vib)   ...       0.14 
freq.     524.08  E(vib)   ...       0.13 
freq.     529.96  E(vib)   ...       0.13 
freq.     541.80  E(vib)   ...       0.12 
freq.     557.55  E(vib)   ...       0.12 
freq.     570.31  E(vib)   ...       0.11 
freq.     577.85  E(vib)   ...       0.11 
freq.     596.46  E(vib)   ...       0.10 
freq.     607.44  E(vib)   ...       0.10 
freq.     619.40  E(vib)   ...       0.09 
freq.     623.32  E(vib)   ...       0.09 
freq.     628.27  E(vib)   ...       0.09 
freq.     658.28  E(vib)   ...       0.08 
freq.     664.06  E(vib)   ...       0.08 
freq.     677.52  E(vib)   ...       0.08 
freq.     689.10  E(vib)   ...       0.07 
freq.     696.96  E(vib)   ...       0.07 
freq.     711.12  E(vib)   ...       0.07 
freq.     713.43  E(vib)   ...       0.07 
freq.     714.24  E(vib)   ...       0.07 
freq.     723.95  E(vib)   ...       0.06 
freq.     733.60  E(vib)   ...       0.06 
freq.     734.92  E(vib)   ...       0.06 
freq.     747.16  E(vib)   ...       0.06 
freq.     749.39  E(vib)   ...       0.06 
freq.     758.66  E(vib)   ...       0.06 
freq.     762.85  E(vib)   ...       0.06 
freq.     767.95  E(vib)   ...       0.06 
freq.     775.63  E(vib)   ...       0.05 
freq.     787.40  E(vib)   ...       0.05 
freq.     790.24  E(vib)   ...       0.05 
freq.     805.41  E(vib)   ...       0.05 
freq.     809.98  E(vib)   ...       0.05 
freq.     823.08  E(vib)   ...       0.05 
freq.     827.30  E(vib)   ...       0.04 
freq.     835.76  E(vib)   ...       0.04 
freq.     852.46  E(vib)   ...       0.04 
freq.     854.02  E(vib)   ...       0.04 
freq.     859.20  E(vib)   ...       0.04 
freq.     870.43  E(vib)   ...       0.04 
freq.     872.38  E(vib)   ...       0.04 
freq.     876.71  E(vib)   ...       0.04 
freq.     880.26  E(vib)   ...       0.04 
freq.     892.48  E(vib)   ...       0.03 
freq.     902.01  E(vib)   ...       0.03 
freq.     904.56  E(vib)   ...       0.03 
freq.     905.88  E(vib)   ...       0.03 
freq.     910.41  E(vib)   ...       0.03 
freq.     913.40  E(vib)   ...       0.03 
freq.     917.66  E(vib)   ...       0.03 
freq.     930.16  E(vib)   ...       0.03 
freq.     936.15  E(vib)   ...       0.03 
freq.     940.31  E(vib)   ...       0.03 
freq.     944.22  E(vib)   ...       0.03 
freq.     946.02  E(vib)   ...       0.03 
freq.     948.46  E(vib)   ...       0.03 
freq.     955.31  E(vib)   ...       0.03 
freq.     957.65  E(vib)   ...       0.03 
freq.     960.36  E(vib)   ...       0.03 
freq.     973.65  E(vib)   ...       0.03 
freq.     981.31  E(vib)   ...       0.02 
freq.     986.53  E(vib)   ...       0.02 
freq.     998.83  E(vib)   ...       0.02 
freq.    1003.70  E(vib)   ...       0.02 
freq.    1006.82  E(vib)   ...       0.02 
freq.    1008.97  E(vib)   ...       0.02 
freq.    1012.51  E(vib)   ...       0.02 
freq.    1022.29  E(vib)   ...       0.02 
freq.    1032.70  E(vib)   ...       0.02 
freq.    1035.05  E(vib)   ...       0.02 
freq.    1038.94  E(vib)   ...       0.02 
freq.    1039.67  E(vib)   ...       0.02 
freq.    1045.51  E(vib)   ...       0.02 
freq.    1051.61  E(vib)   ...       0.02 
freq.    1055.74  E(vib)   ...       0.02 
freq.    1059.72  E(vib)   ...       0.02 
freq.    1078.82  E(vib)   ...       0.02 
freq.    1079.41  E(vib)   ...       0.02 
freq.    1081.42  E(vib)   ...       0.02 
freq.    1087.61  E(vib)   ...       0.02 
freq.    1097.52  E(vib)   ...       0.02 
freq.    1099.01  E(vib)   ...       0.02 
freq.    1106.63  E(vib)   ...       0.02 
freq.    1113.25  E(vib)   ...       0.01 
freq.    1119.67  E(vib)   ...       0.01 
freq.    1126.64  E(vib)   ...       0.01 
freq.    1135.67  E(vib)   ...       0.01 
freq.    1138.11  E(vib)   ...       0.01 
freq.    1145.09  E(vib)   ...       0.01 
freq.    1146.59  E(vib)   ...       0.01 
freq.    1152.46  E(vib)   ...       0.01 
freq.    1152.94  E(vib)   ...       0.01 
freq.    1160.23  E(vib)   ...       0.01 
freq.    1163.81  E(vib)   ...       0.01 
freq.    1172.50  E(vib)   ...       0.01 
freq.    1176.88  E(vib)   ...       0.01 
freq.    1179.14  E(vib)   ...       0.01 
freq.    1191.92  E(vib)   ...       0.01 
freq.    1196.41  E(vib)   ...       0.01 
freq.    1208.31  E(vib)   ...       0.01 
freq.    1211.25  E(vib)   ...       0.01 
freq.    1216.34  E(vib)   ...       0.01 
freq.    1221.69  E(vib)   ...       0.01 
freq.    1226.96  E(vib)   ...       0.01 
freq.    1231.59  E(vib)   ...       0.01 
freq.    1233.19  E(vib)   ...       0.01 
freq.    1237.50  E(vib)   ...       0.01 
freq.    1239.32  E(vib)   ...       0.01 
freq.    1246.15  E(vib)   ...       0.01 
freq.    1248.97  E(vib)   ...       0.01 
freq.    1252.15  E(vib)   ...       0.01 
freq.    1254.01  E(vib)   ...       0.01 
freq.    1256.46  E(vib)   ...       0.01 
freq.    1267.98  E(vib)   ...       0.01 
freq.    1271.71  E(vib)   ...       0.01 
freq.    1274.99  E(vib)   ...       0.01 
freq.    1278.44  E(vib)   ...       0.01 
freq.    1281.55  E(vib)   ...       0.01 
freq.    1283.71  E(vib)   ...       0.01 
freq.    1285.35  E(vib)   ...       0.01 
freq.    1286.10  E(vib)   ...       0.01 
freq.    1288.93  E(vib)   ...       0.01 
freq.    1292.54  E(vib)   ...       0.01 
freq.    1294.06  E(vib)   ...       0.01 
freq.    1300.18  E(vib)   ...       0.01 
freq.    1300.27  E(vib)   ...       0.01 
freq.    1304.71  E(vib)   ...       0.01 
freq.    1309.14  E(vib)   ...       0.01 
freq.    1309.36  E(vib)   ...       0.01 
freq.    1312.17  E(vib)   ...       0.01 
freq.    1316.54  E(vib)   ...       0.01 
freq.    1319.20  E(vib)   ...       0.01 
freq.    1327.87  E(vib)   ...       0.01 
freq.    1329.76  E(vib)   ...       0.01 
freq.    1330.12  E(vib)   ...       0.01 
freq.    1331.68  E(vib)   ...       0.01 
freq.    1333.93  E(vib)   ...       0.01 
freq.    1337.08  E(vib)   ...       0.01 
freq.    1338.91  E(vib)   ...       0.01 
freq.    1341.42  E(vib)   ...       0.01 
freq.    1348.03  E(vib)   ...       0.01 
freq.    1348.95  E(vib)   ...       0.01 
freq.    1350.96  E(vib)   ...       0.01 
freq.    1355.28  E(vib)   ...       0.01 
freq.    1357.65  E(vib)   ...       0.01 
freq.    1358.37  E(vib)   ...       0.01 
freq.    1361.12  E(vib)   ...       0.01 
freq.    1363.39  E(vib)   ...       0.01 
freq.    1364.47  E(vib)   ...       0.01 
freq.    1370.36  E(vib)   ...       0.01 
freq.    1372.41  E(vib)   ...       0.01 
freq.    1382.55  E(vib)   ...       0.01 
freq.    1417.36  E(vib)   ...       0.00 
freq.    1422.09  E(vib)   ...       0.00 
freq.    1426.80  E(vib)   ...       0.00 
freq.    1430.42  E(vib)   ...       0.00 
freq.    1430.80  E(vib)   ...       0.00 
freq.    1433.81  E(vib)   ...       0.00 
freq.    1435.63  E(vib)   ...       0.00 
freq.    1438.75  E(vib)   ...       0.00 
freq.    1440.30  E(vib)   ...       0.00 
freq.    1441.05  E(vib)   ...       0.00 
freq.    1441.54  E(vib)   ...       0.00 
freq.    1442.70  E(vib)   ...       0.00 
freq.    1442.82  E(vib)   ...       0.00 
freq.    1444.17  E(vib)   ...       0.00 
freq.    1444.54  E(vib)   ...       0.00 
freq.    1446.26  E(vib)   ...       0.00 
freq.    1449.01  E(vib)   ...       0.00 
freq.    1449.60  E(vib)   ...       0.00 
freq.    1450.05  E(vib)   ...       0.00 
freq.    1450.84  E(vib)   ...       0.00 
freq.    1451.41  E(vib)   ...       0.00 
freq.    1453.47  E(vib)   ...       0.00 
freq.    1456.59  E(vib)   ...       0.00 
freq.    1457.73  E(vib)   ...       0.00 
freq.    1458.47  E(vib)   ...       0.00 
freq.    1463.91  E(vib)   ...       0.00 
freq.    1466.44  E(vib)   ...       0.00 
freq.    1468.03  E(vib)   ...       0.00 
freq.    1469.13  E(vib)   ...       0.00 
freq.    1487.51  E(vib)   ...       0.00 
freq.    1488.11  E(vib)   ...       0.00 
freq.    1504.75  E(vib)   ...       0.00 
freq.    1512.47  E(vib)   ...       0.00 
freq.    1520.58  E(vib)   ...       0.00 
freq.    1649.06  E(vib)   ...       0.00 
freq.    1650.28  E(vib)   ...       0.00 
freq.    1654.02  E(vib)   ...       0.00 
freq.    1659.52  E(vib)   ...       0.00 
freq.    1663.25  E(vib)   ...       0.00 
freq.    1671.12  E(vib)   ...       0.00 
freq.    1674.45  E(vib)   ...       0.00 
freq.    2924.75  E(vib)   ...       0.00 
freq.    2925.41  E(vib)   ...       0.00 
freq.    2930.87  E(vib)   ...       0.00 
freq.    2933.15  E(vib)   ...       0.00 
freq.    2935.18  E(vib)   ...       0.00 
freq.    2935.72  E(vib)   ...       0.00 
freq.    2942.66  E(vib)   ...       0.00 
freq.    2943.86  E(vib)   ...       0.00 
freq.    2947.70  E(vib)   ...       0.00 
freq.    2949.29  E(vib)   ...       0.00 
freq.    2949.91  E(vib)   ...       0.00 
freq.    2953.08  E(vib)   ...       0.00 
freq.    2953.43  E(vib)   ...       0.00 
freq.    2956.13  E(vib)   ...       0.00 
freq.    2958.56  E(vib)   ...       0.00 
freq.    2961.72  E(vib)   ...       0.00 
freq.    2965.23  E(vib)   ...       0.00 
freq.    2965.82  E(vib)   ...       0.00 
freq.    2966.94  E(vib)   ...       0.00 
freq.    2970.76  E(vib)   ...       0.00 
freq.    2971.21  E(vib)   ...       0.00 
freq.    2971.98  E(vib)   ...       0.00 
freq.    2972.86  E(vib)   ...       0.00 
freq.    2974.07  E(vib)   ...       0.00 
freq.    2977.28  E(vib)   ...       0.00 
freq.    2982.25  E(vib)   ...       0.00 
freq.    2982.37  E(vib)   ...       0.00 
freq.    2982.69  E(vib)   ...       0.00 
freq.    2983.59  E(vib)   ...       0.00 
freq.    2986.21  E(vib)   ...       0.00 
freq.    2987.01  E(vib)   ...       0.00 
freq.    2989.50  E(vib)   ...       0.00 
freq.    2996.36  E(vib)   ...       0.00 
freq.    3002.26  E(vib)   ...       0.00 
freq.    3012.99  E(vib)   ...       0.00 
freq.    3013.81  E(vib)   ...       0.00 
freq.    3014.63  E(vib)   ...       0.00 
freq.    3015.95  E(vib)   ...       0.00 
freq.    3017.22  E(vib)   ...       0.00 
freq.    3019.50  E(vib)   ...       0.00 
freq.    3021.16  E(vib)   ...       0.00 
freq.    3024.61  E(vib)   ...       0.00 
freq.    3026.50  E(vib)   ...       0.00 
freq.    3029.44  E(vib)   ...       0.00 
freq.    3029.64  E(vib)   ...       0.00 
freq.    3031.97  E(vib)   ...       0.00 
freq.    3036.68  E(vib)   ...       0.00 
freq.    3036.88  E(vib)   ...       0.00 
freq.    3037.57  E(vib)   ...       0.00 
freq.    3037.84  E(vib)   ...       0.00 
freq.    3041.12  E(vib)   ...       0.00 
freq.    3041.15  E(vib)   ...       0.00 
freq.    3046.99  E(vib)   ...       0.00 
freq.    3049.75  E(vib)   ...       0.00 
freq.    3051.59  E(vib)   ...       0.00 
freq.    3058.16  E(vib)   ...       0.00 
freq.    3065.62  E(vib)   ...       0.00 
freq.    3077.23  E(vib)   ...       0.00 
freq.    3232.78  E(vib)   ...       0.00 
freq.    3296.93  E(vib)   ...       0.00 
freq.    3384.01  E(vib)   ...       0.00 
freq.    3420.54  E(vib)   ...       0.00 
freq.    3428.40  E(vib)   ...       0.00 
freq.    3487.04  E(vib)   ...       0.00 

------------
INNER ENERGY
------------

The inner energy is: U= E(el) + E(ZPE) + E(vib) + E(rot) + E(trans)
    E(el)   - is the total energy from the electronic structure calculation
              = E(kin-el) + E(nuc-el) + E(el-el) + E(nuc-nuc)
    E(ZPE)  - the the zero temperature vibrational energy from the frequency calculation
    E(vib)  - the the finite temperature correction to E(ZPE) due to population
              of excited vibrational states
    E(rot)  - is the rotational thermal energy
    E(trans)- is the translational thermal energy

Summary of contributions to the inner energy U:
Electronic energy                ...  -2380.09580924 Eh
Zero point energy                ...      0.97944490 Eh     614.61 kcal/mol
Thermal vibrational correction   ...      0.05499956 Eh      34.51 kcal/mol
Thermal rotational correction    ...      0.00141627 Eh       0.89 kcal/mol
Thermal translational correction ...      0.00141627 Eh       0.89 kcal/mol
-----------------------------------------------------------------------
Total thermal energy                  -2379.05853224 Eh


Summary of corrections to the electronic energy:
(perhaps to be used in another calculation)
Total thermal correction                  0.05783210 Eh      36.29 kcal/mol
Non-thermal (ZPE) correction              0.97944490 Eh     614.61 kcal/mol
-----------------------------------------------------------------------
Total correction                          1.03727700 Eh     650.90 kcal/mol


--------
ENTHALPY
--------

The enthalpy is H = U + kB*T
                kB is Boltzmann's constant
Total free energy                 ...  -2379.05853224 Eh 
Thermal Enthalpy correction       ...      0.00094421 Eh       0.59 kcal/mol
-----------------------------------------------------------------------
Total Enthalpy                    ...  -2379.05758803 Eh


Note: Only C1 symmetry has been detected, increase convergence thresholds 
      if your molecule has a higher symmetry. Symmetry factor of 1.0 is   
      used for the rotational entropy correction. 
 

Note: Rotational entropy computed according to Herzberg 
Infrared and Raman Spectra, Chapter V,1, Van Nostrand Reinhold, 1945 
Point Group:  C1, Symmetry Number:   1  
Rotational constants in cm-1:     0.002666     0.001184     0.001031 

Vibrational entropy computed according to the QRRHO of S. Grimme
Chem.Eur.J. 2012 18 9955


-------
ENTROPY
-------

The entropy contributions are T*S = T*(S(el)+S(vib)+S(rot)+S(trans))
     S(el)   - electronic entropy
     S(vib)  - vibrational entropy
     S(rot)  - rotational entropy
     S(trans)- translational entropy
The entropies will be listed as mutliplied by the temperature to get
units of energy

Electronic entropy                ...      0.00000000 Eh      0.00 kcal/mol
Vibrational entropy               ...      0.10078888 Eh     63.25 kcal/mol
Rotational entropy                ...      0.01873724 Eh     11.76 kcal/mol
Translational entropy             ...      0.02166895 Eh     13.60 kcal/mol
-----------------------------------------------------------------------
Final entropy term                ...      0.14119507 Eh     88.60 kcal/mol

In case the symmetry of your molecule has not been determined correctly
or in case you have a reason to use a different symmetry number we print 
out the resulting rotational entropy values for sn=1,12 :
 --------------------------------------------------------
|  sn= 1 | S(rot)=       0.01873724 Eh     11.76 kcal/mol|
|  sn= 2 | S(rot)=       0.01808278 Eh     11.35 kcal/mol|
|  sn= 3 | S(rot)=       0.01769995 Eh     11.11 kcal/mol|
|  sn= 4 | S(rot)=       0.01742833 Eh     10.94 kcal/mol|
|  sn= 5 | S(rot)=       0.01721764 Eh     10.80 kcal/mol|
|  sn= 6 | S(rot)=       0.01704550 Eh     10.70 kcal/mol|
|  sn= 7 | S(rot)=       0.01689995 Eh     10.60 kcal/mol|
|  sn= 8 | S(rot)=       0.01677387 Eh     10.53 kcal/mol|
|  sn= 9 | S(rot)=       0.01666266 Eh     10.46 kcal/mol|
|  sn=10 | S(rot)=       0.01656318 Eh     10.39 kcal/mol|
|  sn=11 | S(rot)=       0.01647319 Eh     10.34 kcal/mol|
|  sn=12 | S(rot)=       0.01639104 Eh     10.29 kcal/mol|
 --------------------------------------------------------


-------------------
GIBBS FREE ENERGY
-------------------

The Gibbs free energy is G = H - T*S

Total enthalpy                    ...  -2379.05758803 Eh 
Total entropy correction          ...     -0.14119507 Eh    -88.60 kcal/mol
-----------------------------------------------------------------------
Final Gibbs free energy         ...  -2379.19878310 Eh

For completeness - the Gibbs free energy minus the electronic energy
G-E(el)                           ...      0.89702614 Eh    562.89 kcal/mol

--------------------------------------------------------------------------
WARNING: No preset parameters were found for the device that Open MPI
detected:

  Local host:            eu-g1-023-1
  Device name:           mlx5_0
  Device vendor ID:      0x02c9
  Device vendor part ID: 4123

Default device parameters will be used, which may result in lower
performance.  You can edit any of the files specified by the
btl_openib_device_param_files MCA parameter to set values for your
device.

NOTE: You can turn off this warning by setting the MCA parameter
      btl_openib_warn_no_device_params_found to 0.
--------------------------------------------------------------------------
--------------------------------------------------------------------------
WARNING: There was an error initializing an OpenFabrics device.

  Local host:   eu-g1-023-1
  Local device: mlx5_0
--------------------------------------------------------------------------

Timings for individual modules:

Sum of individual times         ...    35887.307 sec (= 598.122 min)
GTO integral calculation        ...       12.258 sec (=   0.204 min)   0.0 %
SCF iterations                  ...      367.384 sec (=   6.123 min)   1.0 %
SCF Gradient evaluation         ...       69.587 sec (=   1.160 min)   0.2 %
Geometry relaxation             ...        3.949 sec (=   0.066 min)   0.0 %
Analytical frequency calculation...    35434.128 sec (= 590.569 min)  98.7 %
                             ****ORCA TERMINATED NORMALLY****
TOTAL RUN TIME: 0 days 9 hours 58 minutes 24 seconds 490 msec
