
                                 *****************
                                 * O   R   C   A *
                                 *****************

           --- An Ab Initio, DFT and Semiempirical electronic structure package ---

                  #######################################################
                  #                        -***-                        #
                  #          Department of theory and spectroscopy      #
                  #               Directorship: Frank Neese             #
                  #        Max Planck Institute fuer Kohlenforschung    #
                  #                Kaiser Wilhelm Platz 1               #
                  #                 D-45470 Muelheim/Ruhr               #
                  #                      Germany                        #
                  #                                                     #
                  #                  All rights reserved                #
                  #                        -***-                        #
                  #######################################################


                         Program Version 4.2.0 -  RELEASE  -


 With contributions from (in alphabetic order):
   Daniel Aravena         : Magnetic Suceptibility
   Michael Atanasov       : Ab Initio Ligand Field Theory (pilot matlab implementation)
   Alexander A. Auer      : GIAO ZORA, VPT2
   Ute Becker             : Parallelization
   Giovanni Bistoni       : ED, misc. LED, open-shell LED, HFLED
   Martin Brehm           : Molecular dynamics
   Dmytro Bykov           : SCF Hessian
   Vijay G. Chilkuri      : MRCI spin determinant printing, contributions to CSF-ICE
   Dipayan Datta          : RHF DLPNO-CCSD density
   Achintya Kumar Dutta   : EOM-CC, STEOM-CC
   Dmitry Ganyushin       : Spin-Orbit,Spin-Spin,Magnetic field MRCI
   Miquel Garcia          : C-PCM Hessian, Gaussian charge scheme
   Yang Guo               : DLPNO-NEVPT2, CIM, IAO-localization
   Andreas Hansen         : Spin unrestricted coupled pair/coupled cluster methods
   Benjamin Helmich-Paris : CASSCF linear response (MC-RPA)
   Lee Huntington         : MR-EOM, pCC
   Robert Izsak           : Overlap fitted RIJCOSX, COSX-SCS-MP3, EOM
   Christian Kollmar      : KDIIS, OOCD, Brueckner-CCSD(T), CCSD density
   Simone Kossmann        : Meta GGA functionals, TD-DFT gradient, OOMP2, MP2 Hessian
   Martin Krupicka        : AUTO-CI
   Lucas Lang             : DCDCAS
   Dagmar Lenk            : GEPOL surface, SMD
   Dimitrios Liakos       : Extrapolation schemes; Compound Job, initial MDCI parallelization
   Dimitrios Manganas     : Further ROCIS development; embedding schemes
   Dimitrios Pantazis     : SARC Basis sets
   Taras Petrenko         : DFT Hessian,TD-DFT gradient, ASA, ECA, R-Raman, ABS, FL, XAS/XES, NRVS
   Peter Pinski           : DLPNO-MP2, DLPNO-MP2 Gradient
   Christoph Reimann      : Effective Core Potentials
   Marius Retegan         : Local ZFS, SOC
   Christoph Riplinger    : Optimizer, TS searches, QM/MM, DLPNO-CCSD(T), (RO)-DLPNO pert. Triples
   Tobias Risthaus        : Range-separated hybrids, TD-DFT gradient, RPA, STAB
   Michael Roemelt        : Original ROCIS implementation
   Masaaki Saitow         : Open-shell DLPNO-CCSD energy and density
   Barbara Sandhoefer     : DKH picture change effects
   Avijit Sen             : IP-ROCIS
   Kantharuban Sivalingam : CASSCF convergence, NEVPT2, FIC-MRCI
   Bernardo de Souza      : ESD, SOC TD-DFT
   Georgi Stoychev        : AutoAux, RI-MP2 NMR
   Willem Van den Heuvel  : Paramagnetic NMR
   Boris Wezisla          : Elementary symmetry handling
   Frank Wennmohs         : Technical directorship


 We gratefully acknowledge several colleagues who have allowed us to
 interface, adapt or use parts of their codes:
   Stefan Grimme, W. Hujo, H. Kruse,             : VdW corrections, initial TS optimization,
                  C. Bannwarth                     DFT functionals, gCP, sTDA/sTD-DF
   Ed Valeev, F. Pavosevic, A. Kumar             : LibInt (2-el integral package), F12 methods
   Garnet Chan, S. Sharma, J. Yang, R. Olivares  : DMRG
   Ulf Ekstrom                                   : XCFun DFT Library
   Mihaly Kallay                                 : mrcc  (arbitrary order and MRCC methods)
   Andreas Klamt, Michael Diedenhofen            : otool_cosmo (COSMO solvation model)
   Jiri Pittner, Ondrej Demel                    : Mk-CCSD
   Frank Weinhold                                : gennbo (NPA and NBO analysis)
   Christopher J. Cramer and Donald G. Truhlar   : smd solvation model
   Lars Goerigk                                  : TD-DFT with DH, B97 family of functionals
   V. Asgeirsson, H. Jonsson                     : NEB implementation
   FAccTs GmbH                                   : IRC, NEB, NEB-TS, Multilevel, MM, QM/MM, CI optimization
   S Lehtola, MJT Oliveira, MAL Marques          : LibXC Library


 Your calculation uses the libint2 library for the computation of 2-el integrals
 For citations please refer to: http://libint.valeyev.net

 Your ORCA version has been built with support for libXC version: 4.2.3
 For citations please refer to: https://tddft.org/programs/libxc/

 This ORCA versions uses:
   CBLAS   interface :  Fast vector & matrix operations
   LAPACKE interface :  Fast linear algebra routines
   SCALAPACK package :  Parallel linear algebra routines




***************************************
The coordinates will be read from file: 24.xyz
***************************************


Your calculation utilizes the atom-pairwise dispersion correction
with the Becke-Johnson damping scheme (D3BJ)
Cite in your paper:
S.Grimme, S.Ehrlich, L.Goerigk, J Comput Chem, (2011), 32, 1456–1465 
S.Grimme, J.Antony, S.Ehrlich and H.Krieg, J.Chem.Phys., 132, (2010), 154104 
   

----- Orbital basis set information -----
Your calculation utilizes the basis: def2-TZVP
   F. Weigend and R. Ahlrichs, Phys. Chem. Chem. Phys. 7, 3297 (2005).

----- AuxJ basis set information -----
Your calculation utilizes the auxiliary basis: def2/J
   F. Weigend, Phys. Chem. Chem. Phys. 8, 1057 (2006).

================================================================================
                                        WARNINGS
                       Please study these warnings very carefully!
================================================================================


WARNING: Geometry Optimization
  ===> : Switching off AutoStart
         For restart on a previous wavefunction, please use MOREAD

INFO   : the flag for use of LIBINT has been found!

================================================================================
                                       INPUT FILE
================================================================================
NAME = 24.inp
|  1> !RI BP86 def2-tzvp def2/J D3BJ TIGHTSCF TightOpt Grid5 FinalGrid6 freq
|  2> %maxcore 4000
|  3> %pal nprocs 24
|  4> end
|  5> * xyzfile 0 1 24.xyz 
|  6> 
|  7>                          ****END OF INPUT****
================================================================================

                       *****************************
                       * Geometry Optimization Run *
                       *****************************

Geometry optimization settings:
Update method            Update   .... BFGS
Choice of coordinates    CoordSys .... Z-matrix Internals
Initial Hessian          InHess   .... Almoef's Model

Convergence Tolerances:
Energy Change            TolE     ....  1.0000e-06 Eh
Max. Gradient            TolMAXG  ....  1.0000e-04 Eh/bohr
RMS Gradient             TolRMSG  ....  3.0000e-05 Eh/bohr
Max. Displacement        TolMAXD  ....  1.0000e-03 bohr
RMS Displacement         TolRMSD  ....  6.0000e-04 bohr
Strict Convergence                ....  False
------------------------------------------------------------------------------
                        ORCA OPTIMIZATION COORDINATE SETUP
------------------------------------------------------------------------------

The optimization will be done in new redundant internal coordinates
Making redundant internal coordinates   ...  (new redundants) done
Evaluating the initial hessian          ...  (Almloef) done
Evaluating the coordinates              ...  done
Calculating the B-matrix                .... done
Calculating the G-matrix                .... done
Diagonalizing the G-matrix              .... done
Small eigenvalue found = 3.760e-04
Small eigenvalue found = 8.080e-04
Small eigenvalue found = 2.609e-03
Small eigenvalue found = 3.305e-03
Small eigenvalue found = 4.919e-03
Small eigenvalue found = 5.446e-03
Small eigenvalue found = 6.299e-03
Small eigenvalue found = 7.898e-03
Small eigenvalue found = 8.705e-03
Small eigenvalue found = 9.316e-03
Small eigenvalue found = 1.060e-02
Small eigenvalue found = 1.222e-02
Small eigenvalue found = 1.348e-02
Small eigenvalue found = 1.605e-02
Small eigenvalue found = 1.812e-02
Small eigenvalue found = 2.017e-02
Small eigenvalue found = 2.499e-02
Small eigenvalue found = 2.563e-02
Small eigenvalue found = 2.957e-02
The first mode is                       ....  326
The number of degrees of freedom        ....  339

    -----------------------------------------------------------------
                    Redundant Internal Coordinates


    -----------------------------------------------------------------
         Definition                    Initial Value    Approx d2E/dq
    -----------------------------------------------------------------
      1. B(C   1,O   0)                  1.2281         1.014165   
      2. B(C   2,C   1)                  1.5301         0.373380   
      3. B(C   3,C   2)                  1.5487         0.348736   
      4. B(C   4,C   3)                  1.5335         0.368810   
      5. B(C   5,C   4)                  1.5295         0.374326   
      6. B(N   6,C   2)                  1.4761         0.407838   
      7. B(N   6,C   5)                  1.4726         0.413154   
      8. B(C   7,N   6)                  1.3725         0.596764   
      9. B(O   8,C   7)                  1.2321         0.999550   
     10. B(N   9,C   1)                  1.3648         0.613829   
     11. B(C  10,N   9)                  1.4586         0.434961   
     12. B(C  11,C  10)                  1.5368         0.364372   
     13. B(N  12,C  11)                  1.3727         0.596409   
     14. B(C  13,N  12)                  1.4480         0.452230   
     15. B(C  14,C  13)                  1.5254         0.379892   
     16. B(N  15,C  14)                  1.3421         0.667307   
     17. B(C  16,N  15)                  1.4558         0.439387   
     18. B(C  17,C  16)                  1.5327         0.369906   
     19. B(C  18,C  17)                  1.5506         0.346307   
     20. B(C  19,C  18)                  1.5422         0.357178   
     21. B(N  20,C  19)                  1.3617         0.620827   
     22. B(C  21,N  20)                  1.4590         0.434234   
     23. B(C  22,C  21)                  1.5451         0.353410   
     24. B(N  23,C  22)                  1.3654         0.612537   
     25. B(C  24,N  23)                  1.4585         0.435114   
     26. B(C  24,C   7)                  1.5415         0.358111   
     27. B(C  25,C  24)                  1.5270         0.377709   
     28. B(O  26,C  22)                  1.2316         1.001415   
     29. B(C  27,C  21)                  1.5374         0.363545   
     30. B(C  28,C  27)                  1.5357         0.365798   
     31. B(C  29,C  28)                  1.5323         0.370461   
     32. B(C  30,C  28)                  1.5322         0.370507   
     33. B(O  31,C  19)                  1.2287         1.012018   
     34. B(C  32,C  18)                  1.5443         0.354468   
     35. B(C  33,C  32)                  1.5095         0.402793   
     36. B(C  34,C  33)                  1.5297         0.373982   
     37. B(C  35,C  34)                  1.5366         0.364689   
     38. B(C  36,C  35)                  1.5307         0.372662   
     39. B(C  37,C  36)                  1.5326         0.370044   
     40. B(C  38,C  37)                  1.5337         0.368565   
     41. B(C  39,C  38)                  1.5320         0.370836   
     42. B(C  40,C  39)                  1.5304         0.373014   
     43. B(C  41,C  40)                  1.5291         0.374834   
     44. B(O  42,C  32)                  1.2198         1.045614   
     45. B(O  43,C  17)                  1.4384         0.468383   
     46. B(O  44,C  14)                  1.2512         0.931699   
     47. B(C  45,C  13)                  1.5458         0.352492   
     48. B(C  46,C  45)                  1.5262         0.378812   
     49. B(O  47,C  11)                  1.2262         1.021541   
     50. B(C  48,C  10)                  1.5477         0.350013   
     51. B(C  49,C  48)                  1.5310         0.372191   
     52. B(C  50,C  48)                  1.5317         0.371222   
     53. B(H  51,C   2)                  1.1001         0.347008   
     54. B(H  52,C   3)                  1.0952         0.353319   
     55. B(H  53,C   3)                  1.1006         0.346318   
     56. B(H  54,C   4)                  1.0976         0.350131   
     57. B(H  55,C   4)                  1.1006         0.346375   
     58. B(H  56,C   5)                  1.1037         0.342466   
     59. B(H  57,C   5)                  1.0958         0.352478   
     60. B(H  58,N   9)                  1.0174         0.421172   
     61. B(H  59,C  10)                  1.0991         0.348205   
     62. B(H  60,N  12)                  1.0184         0.419540   
     63. B(H  61,C  13)                  1.1019         0.344746   
     64. B(H  62,N  15)                  1.0172         0.421374   
     65. B(H  63,C  16)                  1.0962         0.352051   
     66. B(H  64,C  16)                  1.0959         0.352332   
     67. B(H  65,C  17)                  1.1045         0.341406   
     68. B(H  66,C  18)                  1.1016         0.345033   
     69. B(H  67,N  20)                  1.0227         0.412915   
     70. B(H  68,C  21)                  1.0961         0.352110   
     71. B(H  69,O  44)                  1.9235         0.015094   
     72. B(H  69,N  23)                  1.0229         0.412656   
     73. B(H  70,C  24)                  1.1017         0.344888   
     74. B(H  71,C  25)                  1.0976         0.350186   
     75. B(H  72,C  25)                  1.0970         0.350922   
     76. B(H  73,C  25)                  1.0986         0.348853   
     77. B(H  74,H  58)                  3.8729         0.000003   
     78. B(H  74,C  27)                  1.1032         0.343037   
     79. B(H  75,C  27)                  1.1033         0.342927   
     80. B(H  76,C  28)                  1.1031         0.343156   
     81. B(H  77,H  56)                  3.1592         0.000034   
     82. B(H  77,C  29)                  1.1008         0.346117   
     83. B(H  78,C  29)                  1.0996         0.347655   
     84. B(H  79,C  29)                  1.1017         0.345011   
     85. B(H  80,C  30)                  1.0978         0.349881   
     86. B(H  81,C  30)                  1.1019         0.344732   
     87. B(H  82,C  30)                  1.0996         0.347662   
     88. B(H  83,C  33)                  1.1061         0.339424   
     89. B(H  84,C  33)                  1.1034         0.342762   
     90. B(H  85,C  34)                  1.1002         0.346829   
     91. B(H  86,C  34)                  1.1022         0.344254   
     92. B(H  87,H  71)                  3.9682         0.000002   
     93. B(H  87,C  35)                  1.1003         0.346706   
     94. B(H  88,C  35)                  1.1026         0.343785   
     95. B(H  89,C  36)                  1.1049         0.340887   
     96. B(H  90,C  36)                  1.1021         0.344442   
     97. B(H  91,C  37)                  1.1050         0.340802   
     98. B(H  92,C  37)                  1.1023         0.344161   
     99. B(H  93,C  38)                  1.1027         0.343718   
    100. B(H  94,C  38)                  1.1041         0.341955   
    101. B(H  95,C  39)                  1.1036         0.342531   
    102. B(H  96,C  39)                  1.1074         0.337816   
    103. B(H  97,C  40)                  1.1024         0.344044   
    104. B(H  98,C  40)                  1.1026         0.343849   
    105. B(H  99,C  41)                  1.0988         0.348703   
    106. B(H 100,H  62)                  2.2719         0.000897   
    107. B(H 100,C  41)                  1.1030         0.343261   
    108. B(H 101,C  41)                  1.1017         0.344950   
    109. B(H 102,O  43)                  0.9729         0.495879   
    110. B(H 103,C  45)                  1.1010         0.345882   
    111. B(H 104,C  45)                  1.1023         0.344128   
    112. B(H 105,C  46)                  1.0986         0.348937   
    113. B(H 106,C  46)                  1.0987         0.348824   
    114. B(H 107,C  46)                  1.0980         0.349662   
    115. B(H 108,C  48)                  1.1066         0.338753   
    116. B(H 109,C  49)                  1.0979         0.349784   
    117. B(H 110,C  49)                  1.0993         0.347953   
    118. B(H 111,C  49)                  1.0995         0.347812   
    119. B(H 112,C  50)                  1.0991         0.348319   
    120. B(H 113,C  50)                  1.1003         0.346686   
    121. B(H 114,C  50)                  1.0989         0.348554   
    122. A(O   0,C   1,N   9)          124.1042         0.467542   
    123. A(C   2,C   1,N   9)          115.7523         0.393426   
    124. A(O   0,C   1,C   2)          120.0161         0.430065   
    125. A(C   1,C   2,H  51)          105.6998         0.322327   
    126. A(N   6,C   2,H  51)          108.7788         0.325077   
    127. A(C   1,C   2,N   6)          116.2979         0.366519   
    128. A(C   1,C   2,C   3)          110.1112         0.359080   
    129. A(C   3,C   2,H  51)          112.0164         0.318749   
    130. A(C   3,C   2,N   6)          104.0855         0.362263   
    131. A(C   4,C   3,H  53)          110.1516         0.321573   
    132. A(C   4,C   3,H  52)          114.1530         0.322629   
    133. A(C   2,C   3,C   4)          104.1852         0.358329   
    134. A(C   2,C   3,H  53)          109.6362         0.318645   
    135. A(C   2,C   3,H  52)          111.2782         0.319688   
    136. A(H  52,C   3,H  53)          107.4041         0.288205   
    137. A(H  54,C   4,H  55)          108.1234         0.287805   
    138. A(C   3,C   4,H  55)          110.6643         0.321581   
    139. A(C   3,C   4,C   5)          102.7610         0.362680   
    140. A(C   3,C   4,H  54)          113.0721         0.322150   
    141. A(C   5,C   4,H  55)          109.5936         0.322364   
    142. A(C   5,C   4,H  54)          112.5594         0.322935   
    143. A(H  56,C   5,H  57)          107.5246         0.287595   
    144. A(C   4,C   5,N   6)          102.8505         0.367494   
    145. A(C   4,C   5,H  56)          110.7232         0.321765   
    146. A(N   6,C   5,H  57)          111.9067         0.326610   
    147. A(N   6,C   5,H  56)          109.7634         0.325065   
    148. A(C   4,C   5,H  57)          114.0363         0.323289   
    149. A(C   5,N   6,C   7)          126.6847         0.395953   
    150. A(C   2,N   6,C   7)          118.6337         0.395055   
    151. A(C   2,N   6,C   5)          111.3393         0.370614   
    152. A(O   8,C   7,C  24)          121.7445         0.425749   
    153. A(N   6,C   7,O   8)          121.1577         0.463901   
    154. A(N   6,C   7,C  24)          117.0936         0.388644   
    155. A(C   1,N   9,C  10)          121.9590         0.401536   
    156. A(C  10,N   9,H  58)          120.4424         0.336361   
    157. A(C   1,N   9,H  58)          116.7902         0.356418   
    158. A(C  48,C  10,H  59)          109.0224         0.319118   
    159. A(C  11,C  10,H  59)          106.3508         0.321222   
    160. A(N   9,C  10,C  11)          109.4632         0.369041   
    161. A(N   9,C  10,C  48)          112.5960         0.366504   
    162. A(N   9,C  10,H  59)          105.8192         0.328729   
    163. A(C  11,C  10,C  48)          113.1392         0.357814   
    164. A(N  12,C  11,O  47)          122.7101         0.465701   
    165. A(C  10,C  11,O  47)          123.3311         0.428742   
    166. A(C  10,C  11,N  12)          113.9584         0.389782   
    167. A(C  13,N  12,H  60)          114.5126         0.338331   
    168. A(C  11,N  12,C  13)          122.5861         0.402254   
    169. A(C  11,N  12,H  60)          119.8447         0.354448   
    170. A(C  14,C  13,C  45)          109.8871         0.360797   
    171. A(N  12,C  13,H  61)          106.8728         0.330305   
    172. A(C  14,C  13,H  61)          110.7742         0.322895   
    173. A(N  12,C  13,C  14)          107.4967         0.374200   
    174. A(C  45,C  13,H  61)          109.4065         0.318966   
    175. A(N  12,C  13,C  45)          112.3631         0.369408   
    176. A(C  13,C  14,N  15)          117.6326         0.400453   
    177. A(N  15,C  14,O  44)          122.0684         0.467433   
    178. A(C  13,C  14,O  44)          120.2572         0.424892   
    179. A(C  14,N  15,H  62)          119.4731         0.361552   
    180. A(C  16,N  15,H  62)          118.9372         0.336956   
    181. A(C  14,N  15,C  16)          121.3925         0.408232   
    182. A(H  63,C  16,H  64)          107.0139         0.288821   
    183. A(C  17,C  16,H  64)          110.5017         0.322638   
    184. A(N  15,C  16,H  63)          108.1539         0.329877   
    185. A(C  17,C  16,H  63)          109.3023         0.322595   
    186. A(N  15,C  16,C  17)          112.2271         0.370643   
    187. A(N  15,C  16,H  64)          109.4767         0.329921   
    188. A(O  43,C  17,H  65)          108.9415         0.331694   
    189. A(C  18,C  17,H  65)          107.9678         0.317542   
    190. A(C  16,C  17,H  65)          108.6021         0.320978   
    191. A(C  16,C  17,C  18)          113.3759         0.358083   
    192. A(C  18,C  17,O  43)          112.1577         0.370514   
    193. A(C  16,C  17,O  43)          105.6809         0.374746   
    194. A(C  19,C  18,H  66)          105.6078         0.319698   
    195. A(C  17,C  18,H  66)          107.2827         0.318089   
    196. A(C  17,C  18,C  32)          109.9861         0.355500   
    197. A(C  17,C  18,C  19)          117.5424         0.355959   
    198. A(C  19,C  18,C  32)          107.3810         0.357370   
    199. A(C  32,C  18,H  66)          108.7056         0.319300   
    200. A(C  18,C  19,N  20)          117.1652         0.391159   
    201. A(N  20,C  19,O  31)          124.1455         0.468333   
    202. A(C  18,C  19,O  31)          118.6852         0.426496   
    203. A(C  19,N  20,H  67)          120.5789         0.355906   
    204. A(C  19,N  20,C  21)          122.4748         0.402220   
    205. A(C  21,N  20,H  67)          116.0737         0.335162   
    206. A(C  27,C  21,H  68)          111.1776         0.321689   
    207. A(C  22,C  21,H  68)          105.7263         0.320205   
    208. A(N  20,C  21,H  68)          106.6128         0.329244   
    209. A(N  20,C  21,C  22)          111.0880         0.367006   
    210. A(C  22,C  21,C  27)          111.5681         0.358264   
    211. A(N  20,C  21,C  27)          110.4665         0.368791   
    212. A(C  21,C  22,N  23)          115.0032         0.389519   
    213. A(C  21,C  22,O  26)          121.6461         0.424885   
    214. A(N  23,C  22,O  26)          123.3313         0.466280   
    215. A(C  22,N  23,C  24)          122.5822         0.401411   
    216. A(C  24,N  23,H  69)          116.7619         0.335240   
    217. A(C  22,N  23,H  69)          118.9783         0.355058   
    218. A(C  25,C  24,H  70)          109.5638         0.322612   
    219. A(N  23,C  24,H  70)          105.2537         0.328230   
    220. A(C   7,C  24,H  70)          108.9955         0.319812   
    221. A(N  23,C  24,C  25)          111.1655         0.371351   
    222. A(C   7,C  24,N  23)          110.8563         0.367967   
    223. A(C   7,C  24,C  25)          110.8331         0.361417   
    224. A(H  71,C  25,H  73)          109.4793         0.288133   
    225. A(C  24,C  25,H  73)          110.5435         0.323218   
    226. A(H  71,C  25,H  72)          109.4736         0.288399   
    227. A(C  24,C  25,H  72)          110.6322         0.323531   
    228. A(C  24,C  25,H  71)          109.6643         0.323420   
    229. A(H  72,C  25,H  73)          107.0027         0.288227   
    230. A(C  28,C  27,H  75)          109.4320         0.320625   
    231. A(C  21,C  27,C  28)          114.9520         0.360372   
    232. A(H  74,C  27,H  75)          106.6280         0.286438   
    233. A(C  21,C  27,H  75)          107.6341         0.320301   
    234. A(C  28,C  27,H  74)          109.3471         0.320642   
    235. A(C  21,C  27,H  74)          108.5171         0.320318   
    236. A(C  29,C  28,C  30)          111.3727         0.362322   
    237. A(C  27,C  28,C  30)          112.0842         0.361539   
    238. A(C  27,C  28,C  29)          109.8053         0.361532   
    239. A(C  30,C  28,H  76)          107.5494         0.321332   
    240. A(C  29,C  28,H  76)          107.9797         0.321325   
    241. A(C  27,C  28,H  76)          107.8759         0.320660   
    242. A(C  28,C  29,H  79)          110.8683         0.321609   
    243. A(H  78,C  29,H  79)          107.6065         0.287308   
    244. A(H  77,C  29,H  79)          107.6753         0.287109   
    245. A(H  77,C  29,H  78)          107.9096         0.287452   
    246. A(C  28,C  29,H  78)          111.1506         0.322011   
    247. A(C  28,C  29,H  77)          111.4605         0.321777   
    248. A(H  81,C  30,H  82)          107.7352         0.287273   
    249. A(H  80,C  30,H  82)          107.5295         0.287940   
    250. A(C  28,C  30,H  82)          110.6964         0.322019   
    251. A(H  80,C  30,H  81)          108.4035         0.287559   
    252. A(C  28,C  30,H  81)          110.7695         0.321573   
    253. A(C  28,C  30,H  80)          111.5597         0.322355   
    254. A(C  33,C  32,O  42)          123.6408         0.438376   
    255. A(C  18,C  32,O  42)          120.2404         0.428414   
    256. A(C  18,C  32,C  33)          116.0854         0.364771   
    257. A(C  32,C  33,C  34)          115.5219         0.368137   
    258. A(C  34,C  33,H  84)          112.0262         0.321763   
    259. A(H  83,C  33,H  84)          104.8294         0.285944   
    260. A(C  32,C  33,H  84)          107.1231         0.325706   
    261. A(C  34,C  33,H  83)          110.8844         0.321248   
    262. A(C  32,C  33,H  83)          105.7202         0.325182   
    263. A(C  33,C  34,C  35)          114.7156         0.361928   
    264. A(H  85,C  34,H  86)          106.6226         0.287103   
    265. A(C  35,C  34,H  86)          109.6627         0.320668   
    266. A(C  33,C  34,H  86)          107.8317         0.321992   
    267. A(C  35,C  34,H  85)          108.7484         0.321059   
    268. A(C  33,C  34,H  85)          108.9558         0.322385   
    269. A(C  34,C  35,C  36)          115.1229         0.361710   
    270. A(H  87,C  35,H  88)          106.1568         0.287026   
    271. A(C  36,C  35,H  88)          109.1366         0.321733   
    272. A(C  34,C  35,H  88)          108.3352         0.320597   
    273. A(C  36,C  35,H  87)          108.9177         0.322179   
    274. A(C  34,C  35,H  87)          108.7990         0.321041   
    275. A(C  35,C  36,C  37)          112.1733         0.362611   
    276. A(H  89,C  36,H  90)          105.5343         0.286354   
    277. A(C  37,C  36,H  90)          109.5699         0.321463   
    278. A(C  35,C  36,H  90)          109.7890         0.321834   
    279. A(C  37,C  36,H  89)          109.3607         0.320917   
    280. A(C  35,C  36,H  89)          110.1974         0.321288   
    281. A(C  36,C  37,C  38)          114.5723         0.361927   
    282. A(H  91,C  37,H  92)          105.7181         0.286307   
    283. A(C  38,C  37,H  92)          109.4710         0.321209   
    284. A(C  36,C  37,H  92)          108.8677         0.321420   
    285. A(C  38,C  37,H  91)          108.8452         0.320694   
    286. A(C  36,C  37,H  91)          108.9948         0.320904   
    287. A(C  37,C  38,C  39)          113.7065         0.362059   
    288. A(H  93,C  38,H  94)          106.1241         0.286400   
    289. A(C  39,C  38,H  94)          109.2873         0.321194   
    290. A(C  37,C  38,H  94)          109.6637         0.320871   
    291. A(C  39,C  38,H  93)          108.5801         0.321465   
    292. A(C  37,C  38,H  93)          109.1962         0.321142   
    293. A(C  38,C  39,C  40)          113.8513         0.362802   
    294. A(H  95,C  39,H  96)          106.8462         0.285702   
    295. A(C  40,C  39,H  96)          109.0249         0.320862   
    296. A(C  38,C  39,H  96)          108.2350         0.320555   
    297. A(C  40,C  39,H  95)          108.7900         0.321591   
    298. A(C  38,C  39,H  95)          109.8579         0.321283   
    299. A(C  39,C  40,C  41)          112.6745         0.363467   
    300. A(H  97,C  40,H  98)          106.1749         0.286689   
    301. A(C  41,C  40,H  98)          109.5161         0.322049   
    302. A(C  39,C  40,H  98)          109.1399         0.321793   
    303. A(C  41,C  40,H  97)          109.6668         0.322079   
    304. A(C  39,C  40,H  97)          109.4584         0.321823   
    305. A(H 100,C  41,H 101)          108.4346         0.286730   
    306. A(H  99,C  41,H 101)          107.3472         0.287436   
    307. A(C  40,C  41,H 101)          110.8023         0.322218   
    308. A(H  99,C  41,H 100)          106.7619         0.287215   
    309. A(C  40,C  41,H 100)          111.0724         0.321959   
    310. A(C  40,C  41,H  99)          112.2228         0.322790   
    311. A(C  17,O  43,H 102)          108.3072         0.350011   
    312. A(C  13,C  45,C  46)          112.1741         0.360622   
    313. A(C  46,C  45,H 104)          110.7059         0.322650   
    314. A(C  13,C  45,H 104)          108.0681         0.318873   
    315. A(C  46,C  45,H 103)          110.2272         0.322919   
    316. A(C  13,C  45,H 103)          108.7287         0.319137   
    317. A(H 103,C  45,H 104)          106.7537         0.286964   
    318. A(H 106,C  46,H 107)          107.4205         0.288061   
    319. A(H 105,C  46,H 107)          108.0956         0.288076   
    320. A(C  45,C  46,H 107)          110.9892         0.323495   
    321. A(H 105,C  46,H 106)          108.3840         0.287968   
    322. A(C  45,C  46,H 106)          111.0717         0.323368   
    323. A(C  45,C  46,H 105)          110.7495         0.323385   
    324. A(C  50,C  48,H 108)          108.4461         0.320755   
    325. A(C  49,C  48,H 108)          108.0170         0.320892   
    326. A(C  10,C  48,H 108)          108.0999         0.317689   
    327. A(C  49,C  48,C  50)          111.2618         0.362729   
    328. A(C  10,C  48,C  50)          110.2724         0.358949   
    329. A(C  10,C  48,C  49)          110.6354         0.359109   
    330. A(H 110,C  49,H 111)          108.3501         0.287710   
    331. A(H 109,C  49,H 111)          107.6701         0.287946   
    332. A(C  48,C  49,H 111)          110.6946         0.322281   
    333. A(H 109,C  49,H 110)          108.0927         0.287965   
    334. A(C  48,C  49,H 110)          110.4785         0.322302   
    335. A(C  48,C  49,H 109)          111.4365         0.322580   
    336. A(H 113,C  50,H 114)          107.9299         0.287642   
    337. A(H 112,C  50,H 114)          107.9255         0.287853   
    338. A(C  48,C  50,H 114)          110.6773         0.322256   
    339. A(H 112,C  50,H 113)          107.6592         0.287612   
    340. A(C  48,C  50,H 113)          110.5128         0.321972   
    341. A(C  48,C  50,H 112)          111.9827         0.322220   
    342. D(H  51,C   2,C   1,N   9)   -131.2404         0.010427   
    343. D(C   3,C   2,C   1,N   9)    107.5876         0.010427   
    344. D(N   6,C   2,C   1,N   9)    -10.4498         0.010427   
    345. D(N   6,C   2,C   1,O   0)    173.4875         0.010427   
    346. D(C   3,C   2,C   1,O   0)    -68.4751         0.010427   
    347. D(H  51,C   2,C   1,O   0)     52.6969         0.010427   
    348. D(C   4,C   3,C   2,N   6)    -21.3068         0.009804   
    349. D(H  53,C   3,C   2,H  51)   -146.0847         0.009804   
    350. D(H  53,C   3,C   2,C   1)    -28.7685         0.009804   
    351. D(C   4,C   3,C   2,H  51)     96.0454         0.009804   
    352. D(H  53,C   3,C   2,N   6)     96.5631         0.009804   
    353. D(H  52,C   3,C   2,H  51)    -27.4147         0.009804   
    354. D(C   4,C   3,C   2,C   1)   -146.6384         0.009804   
    355. D(H  52,C   3,C   2,C   1)     89.9014         0.009804   
    356. D(H  52,C   3,C   2,N   6)   -144.7670         0.009804   
    357. D(H  55,C   4,C   3,H  53)    161.7176         0.010878   
    358. D(H  55,C   4,C   3,H  52)     40.8041         0.010878   
    359. D(H  54,C   4,C   3,H  52)    -80.6632         0.010878   
    360. D(H  55,C   4,C   3,C   2)    -80.7679         0.010878   
    361. D(H  54,C   4,C   3,H  53)     40.2503         0.010878   
    362. D(C   5,C   4,C   3,C   2)     36.1619         0.010878   
    363. D(H  54,C   4,C   3,C   2)    157.7648         0.010878   
    364. D(C   5,C   4,C   3,H  53)    -81.3526         0.010878   
    365. D(C   5,C   4,C   3,H  52)    157.7340         0.010878   
    366. D(N   6,C   5,C   4,C   3)    -37.0171         0.011186   
    367. D(H  57,C   5,C   4,C   3)   -158.3999         0.011186   
    368. D(H  56,C   5,C   4,H  55)   -162.1258         0.011186   
    369. D(H  56,C   5,C   4,C   3)     80.1844         0.011186   
    370. D(H  57,C   5,C   4,H  54)     79.6490         0.011186   
    371. D(H  56,C   5,C   4,H  54)    -41.7667         0.011186   
    372. D(H  57,C   5,C   4,H  55)    -40.7101         0.011186   
    373. D(N   6,C   5,C   4,H  54)   -158.9681         0.011186   
    374. D(N   6,C   5,C   4,H  55)     80.6728         0.011186   
    375. D(C   5,N   6,C   2,C   3)     -2.2378         0.014192   
    376. D(C   7,N   6,C   5,H  57)    -11.2028         0.014559   
    377. D(C   7,N   6,C   5,H  56)    108.0951         0.014559   
    378. D(C   7,N   6,C   5,C   4)   -134.0246         0.014559   
    379. D(C   2,N   6,C   5,H  57)    147.6386         0.014559   
    380. D(C   2,N   6,C   5,H  56)    -93.0636         0.014559   
    381. D(C   7,N   6,C   2,H  51)     38.9327         0.014192   
    382. D(C   2,N   6,C   5,C   4)     24.8167         0.014559   
    383. D(C   7,N   6,C   2,C   3)    158.5060         0.014192   
    384. D(C   5,N   6,C   2,C   1)    119.0560         0.014192   
    385. D(C   7,N   6,C   2,C   1)    -80.2003         0.014192   
    386. D(C   5,N   6,C   2,H  51)   -121.8111         0.014192   
    387. D(C  24,C   7,N   6,C   5)    -11.3319         0.028674   
    388. D(C  24,C   7,N   6,C   2)   -168.8090         0.028674   
    389. D(O   8,C   7,N   6,C   5)    169.4052         0.028674   
    390. D(O   8,C   7,N   6,C   2)     11.9281         0.028674   
    391. D(H  58,N   9,C   1,O   0)   -173.9456         0.030463   
    392. D(C  10,N   9,C   1,C   2)    179.9105         0.030463   
    393. D(H  58,N   9,C   1,C   2)     10.1720         0.030463   
    394. D(C  10,N   9,C   1,O   0)     -4.2071         0.030463   
    395. D(H  59,C  10,N   9,C   1)    -10.9137         0.016131   
    396. D(C  48,C  10,N   9,H  58)    -82.5399         0.016131   
    397. D(C  48,C  10,N   9,C   1)    108.0891         0.016131   
    398. D(C  11,C  10,N   9,C   1)   -125.1475         0.016131   
    399. D(H  59,C  10,N   9,H  58)    158.4573         0.016131   
    400. D(C  11,C  10,N   9,H  58)     44.2235         0.016131   
    401. D(O  47,C  11,C  10,N   9)    111.8753         0.009965   
    402. D(N  12,C  11,C  10,H  59)    177.7736         0.009965   
    403. D(N  12,C  11,C  10,C  48)     58.1192         0.009965   
    404. D(N  12,C  11,C  10,N   9)    -68.3358         0.009965   
    405. D(O  47,C  11,C  10,H  59)     -2.0152         0.009965   
    406. D(O  47,C  11,C  10,C  48)   -121.6697         0.009965   
    407. D(H  60,N  12,C  11,O  47)   -172.6268         0.028637   
    408. D(H  60,N  12,C  11,C  10)      7.5828         0.028637   
    409. D(C  13,N  12,C  11,O  47)    -13.4919         0.028637   
    410. D(C  13,N  12,C  11,C  10)    166.7178         0.028637   
    411. D(H  61,C  13,N  12,C  11)     -7.9633         0.017449   
    412. D(H  61,C  13,N  12,H  60)    152.1882         0.017449   
    413. D(C  45,C  13,N  12,H  60)    -87.7961         0.017449   
    414. D(C  45,C  13,N  12,C  11)    112.0524         0.017449   
    415. D(C  14,C  13,N  12,C  11)   -126.9256         0.017449   
    416. D(C  14,C  13,N  12,H  60)     33.2259         0.017449   
    417. D(O  44,C  14,C  13,C  45)     98.1831         0.010769   
    418. D(O  44,C  14,C  13,N  12)    -24.3824         0.010769   
    419. D(N  15,C  14,C  13,H  61)     41.4907         0.010769   
    420. D(N  15,C  14,C  13,C  45)    -79.5157         0.010769   
    421. D(O  44,C  14,C  13,H  61)   -140.8105         0.010769   
    422. D(N  15,C  14,C  13,N  12)    157.9188         0.010769   
    423. D(H  62,N  15,C  14,O  44)   -177.5251         0.036512   
    424. D(H  62,N  15,C  14,C  13)      0.1292         0.036512   
    425. D(C  16,N  15,C  14,O  44)     -2.6834         0.036512   
    426. D(C  16,N  15,C  14,C  13)    174.9709         0.036512   
    427. D(H  64,C  16,N  15,H  62)   -139.2727         0.016462   
    428. D(H  64,C  16,N  15,C  14)     45.8586         0.016462   
    429. D(H  63,C  16,N  15,H  62)    -23.0038         0.016462   
    430. D(H  63,C  16,N  15,C  14)    162.1275         0.016462   
    431. D(C  17,C  16,N  15,C  14)    -77.2231         0.016462   
    432. D(C  17,C  16,N  15,H  62)     97.6456         0.016462   
    433. D(H  65,C  17,C  16,H  64)    -83.5450         0.010939   
    434. D(H  65,C  17,C  16,H  63)    158.9416         0.010939   
    435. D(H  65,C  17,C  16,N  15)     38.9580         0.010939   
    436. D(O  43,C  17,C  16,H  64)    159.6971         0.010939   
    437. D(O  43,C  17,C  16,H  63)     42.1836         0.010939   
    438. D(O  43,C  17,C  16,N  15)    -77.8000         0.010939   
    439. D(C  18,C  17,C  16,H  64)     36.4599         0.010939   
    440. D(C  18,C  17,C  16,H  63)    -81.0536         0.010939   
    441. D(C  18,C  17,C  16,N  15)    158.9628         0.010939   
    442. D(H  66,C  18,C  17,H  65)    -77.2048         0.009679   
    443. D(H  66,C  18,C  17,O  43)     42.8297         0.009679   
    444. D(H  66,C  18,C  17,C  16)    162.4301         0.009679   
    445. D(C  32,C  18,C  17,O  43)    -75.2404         0.009679   
    446. D(C  32,C  18,C  17,C  16)     44.3599         0.009679   
    447. D(C  32,C  18,C  17,H  65)    164.7251         0.009679   
    448. D(C  19,C  18,C  17,H  65)     41.4838         0.009679   
    449. D(C  19,C  18,C  17,O  43)    161.5183         0.009679   
    450. D(C  19,C  18,C  17,C  16)    -78.8814         0.009679   
    451. D(O  31,C  19,C  18,H  66)    -53.4818         0.009606   
    452. D(O  31,C  19,C  18,C  32)     62.3899         0.009606   
    453. D(O  31,C  19,C  18,C  17)   -173.0575         0.009606   
    454. D(N  20,C  19,C  18,H  66)    127.2230         0.009606   
    455. D(N  20,C  19,C  18,C  17)      7.6473         0.009606   
    456. D(N  20,C  19,C  18,C  32)   -116.9053         0.009606   
    457. D(H  67,N  20,C  19,O  31)    178.9545         0.031216   
    458. D(H  67,N  20,C  19,C  18)     -1.7925         0.031216   
    459. D(C  21,N  20,C  19,O  31)    -12.1626         0.031216   
    460. D(C  21,N  20,C  19,C  18)    167.0903         0.031216   
    461. D(H  68,C  21,N  20,H  67)   -174.9740         0.016077   
    462. D(H  68,C  21,N  20,C  19)     15.6760         0.016077   
    463. D(C  27,C  21,N  20,H  67)    -54.0601         0.016077   
    464. D(C  27,C  21,N  20,C  19)    136.5898         0.016077   
    465. D(C  22,C  21,N  20,H  67)     70.3047         0.016077   
    466. D(C  22,C  21,N  20,C  19)    -99.0453         0.016077   
    467. D(N  23,C  22,C  21,C  27)     78.0534         0.009421   
    468. D(N  23,C  22,C  21,N  20)    -45.6852         0.009421   
    469. D(O  26,C  22,C  21,H  68)     20.5956         0.009421   
    470. D(O  26,C  22,C  21,C  27)   -100.3933         0.009421   
    471. D(O  26,C  22,C  21,N  20)    135.8682         0.009421   
    472. D(N  23,C  22,C  21,H  68)   -160.9578         0.009421   
    473. D(H  69,N  23,C  22,O  26)   -179.7192         0.030325   
    474. D(H  69,N  23,C  22,C  21)      1.8635         0.030325   
    475. D(C  24,N  23,C  22,O  26)    -14.9662         0.030325   
    476. D(C  24,N  23,C  22,C  21)    166.6166         0.030325   
    477. D(H  70,C  24,N  23,H  69)    179.2073         0.016142   
    478. D(H  70,C  24,N  23,C  22)     14.1382         0.016142   
    479. D(C  25,C  24,N  23,H  69)     60.6670         0.016142   
    480. D(C  25,C  24,N  23,C  22)   -104.4021         0.016142   
    481. D(C   7,C  24,N  23,H  69)    -63.0869         0.016142   
    482. D(C   7,C  24,N  23,C  22)    131.8440         0.016142   
    483. D(H  70,C  24,C   7,O   8)   -123.8590         0.009652   
    484. D(H  70,C  24,C   7,N   6)     56.8827         0.009652   
    485. D(C  25,C  24,C   7,O   8)     -3.2014         0.009652   
    486. D(C  25,C  24,C   7,N   6)    177.5404         0.009652   
    487. D(N  23,C  24,C   7,O   8)    120.7428         0.009652   
    488. D(N  23,C  24,C   7,N   6)    -58.5155         0.009652   
    489. D(H  73,C  25,C  24,H  70)    177.1482         0.011378   
    490. D(H  73,C  25,C  24,N  23)    -66.9389         0.011378   
    491. D(H  73,C  25,C  24,C   7)     56.8282         0.011378   
    492. D(H  72,C  25,C  24,H  70)     58.8035         0.011378   
    493. D(H  72,C  25,C  24,N  23)    174.7163         0.011378   
    494. D(H  72,C  25,C  24,C   7)    -61.5165         0.011378   
    495. D(H  71,C  25,C  24,H  70)    -62.0490         0.011378   
    496. D(H  71,C  25,C  24,N  23)     53.8638         0.011378   
    497. D(H  71,C  25,C  24,C   7)    177.6309         0.011378   
    498. D(H  75,C  27,C  21,H  68)     59.3040         0.010589   
    499. D(H  75,C  27,C  21,C  22)    177.0595         0.010589   
    500. D(H  75,C  27,C  21,N  20)    -58.8512         0.010589   
    501. D(H  74,C  27,C  21,H  68)    174.3360         0.010589   
    502. D(H  74,C  27,C  21,C  22)    -67.9085         0.010589   
    503. D(H  74,C  27,C  21,N  20)     56.1808         0.010589   
    504. D(C  28,C  27,C  21,H  68)    -62.8998         0.010589   
    505. D(C  28,C  27,C  21,C  22)     54.8557         0.010589   
    506. D(C  28,C  27,C  21,N  20)    178.9450         0.010589   
    507. D(H  76,C  28,C  27,H  75)   -177.6985         0.010712   
    508. D(H  76,C  28,C  27,H  74)     65.8480         0.010712   
    509. D(H  76,C  28,C  27,C  21)    -56.4700         0.010712   
    510. D(C  30,C  28,C  27,H  75)    -59.4843         0.010712   
    511. D(C  30,C  28,C  27,H  74)   -175.9378         0.010712   
    512. D(C  30,C  28,C  27,C  21)     61.7442         0.010712   
    513. D(C  29,C  28,C  27,H  75)     64.8576         0.010712   
    514. D(C  29,C  28,C  27,H  74)    -51.5959         0.010712   
    515. D(C  29,C  28,C  27,C  21)   -173.9139         0.010712   
    516. D(H  79,C  29,C  28,C  30)     62.2413         0.010969   
    517. D(H  79,C  29,C  28,C  27)    -62.5125         0.010969   
    518. D(H  78,C  29,C  28,H  76)     60.4661         0.010969   
    519. D(H  78,C  29,C  28,C  30)    -57.4011         0.010969   
    520. D(H  78,C  29,C  28,C  27)    177.8452         0.010969   
    521. D(H  77,C  29,C  28,H  76)    -59.9570         0.010969   
    522. D(H  77,C  29,C  28,C  30)   -177.8242         0.010969   
    523. D(H  79,C  29,C  28,H  76)   -179.8916         0.010969   
    524. D(H  77,C  29,C  28,C  27)     57.4221         0.010969   
    525. D(H  82,C  30,C  28,H  76)    -64.4317         0.010972   
    526. D(H  82,C  30,C  28,C  29)     53.6948         0.010972   
    527. D(H  82,C  30,C  28,C  27)    177.1606         0.010972   
    528. D(H  81,C  30,C  28,H  76)    176.1260         0.010972   
    529. D(H  81,C  30,C  28,C  29)    -65.7475         0.010972   
    530. D(H  81,C  30,C  28,C  27)     57.7183         0.010972   
    531. D(H  80,C  30,C  28,H  76)     55.2690         0.010972   
    532. D(H  80,C  30,C  28,C  29)    173.3955         0.010972   
    533. D(H  80,C  30,C  28,C  27)    -63.1387         0.010972   
    534. D(O  42,C  32,C  18,H  66)    159.1742         0.009473   
    535. D(O  42,C  32,C  18,C  19)     45.3689         0.009473   
    536. D(O  42,C  32,C  18,C  17)    -83.6386         0.009473   
    537. D(C  33,C  32,C  18,H  66)    -22.8505         0.009473   
    538. D(C  33,C  32,C  18,C  19)   -136.6559         0.009473   
    539. D(C  33,C  32,C  18,C  17)     94.3366         0.009473   
    540. D(H  84,C  33,C  32,O  42)    135.9665         0.012033   
    541. D(H  84,C  33,C  32,C  18)    -41.9324         0.012033   
    542. D(H  83,C  33,C  32,O  42)   -112.6300         0.012033   
    543. D(H  83,C  33,C  32,C  18)     69.4711         0.012033   
    544. D(C  34,C  33,C  32,O  42)     10.3786         0.012033   
    545. D(C  34,C  33,C  32,C  18)   -167.5202         0.012033   
    546. D(H  86,C  34,C  33,H  84)     58.5571         0.011167   
    547. D(H  86,C  34,C  33,H  83)    -58.1781         0.011167   
    548. D(H  86,C  34,C  33,C  32)   -178.4111         0.011167   
    549. D(H  85,C  34,C  33,H  84)    173.9116         0.011167   
    550. D(H  85,C  34,C  33,H  83)     57.1765         0.011167   
    551. D(H  85,C  34,C  33,C  32)    -63.0566         0.011167   
    552. D(C  35,C  34,C  33,H  84)    -63.9339         0.011167   
    553. D(C  35,C  34,C  33,H  83)    179.3309         0.011167   
    554. D(C  35,C  34,C  33,C  32)     59.0979         0.011167   
    555. D(H  88,C  35,C  34,H  86)     53.6204         0.010651   
    556. D(H  88,C  35,C  34,H  85)    -62.6165         0.010651   
    557. D(H  88,C  35,C  34,C  33)    175.1166         0.010651   
    558. D(H  87,C  35,C  34,H  86)    168.6117         0.010651   
    559. D(H  87,C  35,C  34,H  85)     52.3747         0.010651   
    560. D(H  87,C  35,C  34,C  33)    -69.8921         0.010651   
    561. D(C  36,C  35,C  34,H  86)    -68.8484         0.010651   
    562. D(C  36,C  35,C  34,H  85)    174.9147         0.010651   
    563. D(C  36,C  35,C  34,C  33)     52.6479         0.010651   
    564. D(H  90,C  36,C  35,H  87)     63.7036         0.011092   
    565. D(H  90,C  36,C  35,C  34)    -58.7728         0.011092   
    566. D(H  89,C  36,C  35,H  88)    -64.9851         0.011092   
    567. D(H  89,C  36,C  35,H  87)    179.5294         0.011092   
    568. D(H  89,C  36,C  35,C  34)     57.0530         0.011092   
    569. D(C  37,C  36,C  35,H  88)     57.1131         0.011092   
    570. D(C  37,C  36,C  35,H  87)    -58.3725         0.011092   
    571. D(H  90,C  36,C  35,H  88)    179.1892         0.011092   
    572. D(C  37,C  36,C  35,C  34)    179.1511         0.011092   
    573. D(H  92,C  37,C  36,H  90)    172.3239         0.010946   
    574. D(H  92,C  37,C  36,H  89)     57.0982         0.010946   
    575. D(H  92,C  37,C  36,C  35)    -65.4753         0.010946   
    576. D(H  91,C  37,C  36,H  90)    -72.8155         0.010946   
    577. D(H  91,C  37,C  36,H  89)    171.9588         0.010946   
    578. D(H  91,C  37,C  36,C  35)     49.3853         0.010946   
    579. D(C  38,C  37,C  36,H  90)     49.3949         0.010946   
    580. D(C  38,C  37,C  36,H  89)    -65.8308         0.010946   
    581. D(C  38,C  37,C  36,C  35)    171.5957         0.010946   
    582. D(H  94,C  38,C  37,H  92)    -70.0717         0.010864   
    583. D(H  94,C  38,C  37,H  91)    174.8231         0.010864   
    584. D(H  94,C  38,C  37,C  36)     52.5314         0.010864   
    585. D(H  93,C  38,C  37,H  92)     45.8213         0.010864   
    586. D(H  93,C  38,C  37,H  91)    -69.2839         0.010864   
    587. D(H  93,C  38,C  37,C  36)    168.4245         0.010864   
    588. D(C  39,C  38,C  37,H  92)    167.2450         0.010864   
    589. D(C  39,C  38,C  37,H  91)     52.1398         0.010864   
    590. D(C  39,C  38,C  37,C  36)    -70.1518         0.010864   
    591. D(H  95,C  39,C  38,H  94)    -62.1226         0.010990   
    592. D(H  95,C  39,C  38,H  93)   -177.4662         0.010990   
    593. D(H  95,C  39,C  38,C  37)     60.7673         0.010990   
    594. D(C  40,C  39,C  38,H  94)     60.1616         0.010990   
    595. D(C  40,C  39,C  38,H  93)    -55.1820         0.010990   
    596. D(C  40,C  39,C  38,C  37)   -176.9484         0.010990   
    597. D(H  96,C  39,C  38,H  94)   -178.4440         0.010990   
    598. D(H  96,C  39,C  38,H  93)     66.2124         0.010990   
    599. D(H  96,C  39,C  38,C  37)    -55.5541         0.010990   
    600. D(H  98,C  40,C  39,H  95)     63.9268         0.011112   
    601. D(H  98,C  40,C  39,C  38)    -58.9435         0.011112   
    602. D(H  97,C  40,C  39,H  96)    -64.0901         0.011112   
    603. D(H  97,C  40,C  39,H  95)    179.7344         0.011112   
    604. D(H  97,C  40,C  39,C  38)     56.8641         0.011112   
    605. D(C  41,C  40,C  39,H  96)     58.2158         0.011112   
    606. D(C  41,C  40,C  39,H  95)    -57.9596         0.011112   
    607. D(H  98,C  40,C  39,H  96)   -179.8977         0.011112   
    608. D(C  41,C  40,C  39,C  38)    179.1700         0.011112   
    609. D(H 101,C  41,C  40,H  98)    -62.8481         0.011215   
    610. D(H 101,C  41,C  40,H  97)   -178.9861         0.011215   
    611. D(H 101,C  41,C  40,C  39)     58.8254         0.011215   
    612. D(H 100,C  41,C  40,H  98)    176.5613         0.011215   
    613. D(H 100,C  41,C  40,H  97)     60.4233         0.011215   
    614. D(H 100,C  41,C  40,C  39)    -61.7652         0.011215   
    615. D(H  99,C  41,C  40,H  98)     57.1361         0.011215   
    616. D(H  99,C  41,C  40,H  97)    -59.0018         0.011215   
    617. D(H  99,C  41,C  40,C  39)    178.8097         0.011215   
    618. D(H 102,O  43,C  17,H  65)     51.7707         0.017291   
    619. D(H 102,O  43,C  17,C  18)    -67.6951         0.017291   
    620. D(H 102,O  43,C  17,C  16)    168.2988         0.017291   
    621. D(H 104,C  45,C  13,H  61)    175.8281         0.009999   
    622. D(H 104,C  45,C  13,C  14)    -62.3463         0.009999   
    623. D(H 104,C  45,C  13,N  12)     57.2933         0.009999   
    624. D(H 103,C  45,C  13,H  61)    -68.6555         0.009999   
    625. D(H 103,C  45,C  13,C  14)     53.1700         0.009999   
    626. D(H 103,C  45,C  13,N  12)    172.8096         0.009999   
    627. D(C  46,C  45,C  13,H  61)     53.5131         0.009999   
    628. D(C  46,C  45,C  13,C  14)    175.3386         0.009999   
    629. D(C  46,C  45,C  13,N  12)    -65.0218         0.009999   
    630. D(H 107,C  46,C  45,H 104)    -62.3041         0.011441   
    631. D(H 107,C  46,C  45,H 103)    179.8113         0.011441   
    632. D(H 107,C  46,C  45,C  13)     58.4996         0.011441   
    633. D(H 106,C  46,C  45,H 104)    178.2595         0.011441   
    634. D(H 106,C  46,C  45,H 103)     60.3749         0.011441   
    635. D(H 106,C  46,C  45,C  13)    -60.9368         0.011441   
    636. D(H 105,C  46,C  45,H 104)     57.7686         0.011441   
    637. D(H 105,C  46,C  45,H 103)    -60.1160         0.011441   
    638. D(H 105,C  46,C  45,C  13)    178.5723         0.011441   
    639. D(H 108,C  48,C  10,H  59)    178.4419         0.009870   
    640. D(H 108,C  48,C  10,C  11)    -63.4483         0.009870   
    641. D(H 108,C  48,C  10,N   9)     61.3250         0.009870   
    642. D(C  50,C  48,C  10,H  59)    -63.1602         0.009870   
    643. D(C  50,C  48,C  10,C  11)     54.9497         0.009870   
    644. D(C  50,C  48,C  10,N   9)    179.7229         0.009870   
    645. D(C  49,C  48,C  10,H  59)     60.3560         0.009870   
    646. D(C  49,C  48,C  10,C  11)    178.4659         0.009870   
    647. D(C  49,C  48,C  10,N   9)    -56.7609         0.009870   
    648. D(H 111,C  49,C  48,C  50)     61.7156         0.011066   
    649. D(H 111,C  49,C  48,C  10)    -61.2279         0.011066   
    650. D(H 110,C  49,C  48,H 108)     60.6146         0.011066   
    651. D(H 110,C  49,C  48,C  50)    -58.3054         0.011066   
    652. D(H 110,C  49,C  48,C  10)    178.7511         0.011066   
    653. D(H 109,C  49,C  48,H 108)    -59.5689         0.011066   
    654. D(H 109,C  49,C  48,C  50)   -178.4890         0.011066   
    655. D(H 111,C  49,C  48,H 108)   -179.3644         0.011066   
    656. D(H 109,C  49,C  48,C  10)     58.5675         0.011066   
    657. D(H 114,C  50,C  48,H 108)    -61.3701         0.011012   
    658. D(H 114,C  50,C  48,C  49)     57.2927         0.011012   
    659. D(H 114,C  50,C  48,C  10)   -179.5556         0.011012   
    660. D(H 113,C  50,C  48,H 108)    179.1227         0.011012   
    661. D(H 113,C  50,C  48,C  49)    -62.2144         0.011012   
    662. D(H 113,C  50,C  48,C  10)     60.9372         0.011012   
    663. D(H 112,C  50,C  48,H 108)     59.1019         0.011012   
    664. D(H 112,C  50,C  48,C  49)    177.7647         0.011012   
    665. D(H 112,C  50,C  48,C  10)    -59.0837         0.011012   
    -----------------------------------------------------------------

Number of atoms                         .... 115
Number of degrees of freedom            .... 665

         *************************************************************
         *                GEOMETRY OPTIMIZATION CYCLE   1            *
         *************************************************************
---------------------------------
CARTESIAN COORDINATES (ANGSTROEM)
---------------------------------
  O      6.212452   -2.810866    1.047146
  C      5.374319   -1.913164    1.047352
  C      5.763696   -0.502323    0.600982
  C      6.731590    0.133456    1.629343
  C      6.381466    1.626195    1.601951
  C      4.865049    1.613924    1.403064
  N      4.663585    0.475690    0.490732
  C      3.874956    0.454682   -0.632374
  O      3.926087   -0.483189   -1.429769
  N      4.097378   -2.058534    1.506726
  C      3.583332   -3.344425    1.964673
  C      2.298737   -3.686348    1.193551
  N      1.235780   -2.870636    1.491755
  C      0.030985   -2.834978    0.689343
  C     -0.227119   -1.379152    0.313967
  N     -0.989871   -1.140137   -0.764117
  C     -1.377842    0.213540   -1.133547
  C     -2.511936    0.751985   -0.254321
  C     -2.604306    2.299854   -0.248909
  C     -1.605764    3.070743    0.638267
  N     -0.613010    2.349349    1.228481
  C      0.543558    2.977457    1.858270
  C      1.766537    2.963606    0.914089
  N      1.998713    1.772699    0.287882
  C      2.915630    1.643490   -0.838956
  C      2.154894    1.504984   -2.155709
  O      2.484829    3.953969    0.772513
  C      0.858787    2.299019    3.201392
  C      2.078488    2.865570    3.942879
  C      2.375524    2.013039    5.180957
  C      1.893929    4.341157    4.312144
  O     -1.741213    4.285882    0.760097
  C     -2.457679    2.842401   -1.687302
  C     -3.743923    3.092046   -2.436867
  C     -3.593990    3.339877   -3.938896
  C     -2.929353    2.193032   -4.716070
  C     -3.559743    0.814212   -4.505350
  C     -2.858903   -0.273778   -5.326276
  C     -3.310318   -1.704211   -5.006518
  C     -2.855665   -2.200444   -3.630264
  C     -3.240777   -3.652424   -3.337701
  C     -2.756729   -4.125857   -1.966695
  O     -1.350356    3.010595   -2.170554
  O     -3.714184    0.138495   -0.751639
  O      0.227908   -0.454795    1.023959
  C     -1.192470   -3.409449    1.439462
  C     -1.037004   -4.897599    1.740393
  O      2.222118   -4.606089    0.386273
  C      3.403549   -3.400000    3.500925
  C      4.723903   -3.087892    4.210323
  C      2.856382   -4.767251    3.922112
  H      6.232044   -0.621401   -0.387274
  H      7.775407   -0.086616    1.381506
  H      6.535537   -0.283711    2.628795
  H      6.682099    2.155370    2.515411
  H      6.862087    2.122189    0.745058
  H      4.347358    1.422338    2.358770
  H      4.461490    2.545290    0.990114
  H      3.467741   -1.271581    1.367896
  H      4.332382   -4.090669    1.664406
  H      1.374817   -2.052325    2.081839
  H      0.227265   -3.441425   -0.209431
  H     -1.370302   -1.922409   -1.291440
  H     -1.704881    0.201604   -2.179709
  H     -0.503619    0.872147   -1.078351
  H     -2.341791    0.417177    0.784380
  H     -3.604024    2.566739    0.129159
  H     -0.561062    1.335711    1.102594
  H      0.288556    4.034208    1.998645
  H      1.355810    0.993804    0.450227
  H      3.499102    2.578025   -0.846514
  H      1.448065    2.337779   -2.263275
  H      2.849336    1.502688   -3.004953
  H      1.607015    0.553194   -2.186153
  H      1.008137    1.220668    3.022690
  H     -0.035425    2.392190    3.840904
  H      2.947332    2.798100    3.266544
  H      2.546445    0.959211    4.912723
  H      3.269184    2.376987    5.708191
  H      1.533644    2.045210    5.890775
  H      1.797047    4.971564    3.418587
  H      0.994861    4.478793    4.934121
  H      2.757189    4.709262    4.885146
  H     -4.217182    3.959256   -1.939450
  H     -4.414937    2.242713   -2.222540
  H     -3.007472    4.257908   -4.092856
  H     -4.597755    3.534198   -4.350782
  H     -1.865954    2.145446   -4.437470
  H     -2.954341    2.441600   -5.790017
  H     -4.631868    0.840245   -4.771305
  H     -3.527209    0.548507   -3.436252
  H     -1.768238   -0.199297   -5.165303
  H     -3.017254   -0.069387   -6.397848
  H     -2.915550   -2.389324   -5.775067
  H     -4.410421   -1.770201   -5.072839
  H     -3.277471   -1.554824   -2.840818
  H     -1.754331   -2.100386   -3.572283
  H     -2.828578   -4.307078   -4.123093
  H     -4.337014   -3.754599   -3.396752
  H     -3.055129   -5.162048   -1.755683
  H     -1.656148   -4.092167   -1.901313
  H     -3.172814   -3.494540   -1.165411
  H     -4.428539    0.303417   -0.112073
  H     -2.093515   -3.236238    0.830987
  H     -1.322952   -2.834944    2.371176
  H     -1.906690   -5.275434    2.295142
  H     -0.937408   -5.479655    0.813923
  H     -0.139455   -5.085036    2.344457
  H      2.668444   -2.624700    3.789318
  H      5.105137   -2.096973    3.930770
  H      4.588157   -3.106212    5.301097
  H      5.492151   -3.828165    3.944647
  H      1.888542   -4.986358    3.449673
  H      3.555919   -5.567138    3.636519
  H      2.718671   -4.811262    5.011432

----------------------------
CARTESIAN COORDINATES (A.U.)
----------------------------
  NO LB      ZA    FRAG     MASS         X           Y           Z
   0 O     8.0000    0    15.999   11.739832   -5.311767    1.978820
   1 C     6.0000    0    12.011   10.155992   -3.615356    1.979208
   2 C     6.0000    0    12.011   10.891808   -0.949253    1.135691
   3 C     6.0000    0    12.011   12.720862    0.252196    3.079012
   4 C     6.0000    0    12.011   12.059223    3.073062    3.027248
   5 C     6.0000    0    12.011    9.193610    3.049875    2.651406
   6 N     7.0000    0    14.007    8.812898    0.898924    0.927349
   7 C     6.0000    0    12.011    7.322605    0.859224   -1.195013
   8 O     8.0000    0    15.999    7.419229   -0.913095   -2.701872
   9 N     7.0000    0    14.007    7.742923   -3.890066    2.847300
  10 C     6.0000    0    12.011    6.771515   -6.320048    3.712694
  11 C     6.0000    0    12.011    4.343984   -6.966188    2.255484
  12 N     7.0000    0    14.007    2.335286   -5.424717    2.819009
  13 C     6.0000    0    12.011    0.058553   -5.357333    1.302669
  14 C     6.0000    0    12.011   -0.429193   -2.606220    0.593312
  15 N     7.0000    0    14.007   -1.870585   -2.154546   -1.443971
  16 C     6.0000    0    12.011   -2.603745    0.403532   -2.142093
  17 C     6.0000    0    12.011   -4.746871    1.421046   -0.480597
  18 C     6.0000    0    12.011   -4.921425    4.346094   -0.470369
  19 C     6.0000    0    12.011   -3.034455    5.802863    1.206150
  20 N     7.0000    0    14.007   -1.158422    4.439626    2.321492
  21 C     6.0000    0    12.011    1.027175    5.626578    3.511621
  22 C     6.0000    0    12.011    3.338271    5.600404    1.727378
  23 N     7.0000    0    14.007    3.777021    3.349916    0.544018
  24 C     6.0000    0    12.011    5.509742    3.105746   -1.585397
  25 C     6.0000    0    12.011    4.072160    2.844008   -4.073699
  26 O     8.0000    0    15.999    4.695646    7.471919    1.459839
  27 C     6.0000    0    12.011    1.622873    4.344516    6.049754
  28 C     6.0000    0    12.011    3.927774    5.415143    7.450962
  29 C     6.0000    0    12.011    4.489089    3.804093    9.790590
  30 C     6.0000    0    12.011    3.579007    8.203598    8.148772
  31 O     8.0000    0    15.999   -3.290415    8.099143    1.436375
  32 C     6.0000    0    12.011   -4.644340    5.371360   -3.188540
  33 C     6.0000    0    12.011   -7.074990    5.843121   -4.605010
  34 C     6.0000    0    12.011   -6.791657    6.311452   -7.443435
  35 C     6.0000    0    12.011   -5.535674    4.144229   -8.912080
  36 C     6.0000    0    12.011   -6.726940    1.538638   -8.513878
  37 C     6.0000    0    12.011   -5.402544   -0.517365  -10.065202
  38 C     6.0000    0    12.011   -6.255594   -3.220492   -9.460948
  39 C     6.0000    0    12.011   -5.396425   -4.158236   -6.860204
  40 C     6.0000    0    12.011   -6.124182   -6.902081   -6.307341
  41 C     6.0000    0    12.011   -5.209463   -7.796739   -3.716515
  42 O     8.0000    0    15.999   -2.551803    5.689201   -4.101752
  43 O     8.0000    0    15.999   -7.018790    0.261718   -1.420391
  44 O     8.0000    0    15.999    0.430683   -0.859438    1.935003
  45 C     6.0000    0    12.011   -2.253441   -6.442926    2.720189
  46 C     6.0000    0    12.011   -1.959653   -9.255121    3.288866
  47 O     8.0000    0    15.999    4.199195   -8.704248    0.729950
  48 C     6.0000    0    12.011    6.431776   -6.425070    6.615789
  49 C     6.0000    0    12.011    8.926883   -5.835271    7.956358
  50 C     6.0000    0    12.011    5.397780   -9.008799    7.411718
  51 H     1.0000    0     1.008   11.776856   -1.174277   -0.731841
  52 H     1.0000    0     1.008   14.693389   -0.163680    2.610668
  53 H     1.0000    0     1.008   12.350375   -0.536137    4.967703
  54 H     1.0000    0     1.008   12.627338    4.073059    4.753439
  55 H     1.0000    0     1.008   12.967464    4.010356    1.407956
  56 H     1.0000    0     1.008    8.215316    2.687829    4.457429
  57 H     1.0000    0     1.008    8.430995    4.809901    1.871045
  58 H     1.0000    0     1.008    6.553081   -2.402939    2.584949
  59 H     1.0000    0     1.008    8.187015   -7.730245    3.145271
  60 H     1.0000    0     1.008    2.598027   -3.878331    3.934105
  61 H     1.0000    0     1.008    0.429469   -6.503350   -0.395768
  62 H     1.0000    0     1.008   -2.589495   -3.632827   -2.440467
  63 H     1.0000    0     1.008   -3.221758    0.380977   -4.119054
  64 H     1.0000    0     1.008   -0.951702    1.648118   -2.037788
  65 H     1.0000    0     1.008   -4.425344    0.788350    1.482263
  66 H     1.0000    0     1.008   -6.810618    4.850434    0.244075
  67 H     1.0000    0     1.008   -1.060253    2.524127    2.083601
  68 H     1.0000    0     1.008    0.545292    7.623548    3.776892
  69 H     1.0000    0     1.008    2.562110    1.878018    0.850805
  70 H     1.0000    0     1.008    6.612344    4.871761   -1.599679
  71 H     1.0000    0     1.008    2.736447    4.417762   -4.276970
  72 H     1.0000    0     1.008    5.384466    2.839670   -5.678538
  73 H     1.0000    0     1.008    3.036818    1.045385   -4.131231
  74 H     1.0000    0     1.008    1.905104    2.306728    5.712057
  75 H     1.0000    0     1.008   -0.066944    4.520583    7.258257
  76 H     1.0000    0     1.008    5.569651    5.287643    6.172873
  77 H     1.0000    0     1.008    4.812085    1.812645    9.283700
  78 H     1.0000    0     1.008    6.177862    4.491855   10.786918
  79 H     1.0000    0     1.008    2.898167    3.864887   11.131952
  80 H     1.0000    0     1.008    3.395926    9.394894    6.460192
  81 H     1.0000    0     1.008    1.880016    8.463692    9.324138
  82 H     1.0000    0     1.008    5.210332    8.899216    9.231588
  83 H     1.0000    0     1.008   -7.969319    7.481909   -3.665030
  84 H     1.0000    0     1.008   -8.343022    4.238113   -4.199992
  85 H     1.0000    0     1.008   -5.683299    8.046280   -7.734376
  86 H     1.0000    0     1.008   -8.688497    6.678666   -8.221787
  87 H     1.0000    0     1.008   -3.526141    4.054306   -8.385602
  88 H     1.0000    0     1.008   -5.582895    4.613955  -10.941546
  89 H     1.0000    0     1.008   -8.752962    1.587832   -9.016459
  90 H     1.0000    0     1.008   -6.665459    1.036528   -6.493576
  91 H     1.0000    0     1.008   -3.341486   -0.376617   -9.761009
  92 H     1.0000    0     1.008   -5.701784   -0.131123  -12.090180
  93 H     1.0000    0     1.008   -5.509591   -4.515168  -10.913296
  94 H     1.0000    0     1.008   -8.334488   -3.345195   -9.586276
  95 H     1.0000    0     1.008   -6.193522   -2.938192   -5.368368
  96 H     1.0000    0     1.008   -3.315205   -3.969155   -6.750637
  97 H     1.0000    0     1.008   -5.345237   -8.139199   -7.791517
  98 H     1.0000    0     1.008   -8.195769   -7.095163   -6.418931
  99 H     1.0000    0     1.008   -5.773358   -9.754858   -3.317760
 100 H     1.0000    0     1.008   -3.129666   -7.733075   -3.592960
 101 H     1.0000    0     1.008   -5.995750   -6.603724   -2.202308
 102 H     1.0000    0     1.008   -8.368725    0.573375   -0.211787
 103 H     1.0000    0     1.008   -3.956170   -6.115604    1.570339
 104 H     1.0000    0     1.008   -2.500016   -5.357267    4.480874
 105 H     1.0000    0     1.008   -3.603122   -9.969125    4.337191
 106 H     1.0000    0     1.008   -1.771444  -10.355046    1.538092
 107 H     1.0000    0     1.008   -0.263532   -9.609326    4.430382
 108 H     1.0000    0     1.008    5.042629   -4.959965    7.160773
 109 H     1.0000    0     1.008    9.647310   -3.962704    7.428079
 110 H     1.0000    0     1.008    8.670361   -5.869890   10.017621
 111 H     1.0000    0     1.008   10.378662   -7.234183    7.454303
 112 H     1.0000    0     1.008    3.568828   -9.422850    6.518938
 113 H     1.0000    0     1.008    6.719713  -10.520366    6.872025
 114 H     1.0000    0     1.008    5.137543   -9.091967    9.470234

--------------------------------
INTERNAL COORDINATES (ANGSTROEM)
--------------------------------
 O      0   0   0     0.000000000000     0.00000000     0.00000000
 C      1   0   0     1.228142601129     0.00000000     0.00000000
 C      2   1   0     1.530141628083   120.01610001     0.00000000
 C      3   2   1     1.548728517182   110.11117439   291.52487917
 C      4   3   2     1.533494382828   104.18515081   213.36155794
 C      5   4   3     1.529453068112   102.76103084    36.16193617
 N      6   5   4     1.472587567587   102.85054804   322.98292182
 C      7   6   5     1.372495511856   126.68465980   225.97536452
 O      8   7   6     1.232093858930   121.15772338   169.40520793
 N      2   1   3     1.364820762822   124.10415887   184.28335619
 C     10   2   1     1.458586550030   121.95898878   355.79286818
 C     11  10   2     1.536789789292   109.46316823   234.85252586
 N     12  11  10     1.372657740609   113.95841907   291.66418333
 C     13  12  11     1.447987750643   122.58606397   166.71779290
 C     14  13  12     1.525435564929   107.49667387   233.07441856
 N     15  14  13     1.342081997418   117.63264054   157.91880648
 C     16  15  14     1.455830197053   121.39248649   174.97092592
 C     17  16  15     1.532686815770   112.22708130   282.77691010
 C     18  17  16     1.550631816925   113.37589761   158.96284399
 C     19  18  17     1.542217948275   117.54243944   281.11864224
 N     20  19  18     1.361735085250   117.16523410     7.64726670
 C     21  20  19     1.459041998925   122.47475914   167.09033780
 C     22  21  20     1.545104417909   111.08795160   260.95465600
 N     23  22  21     1.365394171447   115.00318451   314.31479712
 C     24  23  22     1.458490653801   122.58223830   166.61660061
 C     25  24  23     1.527003996868   111.16551394   255.59790394
 O     23  22  21     1.231586627339   121.64609627   135.86818346
 C     22  21  20     1.537408553807   110.46646625   136.58980589
 C     28  22  21     1.535726071231   114.95197067   178.94501440
 C     29  28  22     1.532278021049   109.80533111   186.08609708
 C     29  28  22     1.532244915280   112.08417800    61.74418703
 O     20  19  18     1.228719353251   118.68518142   186.94246138
 C     19  18  17     1.544290857114   109.98606019    44.35993792
 C     33  19  18     1.509501277394   116.08544275    94.33661786
 C     34  33  19     1.529703356071   115.52192124   192.47977042
 C     35  34  33     1.536553066322   114.71560665    59.09787438
 C     36  35  34     1.530665859970   115.12288018    52.64785295
 C     37  36  35     1.532584976982   112.17327236   179.15113914
 C     38  37  36     1.533675117901   114.57233300   171.59573512
 C     39  38  37     1.532002702252   113.70650256   289.84818874
 C     40  39  38     1.530408587191   113.85129949   183.05155724
 C     41  40  39     1.529084012130   112.67451210   179.17003551
 O     33  19  18     1.219829773183   120.24040111   276.36135781
 O     18  17  16     1.438434342613   105.68089027   282.20003994
 O     15  14  13     1.251229133949   120.25722298   335.61760863
 C     14  13  12     1.545812934464   112.36305926   112.05238909
 C     46  14  13     1.526210443045   112.17408308   294.97820023
 O     12  11  10     1.226170029372   123.33111888   111.87530859
 C     11  10   2     1.547733778920   112.59597172   108.08909824
 C     49  11  10     1.531009778944   110.63540601   303.23914647
 C     49  11  10     1.531719930767   110.27237703   179.72293888
 H      3   2   1     1.100080807348   105.69983898    52.69687066
 H      4   3   2     1.095174678929   111.27823128    89.90138350
 H      4   3   2     1.100623130984   109.63615454   331.23146528
 H      5   4   3     1.097641990158   113.07213578   157.76479417
 H      5   4   3     1.100577821869   110.66425148   279.23206335
 H      6   5   4     1.103667843910   110.72323910    80.18436414
 H      6   5   4     1.095823623675   114.03630156   201.60008778
 H     10   2   1     1.017355842378   116.79019602   186.05440116
 H     11  10   2     1.099143346358   105.81919742   349.08633028
 H     13  12  11     1.018412430357   119.84469898     7.58284410
 H     14  13  12     1.101861111077   106.87283882   352.03673477
 H     16  15  14     1.017225245564   119.47305960     0.12924414
 H     17  16  15     1.096153879534   108.15389010   162.12752756
 H     17  16  15     1.095935968472   109.47668536    45.85860549
 H     18  17  16     1.104511387869   108.60212351    38.95801984
 H     19  18  17     1.101634474831   107.28274833   162.43005275
 H     21  20  19     1.022745555692   120.57890732   358.20745102
 H     22  21  20     1.096108076594   106.61277771    15.67598288
 H     24  23  22     1.022915900716   118.97833015     1.86353895
 H     25  24  23     1.101749427148   105.25365325    14.13816208
 H     26  25  24     1.097599322147   109.66432056    53.86380675
 H     26  25  24     1.097028225391   110.63222609   174.71632643
 H     26  25  24     1.098637211977   110.54346472   293.06109554
 H     28  22  21     1.103213782985   108.51705708    56.18081566
 H     28  22  21     1.103301047209   107.63411899   301.14880987
 H     29  28  22     1.103119386075   107.87586408   303.52999194
 H     30  29  28     1.100780939199   111.46050160    57.42210821
 H     30  29  28     1.099573578400   111.15055035   177.84515825
 H     30  29  28     1.101652389596   110.86831454   297.48753831
 H     31  29  28     1.097836396293   111.55965508   296.86126917
 H     31  29  28     1.101872037333   110.76946511    57.71830789
 H     31  29  28     1.099568136384   110.69639840   177.16057483
 H     34  33  19     1.106096214714   105.72019006    69.47112228
 H     34  33  19     1.103432246922   107.12310521   318.06758598
 H     35  34  33     1.100221641544   108.95576230   296.94343289
 H     35  34  33     1.102249826804   107.83171036   181.58889757
 H     36  35  34     1.100318220134   108.79904157   290.10790822
 H     36  35  34     1.102620948109   108.33524471   175.11664970
 H     37  36  35     1.104925817007   110.19740798    57.05299929
 H     37  36  35     1.102101775940   109.78900505   301.22724097
 H     38  37  36     1.104993177932   108.99475039    49.38532408
 H     38  37  36     1.102323875894   108.86773007   294.52472850
 H     39  38  37     1.102673817107   109.19622166   168.42446008
 H     39  38  37     1.104074007054   109.66369974    52.53143960
 H     40  39  38     1.103616093854   109.85787524    60.76729944
 H     40  39  38     1.107389067198   108.23503345   304.44591112
 H     41  40  39     1.102416472523   109.45836574    56.86411314
 H     41  40  39     1.102570451365   109.13994359   301.05648961
 H     42  41  40     1.098754884830   112.22282613   178.80966317
 H     42  41  40     1.103036188059   111.07238942   298.23481232
 H     42  41  40     1.101700327067   110.80230307    58.82542592
 H     44  18  17     0.972906452902   108.30715588   168.29876902
 H     46  14  13     1.100966113082   108.72870388   172.80962827
 H     46  14  13     1.102349288001   108.06809842    57.29329623
 H     47  46  14     1.098571846207   110.74950340   178.57226259
 H     47  46  14     1.098660098336   111.07173916   299.06315626
 H     47  46  14     1.098007351491   110.98920663    58.49955983
 H     49  11  10     1.106634616163   108.09988369    61.32500072
 H     50  49  11     1.097912063233   111.43649943    58.56751158
 H     50  49  11     1.099340347329   110.47851874   178.75109017
 H     50  49  11     1.099451067300   110.69455732   298.77206371
 H     51  49  11     1.099054392670   111.98270332   300.91632955
 H     51  49  11     1.100333741978   110.51281328    60.93720641
 H     51  49  11     1.098871258133   110.67732098   180.44436717

---------------------------
INTERNAL COORDINATES (A.U.)
---------------------------
 O      0   0   0     0.000000000000     0.00000000     0.00000000
 C      1   0   0     2.320853169535     0.00000000     0.00000000
 C      2   1   0     2.891548623190   120.01610001     0.00000000
 C      3   2   1     2.926672753268   110.11117439   291.52487917
 C      4   3   2     2.897884411452   104.18515081   213.36155794
 C      5   4   3     2.890247433418   102.76103084    36.16193617
 N      6   5   4     2.782787210957   102.85054804   322.98292182
 C      7   6   5     2.593640637443   126.68465980   225.97536452
 O      8   7   6     2.328319964664   121.15772338   169.40520793
 N      2   1   3     2.579137463623   124.10415887   184.28335619
 C     10   2   1     2.756329122177   121.95898878   355.79286818
 C     11  10   2     2.904111827169   109.46316823   234.85252586
 N     12  11  10     2.593947205359   113.95841907   291.66418333
 C     13  12  11     2.736300293989   122.58606397   166.71779290
 C     14  13  12     2.882655452658   107.49667387   233.07441856
 N     15  14  13     2.536167424386   117.63264054   157.91880648
 C     16  15  14     2.751120369922   121.39248649   174.97092592
 C     17  16  15     2.896358330878   112.22708130   282.77691010
 C     18  17  16     2.930269468533   113.37589761   158.96284399
 C     19  18  17     2.914369561057   117.54243944   281.11864224
 N     20  19  18     2.573306378074   117.16523410     7.64726670
 C     21  20  19     2.757189795857   122.47475914   167.09033780
 C     22  21  20     2.919824198160   111.08795160   260.95465600
 N     23  22  21     2.580221048887   115.00318451   314.31479712
 C     24  23  22     2.756147904568   122.58223830   166.61660061
 C     25  24  23     2.885619359483   111.16551394   255.59790394
 O     23  22  21     2.327361435871   121.64609627   135.86818346
 C     22  21  20     2.905281122642   110.46646625   136.58980589
 C     28  22  21     2.902101691349   114.95197067   178.94501440
 C     29  28  22     2.895585820809   109.80533111   186.08609708
 C     29  28  22     2.895523259972   112.08417800    61.74418703
 O     20  19  18     2.321943073093   118.68518142   186.94246138
 C     19  18  17     2.918286791064   109.98606019    44.35993792
 C     33  19  18     2.852544013080   116.08544275    94.33661786
 C     34  33  19     2.890720409114   115.52192124   192.47977042
 C     35  34  33     2.903664485586   114.71560665    59.09787438
 C     36  35  34     2.892539277886   115.12288018    52.64785295
 C     37  36  35     2.896165883458   112.17327236   179.15113914
 C     38  37  36     2.898225951242   114.57233300   171.59573512
 C     39  38  37     2.895065543683   113.70650256   289.84818874
 C     40  39  38     2.892053102792   113.85129949   183.05155724
 C     41  40  39     2.889550018684   112.67451210   179.17003551
 O     33  19  18     2.305144201320   120.24040111   276.36135781
 O     18  17  16     2.718246969165   105.68089027   282.20003994
 O     15  14  13     2.364480393948   120.25722298   335.61760863
 C     14  13  12     2.921163100409   112.36305926   112.05238909
 C     46  14  13     2.884119760086   112.17408308   294.97820023
 O     12  11  10     2.317125549136   123.33111888   111.87530859
 C     11  10   2     2.924792970379   112.59597172   108.08909824
 C     49  11  10     2.893189190560   110.63540601   303.23914647
 C     49  11  10     2.894531183018   110.27237703   179.72293888
 H      3   2   1     2.078851451071   105.69983898    52.69687066
 H      4   3   2     2.069580211981   111.27823128    89.90138350
 H      4   3   2     2.079876294220   109.63615454   331.23146528
 H      5   4   3     2.074242754491   113.07213578   157.76479417
 H      5   4   3     2.079790672399   110.66425148   279.23206335
 H      6   5   4     2.085629967806   110.72323910    80.18436414
 H      6   5   4     2.070806539827   114.03630156   201.60008778
[...]
freq.      84.93  E(vib)   ...       0.48 
freq.      86.05  E(vib)   ...       0.48 
freq.      97.24  E(vib)   ...       0.46 
freq.      97.80  E(vib)   ...       0.46 
freq.     101.50  E(vib)   ...       0.46 
freq.     112.17  E(vib)   ...       0.45 
freq.     113.53  E(vib)   ...       0.44 
freq.     119.64  E(vib)   ...       0.44 
freq.     122.93  E(vib)   ...       0.43 
freq.     132.75  E(vib)   ...       0.42 
freq.     136.48  E(vib)   ...       0.42 
freq.     136.72  E(vib)   ...       0.42 
freq.     141.22  E(vib)   ...       0.41 
freq.     146.00  E(vib)   ...       0.41 
freq.     147.38  E(vib)   ...       0.41 
freq.     156.74  E(vib)   ...       0.40 
freq.     161.54  E(vib)   ...       0.39 
freq.     164.61  E(vib)   ...       0.39 
freq.     179.38  E(vib)   ...       0.37 
freq.     191.52  E(vib)   ...       0.36 
freq.     194.77  E(vib)   ...       0.36 
freq.     201.57  E(vib)   ...       0.35 
freq.     204.65  E(vib)   ...       0.35 
freq.     209.25  E(vib)   ...       0.34 
freq.     214.54  E(vib)   ...       0.34 
freq.     218.37  E(vib)   ...       0.33 
freq.     222.66  E(vib)   ...       0.33 
freq.     227.37  E(vib)   ...       0.33 
freq.     232.55  E(vib)   ...       0.32 
freq.     238.49  E(vib)   ...       0.32 
freq.     239.61  E(vib)   ...       0.31 
freq.     242.08  E(vib)   ...       0.31 
freq.     246.68  E(vib)   ...       0.31 
freq.     259.27  E(vib)   ...       0.30 
freq.     264.11  E(vib)   ...       0.29 
freq.     269.48  E(vib)   ...       0.29 
freq.     282.93  E(vib)   ...       0.28 
freq.     290.99  E(vib)   ...       0.27 
freq.     293.44  E(vib)   ...       0.27 
freq.     296.86  E(vib)   ...       0.27 
freq.     298.82  E(vib)   ...       0.26 
freq.     305.02  E(vib)   ...       0.26 
freq.     315.04  E(vib)   ...       0.25 
freq.     321.93  E(vib)   ...       0.25 
freq.     327.18  E(vib)   ...       0.24 
freq.     328.51  E(vib)   ...       0.24 
freq.     335.55  E(vib)   ...       0.24 
freq.     340.28  E(vib)   ...       0.23 
freq.     352.18  E(vib)   ...       0.23 
freq.     363.52  E(vib)   ...       0.22 
freq.     366.35  E(vib)   ...       0.22 
freq.     380.38  E(vib)   ...       0.21 
freq.     382.41  E(vib)   ...       0.21 
freq.     391.97  E(vib)   ...       0.20 
freq.     405.76  E(vib)   ...       0.19 
freq.     413.44  E(vib)   ...       0.19 
freq.     417.02  E(vib)   ...       0.18 
freq.     432.44  E(vib)   ...       0.18 
freq.     440.13  E(vib)   ...       0.17 
freq.     445.91  E(vib)   ...       0.17 
freq.     466.95  E(vib)   ...       0.16 
freq.     468.35  E(vib)   ...       0.16 
freq.     479.52  E(vib)   ...       0.15 
freq.     483.85  E(vib)   ...       0.15 
freq.     487.06  E(vib)   ...       0.15 
freq.     496.71  E(vib)   ...       0.14 
freq.     510.82  E(vib)   ...       0.14 
freq.     525.88  E(vib)   ...       0.13 
freq.     528.84  E(vib)   ...       0.13 
freq.     529.90  E(vib)   ...       0.13 
freq.     535.89  E(vib)   ...       0.12 
freq.     558.37  E(vib)   ...       0.12 
freq.     580.38  E(vib)   ...       0.11 
freq.     598.95  E(vib)   ...       0.10 
freq.     615.49  E(vib)   ...       0.10 
freq.     627.62  E(vib)   ...       0.09 
freq.     640.71  E(vib)   ...       0.09 
freq.     660.02  E(vib)   ...       0.08 
freq.     678.97  E(vib)   ...       0.08 
freq.     690.53  E(vib)   ...       0.07 
freq.     695.10  E(vib)   ...       0.07 
freq.     710.30  E(vib)   ...       0.07 
freq.     721.29  E(vib)   ...       0.07 
freq.     723.40  E(vib)   ...       0.07 
freq.     725.33  E(vib)   ...       0.06 
freq.     728.77  E(vib)   ...       0.06 
freq.     731.34  E(vib)   ...       0.06 
freq.     739.01  E(vib)   ...       0.06 
freq.     743.42  E(vib)   ...       0.06 
freq.     757.32  E(vib)   ...       0.06 
freq.     767.57  E(vib)   ...       0.06 
freq.     769.98  E(vib)   ...       0.05 
freq.     779.85  E(vib)   ...       0.05 
freq.     783.14  E(vib)   ...       0.05 
freq.     811.75  E(vib)   ...       0.05 
freq.     821.94  E(vib)   ...       0.05 
freq.     838.64  E(vib)   ...       0.04 
freq.     847.00  E(vib)   ...       0.04 
freq.     851.92  E(vib)   ...       0.04 
freq.     856.80  E(vib)   ...       0.04 
freq.     859.18  E(vib)   ...       0.04 
freq.     868.09  E(vib)   ...       0.04 
freq.     876.53  E(vib)   ...       0.04 
freq.     879.57  E(vib)   ...       0.04 
freq.     885.50  E(vib)   ...       0.04 
freq.     887.56  E(vib)   ...       0.04 
freq.     892.64  E(vib)   ...       0.03 
freq.     896.91  E(vib)   ...       0.03 
freq.     901.65  E(vib)   ...       0.03 
freq.     902.76  E(vib)   ...       0.03 
freq.     905.44  E(vib)   ...       0.03 
freq.     915.95  E(vib)   ...       0.03 
freq.     921.96  E(vib)   ...       0.03 
freq.     925.28  E(vib)   ...       0.03 
freq.     933.02  E(vib)   ...       0.03 
freq.     939.45  E(vib)   ...       0.03 
freq.     942.07  E(vib)   ...       0.03 
freq.     944.28  E(vib)   ...       0.03 
freq.     947.89  E(vib)   ...       0.03 
freq.     962.61  E(vib)   ...       0.03 
freq.     965.94  E(vib)   ...       0.03 
freq.     968.67  E(vib)   ...       0.03 
freq.     982.39  E(vib)   ...       0.02 
freq.     984.35  E(vib)   ...       0.02 
freq.     988.06  E(vib)   ...       0.02 
freq.     998.91  E(vib)   ...       0.02 
freq.    1010.77  E(vib)   ...       0.02 
freq.    1014.14  E(vib)   ...       0.02 
freq.    1023.60  E(vib)   ...       0.02 
freq.    1026.85  E(vib)   ...       0.02 
freq.    1032.74  E(vib)   ...       0.02 
freq.    1035.42  E(vib)   ...       0.02 
freq.    1043.23  E(vib)   ...       0.02 
freq.    1048.38  E(vib)   ...       0.02 
freq.    1050.97  E(vib)   ...       0.02 
freq.    1056.28  E(vib)   ...       0.02 
freq.    1061.91  E(vib)   ...       0.02 
freq.    1064.85  E(vib)   ...       0.02 
freq.    1069.51  E(vib)   ...       0.02 
freq.    1077.12  E(vib)   ...       0.02 
freq.    1077.55  E(vib)   ...       0.02 
freq.    1078.53  E(vib)   ...       0.02 
freq.    1085.03  E(vib)   ...       0.02 
freq.    1093.41  E(vib)   ...       0.02 
freq.    1097.12  E(vib)   ...       0.02 
freq.    1100.85  E(vib)   ...       0.02 
freq.    1102.57  E(vib)   ...       0.02 
freq.    1119.61  E(vib)   ...       0.01 
freq.    1127.77  E(vib)   ...       0.01 
freq.    1128.43  E(vib)   ...       0.01 
freq.    1130.87  E(vib)   ...       0.01 
freq.    1135.34  E(vib)   ...       0.01 
freq.    1146.38  E(vib)   ...       0.01 
freq.    1152.26  E(vib)   ...       0.01 
freq.    1155.49  E(vib)   ...       0.01 
freq.    1160.09  E(vib)   ...       0.01 
freq.    1166.91  E(vib)   ...       0.01 
freq.    1167.30  E(vib)   ...       0.01 
freq.    1178.49  E(vib)   ...       0.01 
freq.    1191.98  E(vib)   ...       0.01 
freq.    1193.99  E(vib)   ...       0.01 
freq.    1198.27  E(vib)   ...       0.01 
freq.    1200.40  E(vib)   ...       0.01 
freq.    1203.33  E(vib)   ...       0.01 
freq.    1210.53  E(vib)   ...       0.01 
freq.    1221.01  E(vib)   ...       0.01 
freq.    1224.33  E(vib)   ...       0.01 
freq.    1227.20  E(vib)   ...       0.01 
freq.    1234.25  E(vib)   ...       0.01 
freq.    1238.25  E(vib)   ...       0.01 
freq.    1243.51  E(vib)   ...       0.01 
freq.    1248.59  E(vib)   ...       0.01 
freq.    1249.35  E(vib)   ...       0.01 
freq.    1251.88  E(vib)   ...       0.01 
freq.    1252.74  E(vib)   ...       0.01 
freq.    1257.44  E(vib)   ...       0.01 
freq.    1262.47  E(vib)   ...       0.01 
freq.    1274.82  E(vib)   ...       0.01 
freq.    1278.97  E(vib)   ...       0.01 
freq.    1282.26  E(vib)   ...       0.01 
freq.    1283.26  E(vib)   ...       0.01 
freq.    1283.98  E(vib)   ...       0.01 
freq.    1290.84  E(vib)   ...       0.01 
freq.    1292.52  E(vib)   ...       0.01 
freq.    1293.52  E(vib)   ...       0.01 
freq.    1294.77  E(vib)   ...       0.01 
freq.    1296.19  E(vib)   ...       0.01 
freq.    1299.27  E(vib)   ...       0.01 
freq.    1302.08  E(vib)   ...       0.01 
freq.    1303.13  E(vib)   ...       0.01 
freq.    1303.45  E(vib)   ...       0.01 
freq.    1309.74  E(vib)   ...       0.01 
freq.    1310.79  E(vib)   ...       0.01 
freq.    1316.67  E(vib)   ...       0.01 
freq.    1323.82  E(vib)   ...       0.01 
freq.    1325.95  E(vib)   ...       0.01 
freq.    1326.42  E(vib)   ...       0.01 
freq.    1329.55  E(vib)   ...       0.01 
freq.    1331.06  E(vib)   ...       0.01 
freq.    1338.99  E(vib)   ...       0.01 
freq.    1339.14  E(vib)   ...       0.01 
freq.    1341.02  E(vib)   ...       0.01 
freq.    1345.06  E(vib)   ...       0.01 
freq.    1348.16  E(vib)   ...       0.01 
freq.    1350.67  E(vib)   ...       0.01 
freq.    1351.03  E(vib)   ...       0.01 
freq.    1352.08  E(vib)   ...       0.01 
freq.    1356.33  E(vib)   ...       0.01 
freq.    1358.22  E(vib)   ...       0.01 
freq.    1362.58  E(vib)   ...       0.01 
freq.    1366.27  E(vib)   ...       0.01 
freq.    1371.73  E(vib)   ...       0.01 
freq.    1372.90  E(vib)   ...       0.01 
freq.    1377.06  E(vib)   ...       0.01 
freq.    1388.89  E(vib)   ...       0.00 
freq.    1393.81  E(vib)   ...       0.00 
freq.    1414.94  E(vib)   ...       0.00 
freq.    1430.89  E(vib)   ...       0.00 
freq.    1431.53  E(vib)   ...       0.00 
freq.    1431.69  E(vib)   ...       0.00 
freq.    1434.47  E(vib)   ...       0.00 
freq.    1437.37  E(vib)   ...       0.00 
freq.    1437.90  E(vib)   ...       0.00 
freq.    1438.91  E(vib)   ...       0.00 
freq.    1439.85  E(vib)   ...       0.00 
freq.    1441.36  E(vib)   ...       0.00 
freq.    1441.96  E(vib)   ...       0.00 
freq.    1442.36  E(vib)   ...       0.00 
freq.    1444.31  E(vib)   ...       0.00 
freq.    1444.85  E(vib)   ...       0.00 
freq.    1445.25  E(vib)   ...       0.00 
freq.    1446.75  E(vib)   ...       0.00 
freq.    1450.94  E(vib)   ...       0.00 
freq.    1451.25  E(vib)   ...       0.00 
freq.    1452.49  E(vib)   ...       0.00 
freq.    1454.07  E(vib)   ...       0.00 
freq.    1455.72  E(vib)   ...       0.00 
freq.    1458.31  E(vib)   ...       0.00 
freq.    1460.85  E(vib)   ...       0.00 
freq.    1463.38  E(vib)   ...       0.00 
freq.    1463.94  E(vib)   ...       0.00 
freq.    1465.05  E(vib)   ...       0.00 
freq.    1469.44  E(vib)   ...       0.00 
freq.    1472.49  E(vib)   ...       0.00 
freq.    1481.11  E(vib)   ...       0.00 
freq.    1507.10  E(vib)   ...       0.00 
freq.    1516.84  E(vib)   ...       0.00 
freq.    1541.44  E(vib)   ...       0.00 
freq.    1619.91  E(vib)   ...       0.00 
freq.    1657.18  E(vib)   ...       0.00 
freq.    1673.97  E(vib)   ...       0.00 
freq.    1680.01  E(vib)   ...       0.00 
freq.    1691.03  E(vib)   ...       0.00 
freq.    1699.50  E(vib)   ...       0.00 
freq.    1714.57  E(vib)   ...       0.00 
freq.    2903.56  E(vib)   ...       0.00 
freq.    2909.28  E(vib)   ...       0.00 
freq.    2926.78  E(vib)   ...       0.00 
freq.    2930.91  E(vib)   ...       0.00 
freq.    2935.45  E(vib)   ...       0.00 
freq.    2936.80  E(vib)   ...       0.00 
freq.    2939.09  E(vib)   ...       0.00 
freq.    2939.68  E(vib)   ...       0.00 
freq.    2940.52  E(vib)   ...       0.00 
freq.    2940.71  E(vib)   ...       0.00 
freq.    2949.62  E(vib)   ...       0.00 
freq.    2951.06  E(vib)   ...       0.00 
freq.    2951.78  E(vib)   ...       0.00 
freq.    2953.25  E(vib)   ...       0.00 
freq.    2957.13  E(vib)   ...       0.00 
freq.    2957.30  E(vib)   ...       0.00 
freq.    2960.51  E(vib)   ...       0.00 
freq.    2961.94  E(vib)   ...       0.00 
freq.    2964.50  E(vib)   ...       0.00 
freq.    2967.67  E(vib)   ...       0.00 
freq.    2969.38  E(vib)   ...       0.00 
freq.    2974.12  E(vib)   ...       0.00 
freq.    2975.18  E(vib)   ...       0.00 
freq.    2975.72  E(vib)   ...       0.00 
freq.    2975.98  E(vib)   ...       0.00 
freq.    2976.56  E(vib)   ...       0.00 
freq.    2978.68  E(vib)   ...       0.00 
freq.    2981.58  E(vib)   ...       0.00 
freq.    2982.30  E(vib)   ...       0.00 
freq.    2982.59  E(vib)   ...       0.00 
freq.    2983.02  E(vib)   ...       0.00 
freq.    2986.10  E(vib)   ...       0.00 
freq.    2988.17  E(vib)   ...       0.00 
freq.    2995.56  E(vib)   ...       0.00 
freq.    3001.15  E(vib)   ...       0.00 
freq.    3003.36  E(vib)   ...       0.00 
freq.    3008.52  E(vib)   ...       0.00 
freq.    3012.75  E(vib)   ...       0.00 
freq.    3013.32  E(vib)   ...       0.00 
freq.    3016.62  E(vib)   ...       0.00 
freq.    3021.19  E(vib)   ...       0.00 
freq.    3025.96  E(vib)   ...       0.00 
freq.    3026.70  E(vib)   ...       0.00 
freq.    3030.06  E(vib)   ...       0.00 
freq.    3031.59  E(vib)   ...       0.00 
freq.    3036.46  E(vib)   ...       0.00 
freq.    3037.65  E(vib)   ...       0.00 
freq.    3038.28  E(vib)   ...       0.00 
freq.    3044.66  E(vib)   ...       0.00 
freq.    3045.06  E(vib)   ...       0.00 
freq.    3045.32  E(vib)   ...       0.00 
freq.    3047.74  E(vib)   ...       0.00 
freq.    3050.72  E(vib)   ...       0.00 
freq.    3051.72  E(vib)   ...       0.00 
freq.    3051.84  E(vib)   ...       0.00 
freq.    3060.83  E(vib)   ...       0.00 
freq.    3066.39  E(vib)   ...       0.00 
freq.    3072.24  E(vib)   ...       0.00 
freq.    3356.24  E(vib)   ...       0.00 
freq.    3385.02  E(vib)   ...       0.00 
freq.    3470.89  E(vib)   ...       0.00 
freq.    3483.81  E(vib)   ...       0.00 
freq.    3491.42  E(vib)   ...       0.00 
freq.    3682.72  E(vib)   ...       0.00 

------------
INNER ENERGY
------------

The inner energy is: U= E(el) + E(ZPE) + E(vib) + E(rot) + E(trans)
    E(el)   - is the total energy from the electronic structure calculation
              = E(kin-el) + E(nuc-el) + E(el-el) + E(nuc-nuc)
    E(ZPE)  - the the zero temperature vibrational energy from the frequency calculation
    E(vib)  - the the finite temperature correction to E(ZPE) due to population
              of excited vibrational states
    E(rot)  - is the rotational thermal energy
    E(trans)- is the translational thermal energy

Summary of contributions to the inner energy U:
Electronic energy                ...  -2380.07356357 Eh
Zero point energy                ...      0.97705265 Eh     613.11 kcal/mol
Thermal vibrational correction   ...      0.05597500 Eh      35.12 kcal/mol
Thermal rotational correction    ...      0.00141627 Eh       0.89 kcal/mol
Thermal translational correction ...      0.00141627 Eh       0.89 kcal/mol
-----------------------------------------------------------------------
Total thermal energy                  -2379.03770337 Eh


Summary of corrections to the electronic energy:
(perhaps to be used in another calculation)
Total thermal correction                  0.05880754 Eh      36.90 kcal/mol
Non-thermal (ZPE) correction              0.97705265 Eh     613.11 kcal/mol
-----------------------------------------------------------------------
Total correction                          1.03586020 Eh     650.01 kcal/mol


--------
ENTHALPY
--------

The enthalpy is H = U + kB*T
                kB is Boltzmann's constant
Total free energy                 ...  -2379.03770337 Eh 
Thermal Enthalpy correction       ...      0.00094421 Eh       0.59 kcal/mol
-----------------------------------------------------------------------
Total Enthalpy                    ...  -2379.03675916 Eh


Note: Only C1 symmetry has been detected, increase convergence thresholds 
      if your molecule has a higher symmetry. Symmetry factor of 1.0 is   
      used for the rotational entropy correction. 
 

Note: Rotational entropy computed according to Herzberg 
Infrared and Raman Spectra, Chapter V,1, Van Nostrand Reinhold, 1945 
Point Group:  C1, Symmetry Number:   1  
Rotational constants in cm-1:     0.002320     0.001434     0.001142 

Vibrational entropy computed according to the QRRHO of S. Grimme
Chem.Eur.J. 2012 18 9955


-------
ENTROPY
-------

The entropy contributions are T*S = T*(S(el)+S(vib)+S(rot)+S(trans))
     S(el)   - electronic entropy
     S(vib)  - vibrational entropy
     S(rot)  - rotational entropy
     S(trans)- translational entropy
The entropies will be listed as mutliplied by the temperature to get
units of energy

Electronic entropy                ...      0.00000000 Eh      0.00 kcal/mol
Vibrational entropy               ...      0.10293461 Eh     64.59 kcal/mol
Rotational entropy                ...      0.01866368 Eh     11.71 kcal/mol
Translational entropy             ...      0.02166895 Eh     13.60 kcal/mol
-----------------------------------------------------------------------
Final entropy term                ...      0.14326724 Eh     89.90 kcal/mol

In case the symmetry of your molecule has not been determined correctly
or in case you have a reason to use a different symmetry number we print 
out the resulting rotational entropy values for sn=1,12 :
 --------------------------------------------------------
|  sn= 1 | S(rot)=       0.01866368 Eh     11.71 kcal/mol|
|  sn= 2 | S(rot)=       0.01800923 Eh     11.30 kcal/mol|
|  sn= 3 | S(rot)=       0.01762639 Eh     11.06 kcal/mol|
|  sn= 4 | S(rot)=       0.01735477 Eh     10.89 kcal/mol|
|  sn= 5 | S(rot)=       0.01714408 Eh     10.76 kcal/mol|
|  sn= 6 | S(rot)=       0.01697194 Eh     10.65 kcal/mol|
|  sn= 7 | S(rot)=       0.01682639 Eh     10.56 kcal/mol|
|  sn= 8 | S(rot)=       0.01670031 Eh     10.48 kcal/mol|
|  sn= 9 | S(rot)=       0.01658910 Eh     10.41 kcal/mol|
|  sn=10 | S(rot)=       0.01648963 Eh     10.35 kcal/mol|
|  sn=11 | S(rot)=       0.01639964 Eh     10.29 kcal/mol|
|  sn=12 | S(rot)=       0.01631748 Eh     10.24 kcal/mol|
 --------------------------------------------------------


-------------------
GIBBS FREE ENERGY
-------------------

The Gibbs free energy is G = H - T*S

Total enthalpy                    ...  -2379.03675916 Eh 
Total entropy correction          ...     -0.14326724 Eh    -89.90 kcal/mol
-----------------------------------------------------------------------
Final Gibbs free energy         ...  -2379.18002640 Eh

For completeness - the Gibbs free energy minus the electronic energy
G-E(el)                           ...      0.89353717 Eh    560.70 kcal/mol

--------------------------------------------------------------------------
WARNING: No preset parameters were found for the device that Open MPI
detected:

  Local host:            eu-g1-029-2
  Device name:           mlx5_0
  Device vendor ID:      0x02c9
  Device vendor part ID: 4123

Default device parameters will be used, which may result in lower
performance.  You can edit any of the files specified by the
btl_openib_device_param_files MCA parameter to set values for your
device.

NOTE: You can turn off this warning by setting the MCA parameter
      btl_openib_warn_no_device_params_found to 0.
--------------------------------------------------------------------------
--------------------------------------------------------------------------
WARNING: There was an error initializing an OpenFabrics device.

  Local host:   eu-g1-029-2
  Local device: mlx5_0
--------------------------------------------------------------------------

Timings for individual modules:

Sum of individual times         ...    29067.273 sec (= 484.455 min)
GTO integral calculation        ...       49.426 sec (=   0.824 min)   0.2 %
SCF iterations                  ...     1087.240 sec (=  18.121 min)   3.7 %
SCF Gradient evaluation         ...      497.002 sec (=   8.283 min)   1.7 %
Geometry relaxation             ...       21.292 sec (=   0.355 min)   0.1 %
Analytical frequency calculation...    27412.313 sec (= 456.872 min)  94.3 %
                             ****ORCA TERMINATED NORMALLY****
TOTAL RUN TIME: 0 days 8 hours 4 minutes 56 seconds 43 msec
