
                                 *****************
                                 * O   R   C   A *
                                 *****************

           --- An Ab Initio, DFT and Semiempirical electronic structure package ---

                  #######################################################
                  #                        -***-                        #
                  #          Department of theory and spectroscopy      #
                  #               Directorship: Frank Neese             #
                  #        Max Planck Institute fuer Kohlenforschung    #
                  #                Kaiser Wilhelm Platz 1               #
                  #                 D-45470 Muelheim/Ruhr               #
                  #                      Germany                        #
                  #                                                     #
                  #                  All rights reserved                #
                  #                        -***-                        #
                  #######################################################


                         Program Version 4.2.0 -  RELEASE  -


 With contributions from (in alphabetic order):
   Daniel Aravena         : Magnetic Suceptibility
   Michael Atanasov       : Ab Initio Ligand Field Theory (pilot matlab implementation)
   Alexander A. Auer      : GIAO ZORA, VPT2
   Ute Becker             : Parallelization
   Giovanni Bistoni       : ED, misc. LED, open-shell LED, HFLED
   Martin Brehm           : Molecular dynamics
   Dmytro Bykov           : SCF Hessian
   Vijay G. Chilkuri      : MRCI spin determinant printing, contributions to CSF-ICE
   Dipayan Datta          : RHF DLPNO-CCSD density
   Achintya Kumar Dutta   : EOM-CC, STEOM-CC
   Dmitry Ganyushin       : Spin-Orbit,Spin-Spin,Magnetic field MRCI
   Miquel Garcia          : C-PCM Hessian, Gaussian charge scheme
   Yang Guo               : DLPNO-NEVPT2, CIM, IAO-localization
   Andreas Hansen         : Spin unrestricted coupled pair/coupled cluster methods
   Benjamin Helmich-Paris : CASSCF linear response (MC-RPA)
   Lee Huntington         : MR-EOM, pCC
   Robert Izsak           : Overlap fitted RIJCOSX, COSX-SCS-MP3, EOM
   Christian Kollmar      : KDIIS, OOCD, Brueckner-CCSD(T), CCSD density
   Simone Kossmann        : Meta GGA functionals, TD-DFT gradient, OOMP2, MP2 Hessian
   Martin Krupicka        : AUTO-CI
   Lucas Lang             : DCDCAS
   Dagmar Lenk            : GEPOL surface, SMD
   Dimitrios Liakos       : Extrapolation schemes; Compound Job, initial MDCI parallelization
   Dimitrios Manganas     : Further ROCIS development; embedding schemes
   Dimitrios Pantazis     : SARC Basis sets
   Taras Petrenko         : DFT Hessian,TD-DFT gradient, ASA, ECA, R-Raman, ABS, FL, XAS/XES, NRVS
   Peter Pinski           : DLPNO-MP2, DLPNO-MP2 Gradient
   Christoph Reimann      : Effective Core Potentials
   Marius Retegan         : Local ZFS, SOC
   Christoph Riplinger    : Optimizer, TS searches, QM/MM, DLPNO-CCSD(T), (RO)-DLPNO pert. Triples
   Tobias Risthaus        : Range-separated hybrids, TD-DFT gradient, RPA, STAB
   Michael Roemelt        : Original ROCIS implementation
   Masaaki Saitow         : Open-shell DLPNO-CCSD energy and density
   Barbara Sandhoefer     : DKH picture change effects
   Avijit Sen             : IP-ROCIS
   Kantharuban Sivalingam : CASSCF convergence, NEVPT2, FIC-MRCI
   Bernardo de Souza      : ESD, SOC TD-DFT
   Georgi Stoychev        : AutoAux, RI-MP2 NMR
   Willem Van den Heuvel  : Paramagnetic NMR
   Boris Wezisla          : Elementary symmetry handling
   Frank Wennmohs         : Technical directorship


 We gratefully acknowledge several colleagues who have allowed us to
 interface, adapt or use parts of their codes:
   Stefan Grimme, W. Hujo, H. Kruse,             : VdW corrections, initial TS optimization,
                  C. Bannwarth                     DFT functionals, gCP, sTDA/sTD-DF
   Ed Valeev, F. Pavosevic, A. Kumar             : LibInt (2-el integral package), F12 methods
   Garnet Chan, S. Sharma, J. Yang, R. Olivares  : DMRG
   Ulf Ekstrom                                   : XCFun DFT Library
   Mihaly Kallay                                 : mrcc  (arbitrary order and MRCC methods)
   Andreas Klamt, Michael Diedenhofen            : otool_cosmo (COSMO solvation model)
   Jiri Pittner, Ondrej Demel                    : Mk-CCSD
   Frank Weinhold                                : gennbo (NPA and NBO analysis)
   Christopher J. Cramer and Donald G. Truhlar   : smd solvation model
   Lars Goerigk                                  : TD-DFT with DH, B97 family of functionals
   V. Asgeirsson, H. Jonsson                     : NEB implementation
   FAccTs GmbH                                   : IRC, NEB, NEB-TS, Multilevel, MM, QM/MM, CI optimization
   S Lehtola, MJT Oliveira, MAL Marques          : LibXC Library


 Your calculation uses the libint2 library for the computation of 2-el integrals
 For citations please refer to: http://libint.valeyev.net

 Your ORCA version has been built with support for libXC version: 4.2.3
 For citations please refer to: https://tddft.org/programs/libxc/

 This ORCA versions uses:
   CBLAS   interface :  Fast vector & matrix operations
   LAPACKE interface :  Fast linear algebra routines
   SCALAPACK package :  Parallel linear algebra routines




***************************************
The coordinates will be read from file: 25.xyz
***************************************


Your calculation utilizes the atom-pairwise dispersion correction
with the Becke-Johnson damping scheme (D3BJ)
Cite in your paper:
S.Grimme, S.Ehrlich, L.Goerigk, J Comput Chem, (2011), 32, 1456–1465 
S.Grimme, J.Antony, S.Ehrlich and H.Krieg, J.Chem.Phys., 132, (2010), 154104 
   

----- Orbital basis set information -----
Your calculation utilizes the basis: def2-TZVP
   F. Weigend and R. Ahlrichs, Phys. Chem. Chem. Phys. 7, 3297 (2005).

----- AuxJ basis set information -----
Your calculation utilizes the auxiliary basis: def2/J
   F. Weigend, Phys. Chem. Chem. Phys. 8, 1057 (2006).

================================================================================
                                        WARNINGS
                       Please study these warnings very carefully!
================================================================================


WARNING: Geometry Optimization
  ===> : Switching off AutoStart
         For restart on a previous wavefunction, please use MOREAD

INFO   : the flag for use of LIBINT has been found!

================================================================================
                                       INPUT FILE
================================================================================
NAME = 25.inp
|  1> !RI BP86 def2-tzvp def2/J D3BJ VeryTightSCF VeryTightOpt Grid5 FinalGrid6 freq
|  2> %maxcore 4000
|  3> %pal nprocs 24
|  4> end
|  5> * xyzfile 0 1 25.xyz 
|  6> 
|  7>                          ****END OF INPUT****
================================================================================

                       *****************************
                       * Geometry Optimization Run *
                       *****************************

Geometry optimization settings:
Update method            Update   .... BFGS
Choice of coordinates    CoordSys .... Z-matrix Internals
Initial Hessian          InHess   .... Almoef's Model

Convergence Tolerances:
Energy Change            TolE     ....  2.0000e-07 Eh
Max. Gradient            TolMAXG  ....  3.0000e-05 Eh/bohr
RMS Gradient             TolRMSG  ....  8.0000e-06 Eh/bohr
Max. Displacement        TolMAXD  ....  2.0000e-04 bohr
RMS Displacement         TolRMSD  ....  1.0000e-04 bohr
Strict Convergence                ....  False
------------------------------------------------------------------------------
                        ORCA OPTIMIZATION COORDINATE SETUP
------------------------------------------------------------------------------

The optimization will be done in new redundant internal coordinates
Making redundant internal coordinates   ...  (new redundants) done
Evaluating the initial hessian          ...  (Almloef) done
Evaluating the coordinates              ...  done
Calculating the B-matrix                .... done
Calculating the G-matrix                .... done
Diagonalizing the G-matrix              .... done
Small eigenvalue found = 1.302e-03
Small eigenvalue found = 1.995e-03
Small eigenvalue found = 3.712e-03
Small eigenvalue found = 4.627e-03
Small eigenvalue found = 5.271e-03
Small eigenvalue found = 6.445e-03
Small eigenvalue found = 8.110e-03
Small eigenvalue found = 9.033e-03
Small eigenvalue found = 1.076e-02
Small eigenvalue found = 1.186e-02
Small eigenvalue found = 1.375e-02
Small eigenvalue found = 1.573e-02
Small eigenvalue found = 1.619e-02
Small eigenvalue found = 1.885e-02
Small eigenvalue found = 1.906e-02
Small eigenvalue found = 2.246e-02
Small eigenvalue found = 2.505e-02
Small eigenvalue found = 2.623e-02
The first mode is                       ....  327
The number of degrees of freedom        ....  339

    -----------------------------------------------------------------
                    Redundant Internal Coordinates


    -----------------------------------------------------------------
         Definition                    Initial Value    Approx d2E/dq
    -----------------------------------------------------------------
      1. B(C   1,O   0)                  1.2301         1.006969   
      2. B(C   2,C   1)                  1.5418         0.357788   
      3. B(C   3,C   2)                  1.5385         0.362028   
      4. B(C   4,C   3)                  1.5365         0.364791   
      5. B(C   5,C   4)                  1.5317         0.371199   
      6. B(N   6,C   5)                  1.4729         0.412640   
      7. B(N   6,C   2)                  1.4774         0.405845   
      8. B(C   7,N   6)                  1.3479         0.653096   
      9. B(O   8,C   7)                  1.2475         0.944536   
     10. B(N   9,C   1)                  1.3610         0.622561   
     11. B(C  10,N   9)                  1.4675         0.420891   
     12. B(C  11,C  10)                  1.5488         0.348665   
     13. B(N  12,C  11)                  1.3668         0.609278   
     14. B(C  13,N  12)                  1.4539         0.442486   
     15. B(C  14,C  13)                  1.5323         0.370480   
     16. B(N  15,C  14)                  1.3592         0.626750   
     17. B(C  16,N  15)                  1.4472         0.453565   
     18. B(C  17,C  16)                  1.5331         0.369353   
     19. B(C  18,C  17)                  1.5418         0.357730   
     20. B(C  19,C  18)                  1.5520         0.344561   
     21. B(N  20,C  19)                  1.3609         0.622744   
     22. B(C  21,N  20)                  1.4624         0.428977   
     23. B(C  22,C  21)                  1.5418         0.357728   
     24. B(N  23,C  22)                  1.3577         0.630174   
     25. B(C  24,N  23)                  1.4479         0.452317   
     26. B(C  24,C   7)                  1.5281         0.376191   
     27. B(C  25,C  24)                  1.5410         0.358825   
     28. B(O  26,C  22)                  1.2330         0.996127   
     29. B(C  27,C  21)                  1.5404         0.359560   
     30. B(C  28,C  27)                  1.5372         0.363859   
     31. B(C  29,C  28)                  1.5332         0.369248   
     32. B(C  30,C  28)                  1.5319         0.370996   
     33. B(O  31,C  19)                  1.2326         0.997624   
     34. B(C  32,C  18)                  1.5462         0.351979   
     35. B(C  33,C  32)                  1.5155         0.393979   
     36. B(C  34,C  33)                  1.5304         0.372989   
     37. B(C  35,C  34)                  1.5311         0.372019   
     38. B(C  36,C  35)                  1.5289         0.375078   
     39. B(C  37,C  36)                  1.5298         0.373851   
     40. B(C  38,C  37)                  1.5303         0.373230   
     41. B(C  39,C  38)                  1.5297         0.373990   
     42. B(C  40,C  39)                  1.5304         0.373017   
     43. B(C  41,C  40)                  1.5296         0.374142   
     44. B(O  42,C  32)                  1.2212         1.040495   
     45. B(O  43,C  17)                  1.4399         0.465909   
     46. B(O  44,C  14)                  1.2414         0.966072   
     47. B(C  45,C  13)                  1.5422         0.357146   
     48. B(C  46,C  45)                  1.5292         0.374694   
     49. B(O  47,C  11)                  1.2281         1.014485   
     50. B(C  48,C  10)                  1.5408         0.359048   
     51. B(C  49,C  48)                  1.5310         0.372146   
     52. B(C  50,C  48)                  1.5305         0.372876   
     53. B(H  51,C   2)                  1.0995         0.347761   
     54. B(H  52,C   3)                  1.0999         0.347282   
     55. B(H  53,C   3)                  1.0963         0.351833   
     56. B(H  54,C   4)                  1.0969         0.351067   
     57. B(H  55,C   4)                  1.0972         0.350710   
     58. B(H  56,C   5)                  1.0975         0.350331   
     59. B(H  57,C   5)                  1.1025         0.343943   
     60. B(H  58,N   9)                  1.0162         0.422965   
     61. B(H  59,C  10)                  1.1036         0.342515   
     62. B(H  60,N  12)                  1.0242         0.410674   
     63. B(H  61,C  13)                  1.1049         0.340958   
     64. B(H  62,N  15)                  1.0212         0.415211   
     65. B(H  63,C  16)                  1.0998         0.347416   
     66. B(H  64,C  16)                  1.1069         0.338385   
     67. B(H  65,C  17)                  1.1085         0.336473   
     68. B(H  66,C  18)                  1.0996         0.347560   
     69. B(H  67,N  20)                  1.0208         0.415806   
     70. B(H  68,C  21)                  1.1007         0.346235   
     71. B(H  69,N  23)                  1.0187         0.419087   
     72. B(H  70,C  24)                  1.1014         0.345334   
     73. B(H  71,C  25)                  1.0964         0.351788   
     74. B(H  72,C  25)                  1.0982         0.349359   
     75. B(H  73,C  25)                  1.0984         0.349165   
     76. B(H  74,C  27)                  1.1007         0.346245   
     77. B(H  75,C  27)                  1.1044         0.341547   
     78. B(H  76,C  28)                  1.0993         0.348069   
     79. B(H  77,O  44)                  4.5552         0.000001   
     80. B(H  77,C  29)                  1.1001         0.347028   
     81. B(H  78,C  29)                  1.0998         0.347388   
     82. B(H  79,C  29)                  1.1025         0.343938   
     83. B(H  80,C  30)                  1.0990         0.348429   
     84. B(H  81,C  30)                  1.1026         0.343835   
     85. B(H  82,C  30)                  1.0998         0.347405   
     86. B(H  83,C  33)                  1.1012         0.345530   
     87. B(H  84,C  33)                  1.1075         0.337705   
     88. B(H  85,O   8)                  2.2976         0.003818   
     89. B(H  85,C  34)                  1.1005         0.346411   
     90. B(H  86,C  34)                  1.1023         0.344224   
     91. B(H  87,C  35)                  1.1042         0.341752   
     92. B(H  88,C  35)                  1.1004         0.346633   
     93. B(H  89,H  58)                  2.0209         0.002256   
     94. B(H  89,C  36)                  1.1068         0.338597   
     95. B(H  90,C  36)                  1.1041         0.341978   
     96. B(H  91,C  37)                  1.1034         0.342851   
     97. B(H  92,C  37)                  1.1042         0.341831   
     98. B(H  93,C  38)                  1.1057         0.339958   
     99. B(H  94,C  38)                  1.1043         0.341713   
    100. B(H  95,C  39)                  1.1041         0.341923   
    101. B(H  96,C  39)                  1.1036         0.342501   
    102. B(H  97,H  53)                  4.1069         0.000001   
    103. B(H  97,C  40)                  1.1036         0.342496   
    104. B(H  98,C  40)                  1.1036         0.342605   
    105. B(H  99,C  41)                  1.0993         0.347993   
    106. B(H 100,C  41)                  1.1005         0.346424   
    107. B(H 101,C  41)                  1.1006         0.346341   
    108. B(H 102,O  43)                  0.9731         0.495609   
    109. B(H 103,H  70)                  2.5828         0.000286   
    110. B(H 103,C  45)                  1.1009         0.345935   
    111. B(H 104,C  45)                  1.0997         0.347553   
    112. B(H 105,C  46)                  1.0996         0.347682   
    113. B(H 106,C  46)                  1.0964         0.351675   
    114. B(H 107,C  46)                  1.1005         0.346527   
    115. B(H 108,C  48)                  1.1014         0.345390   
    116. B(H 109,C  49)                  1.1009         0.345913   
    117. B(H 110,H  96)                  2.2839         0.000858   
    118. B(H 110,C  49)                  1.1007         0.346196   
    119. B(H 111,C  49)                  1.0991         0.348265   
    120. B(H 112,C  50)                  1.0950         0.353503   
    121. B(H 113,C  50)                  1.0999         0.347261   
    122. B(H 114,C  50)                  1.0998         0.347414   
    123. A(O   0,C   1,N   9)          124.4481         0.468143   
    124. A(C   2,C   1,N   9)          114.6769         0.391467   
    125. A(O   0,C   1,C   2)          120.8738         0.426244   
    126. A(C   1,C   2,H  51)          110.3562         0.320199   
    127. A(N   6,C   2,H  51)          108.9151         0.324931   
    128. A(C   1,C   2,N   6)          110.0248         0.363548   
    129. A(C   1,C   2,C   3)          111.7765         0.358760   
    130. A(C   3,C   2,H  51)          112.3336         0.320816   
    131. A(C   3,C   2,N   6)          103.1744         0.364281   
    132. A(C   4,C   3,H  53)          112.7304         0.321828   
    133. A(C   4,C   3,H  52)          110.9163         0.321143   
    134. A(C   2,C   3,C   4)          103.8752         0.359946   
    135. A(C   2,C   3,H  53)          111.6438         0.321427   
    136. A(C   2,C   3,H  52)          109.3237         0.320744   
    137. A(H  52,C   3,H  53)          108.2964         0.288141   
    138. A(H  54,C   4,H  55)          109.1286         0.288486   
    139. A(C   3,C   4,H  55)          113.0323         0.321659   
    140. A(C   3,C   4,C   5)          103.3823         0.361484   
    141. A(C   3,C   4,H  54)          109.3692         0.321713   
    142. A(C   5,C   4,H  55)          112.0536         0.322578   
    143. A(C   5,C   4,H  54)          109.7288         0.322632   
    144. A(H  56,C   5,H  57)          108.3707         0.287514   
    145. A(C   4,C   5,N   6)          103.2034         0.366887   
    146. A(C   4,C   5,H  56)          112.9259         0.322521   
    147. A(N   6,C   5,H  57)          110.3231         0.325229   
    148. A(N   6,C   5,H  56)          110.5638         0.326214   
    149. A(C   4,C   5,H  57)          111.4020         0.321550   
    150. A(C   5,N   6,C   7)          127.5230         0.402196   
    151. A(C   2,N   6,C   7)          119.7874         0.401021   
    152. A(C   2,N   6,C   5)          112.5981         0.370223   
    153. A(O   8,C   7,C  24)          119.9435         0.425189   
    154. A(N   6,C   7,O   8)          121.2423         0.466762   
    155. A(N   6,C   7,C  24)          118.7296         0.398253   
    156. A(C   1,N   9,C  10)          123.8792         0.400212   
    157. A(C  10,N   9,H  58)          116.8190         0.334763   
    158. A(C   1,N   9,H  58)          115.9104         0.357533   
    159. A(C  48,C  10,H  59)          107.3031         0.319588   
    160. A(C  11,C  10,H  59)          104.9404         0.318061   
    161. A(N   9,C  10,C  11)          112.0720         0.364206   
    162. A(N   9,C  10,C  48)          114.1234         0.366040   
    163. A(N   9,C  10,H  59)          104.6447         0.326066   
    164. A(C  11,C  10,C  48)          112.8440         0.356686   
    165. A(N  12,C  11,O  47)          123.5726         0.466932   
    166. A(C  10,C  11,O  47)          122.0418         0.424843   
    167. A(C  10,C  11,N  12)          114.1883         0.388239   
    168. A(C  13,N  12,H  60)          117.2985         0.335909   
    169. A(C  11,N  12,C  13)          120.8478         0.402223   
    170. A(C  11,N  12,H  60)          118.7553         0.354447   
    171. A(C  14,C  13,C  45)          112.3172         0.360062   
    172. A(N  12,C  13,H  61)          104.8484         0.328519   
    173. A(C  14,C  13,H  61)          106.1089         0.320990   
    174. A(N  12,C  13,C  14)          111.7085         0.371190   
    175. A(C  45,C  13,H  61)          109.0509         0.319073   
    176. A(N  12,C  13,C  45)          112.3031         0.368859   
    177. A(C  13,C  14,N  15)          115.8780         0.394325   
    178. A(N  15,C  14,O  44)          122.1636         0.465172   
    179. A(C  13,C  14,O  44)          121.9529         0.425740   
    180. A(C  14,N  15,H  62)          118.1079         0.356817   
    181. A(C  16,N  15,H  62)          118.7170         0.337913   
    182. A(C  14,N  15,C  16)          121.3242         0.406003   
    183. A(H  63,C  16,H  64)          105.3988         0.286409   
    184. A(C  17,C  16,H  64)          106.3173         0.320433   
    185. A(N  15,C  16,H  63)          107.3893         0.330889   
    186. A(C  17,C  16,H  63)          110.5005         0.321817   
    187. A(N  15,C  16,C  17)          116.8541         0.372579   
    188. A(N  15,C  16,H  64)          109.8115         0.329451   
    189. A(O  43,C  17,H  65)          109.1960         0.330606   
    190. A(C  18,C  17,H  65)          105.7086         0.318470   
    191. A(C  16,C  17,H  65)          104.6495         0.320137   
    192. A(C  16,C  17,C  18)          121.3803         0.359976   
    193. A(C  18,C  17,O  43)          103.7938         0.372250   
    194. A(C  16,C  17,O  43)          111.6409         0.374307   
    195. A(C  19,C  18,H  66)          101.8235         0.318206   
    196. A(C  17,C  18,H  66)          104.7312         0.320160   
    197. A(C  17,C  18,C  32)          115.8305         0.357036   
    198. A(C  17,C  18,C  19)          120.0071         0.355747   
    199. A(C  19,C  18,C  32)          107.7231         0.354771   
    200. A(C  32,C  18,H  66)          104.5416         0.319313   
    201. A(C  18,C  19,N  20)          118.0928         0.388918   
    202. A(N  20,C  19,O  31)          122.7273         0.467369   
    203. A(C  18,C  19,O  31)          119.0380         0.422676   
    204. A(C  19,N  20,H  67)          122.1616         0.356515   
    205. A(C  19,N  20,C  21)          122.1286         0.401576   
    206. A(C  21,N  20,H  67)          115.0173         0.334872   
    207. A(C  27,C  21,H  68)          110.3245         0.320227   
    208. A(C  22,C  21,H  68)          105.7185         0.319960   
    209. A(N  20,C  21,H  68)          105.7479         0.327672   
    210. A(N  20,C  21,C  22)          112.1078         0.367004   
    211. A(C  22,C  21,C  27)          113.0790         0.358332   
    212. A(N  20,C  21,C  27)          109.5451         0.367326   
    213. A(C  21,C  22,N  23)          115.4315         0.392288   
    214. A(C  21,C  22,O  26)          122.0441         0.425406   
    215. A(N  23,C  22,O  26)          122.4996         0.468257   
    216. A(C  22,N  23,C  24)          122.6781         0.406197   
    217. A(C  24,N  23,H  69)          116.0474         0.338281   
    218. A(C  22,N  23,H  69)          121.1893         0.357712   
    219. A(C  25,C  24,H  70)          109.0052         0.319984   
    220. A(N  23,C  24,H  70)          108.5690         0.330409   
    221. A(C   7,C  24,H  70)          110.9482         0.322468   
    222. A(N  23,C  24,C  25)          111.7577         0.370553   
    223. A(C   7,C  24,N  23)          106.4755         0.373581   
    224. A(C   7,C  24,C  25)          110.0699         0.361291   
    225. A(H  71,C  25,H  73)          109.2263         0.288379   
    226. A(C  24,C  25,H  73)          109.9173         0.320561   
    227. A(H  71,C  25,H  72)          108.6445         0.288404   
    228. A(C  24,C  25,H  72)          111.4600         0.320590   
    229. A(C  24,C  25,H  71)          108.6881         0.320954   
    230. A(H  72,C  25,H  73)          108.8681         0.288067   
    231. A(C  28,C  27,H  75)          108.2390         0.320136   
    232. A(C  21,C  27,C  28)          116.9733         0.359370   
    233. A(H  74,C  27,H  75)          106.3988         0.286674   
    234. A(C  21,C  27,H  75)          106.1535         0.319515   
    235. A(C  28,C  27,H  74)          109.9619         0.320851   
    236. A(C  21,C  27,H  74)          108.5612         0.320228   
    237. A(C  29,C  28,C  30)          110.8663         0.362200   
    238. A(C  27,C  28,C  30)          112.2257         0.361293   
    239. A(C  27,C  28,C  29)          108.9120         0.361002   
    240. A(C  30,C  28,H  76)          108.0995         0.322150   
    241. A(C  29,C  28,H  76)          108.7843         0.321901   
    242. A(C  27,C  28,H  76)          107.8499         0.321127   
    243. A(C  28,C  29,H  79)          110.9925         0.321272   
    244. A(H  78,C  29,H  79)          107.6597         0.287134   
    245. A(H  77,C  29,H  79)          107.7074         0.287088   
    246. A(H  77,C  29,H  78)          107.9496         0.287536   
    247. A(C  28,C  29,H  78)          111.0370         0.321798   
    248. A(C  28,C  29,H  77)          111.3326         0.321743   
    249. A(H  81,C  30,H  82)          107.6499         0.287123   
    250. A(H  80,C  30,H  82)          107.2401         0.287719   
    251. A(C  28,C  30,H  82)          110.6589         0.322049   
    252. A(H  80,C  30,H  81)          108.0502         0.287255   
    253. A(C  28,C  30,H  81)          111.1264         0.321505   
    254. A(C  28,C  30,H  80)          111.9262         0.322205   
    255. A(C  33,C  32,O  42)          122.9608         0.436244   
    256. A(C  18,C  32,O  42)          123.3347         0.427497   
    257. A(C  18,C  32,C  33)          113.7045         0.362956   
    258. A(C  32,C  33,C  34)          115.0289         0.366575   
    259. A(C  34,C  33,H  84)          111.3408         0.320841   
    260. A(H  83,C  33,H  84)          105.2615         0.286076   
    261. A(C  32,C  33,H  84)          105.6138         0.323732   
    262. A(C  34,C  33,H  83)          111.1814         0.322046   
    263. A(C  32,C  33,H  83)          107.8064         0.324952   
    264. A(C  33,C  34,C  35)          115.4588         0.362995   
    265. A(H  85,C  34,H  86)          106.7577         0.287045   
    266. A(C  35,C  34,H  86)          109.2653         0.321710   
    267. A(C  33,C  34,H  86)          108.2496         0.321847   
    268. A(C  35,C  34,H  85)          108.5804         0.322043   
    269. A(C  33,C  34,H  85)          108.1871         0.322181   
    270. A(C  34,C  35,C  36)          111.8378         0.363342   
    271. A(H  87,C  35,H  88)          106.5196         0.286751   
    272. A(C  36,C  35,H  88)          109.2555         0.322510   
    273. A(C  34,C  35,H  88)          109.0440         0.322077   
    274. A(C  36,C  35,H  87)          109.9271         0.321761   
    275. A(C  34,C  35,H  87)          110.1053         0.321330   
    276. A(C  35,C  36,C  37)          114.1486         0.363647   
    277. A(H  89,C  36,H  90)          104.7996         0.285733   
    278. A(C  37,C  36,H  90)          109.5152         0.321624   
    279. A(C  35,C  36,H  90)          110.1036         0.321796   
    280. A(C  37,C  36,H  89)          109.8904         0.321101   
    281. A(C  35,C  36,H  89)          107.9582         0.321273   
    282. A(C  36,C  37,C  38)          113.4515         0.363340   
    283. A(H  91,C  37,H  92)          105.5489         0.286271   
    284. A(C  38,C  37,H  92)          108.9665         0.321513   
    285. A(C  36,C  37,H  92)          109.5414         0.321601   
    286. A(C  38,C  37,H  91)          109.6799         0.321670   
    287. A(C  36,C  37,H  91)          109.3501         0.321758   
    288. A(C  37,C  38,C  39)          113.6969         0.363363   
    289. A(H  93,C  38,H  94)          105.8775         0.285878   
    290. A(C  39,C  38,H  94)          109.4331         0.321602   
    291. A(C  37,C  38,H  94)          109.5888         0.321495   
    292. A(C  39,C  38,H  93)          108.9835         0.321331   
    293. A(C  37,C  38,H  93)          108.9627         0.321224   
    294. A(C  38,C  39,C  40)          113.4607         0.363328   
    295. A(H  95,C  39,H  96)          105.8623         0.286237   
    296. A(C  40,C  39,H  96)          109.1550         0.321586   
    297. A(C  38,C  39,H  96)          109.3250         0.321724   
    298. A(C  40,C  39,H  95)          109.4935         0.321498   
    299. A(C  38,C  39,H  95)          109.2641         0.321635   
    300. A(C  39,C  40,C  41)          113.0990         0.363353   
    301. A(H  97,C  40,H  98)          105.9975         0.286326   
    302. A(C  41,C  40,H  98)          109.7157         0.321761   
    303. A(C  39,C  40,H  98)          109.2576         0.321602   
    304. A(C  41,C  40,H  97)          109.5792         0.321744   
    305. A(C  39,C  40,H  97)          108.9423         0.321586   
    306. A(H 100,C  41,H 101)          107.4851         0.287322   
    307. A(H  99,C  41,H 101)          107.7019         0.287525   
    308. A(C  40,C  41,H 101)          111.0929         0.322333   
    309. A(H  99,C  41,H 100)          107.7087         0.287536   
    310. A(C  40,C  41,H 100)          111.0098         0.322346   
    311. A(C  40,C  41,H  99)          111.6549         0.322585   
    312. A(C  17,O  43,H 102)          107.8079         0.349667   
    313. A(C  13,C  45,C  46)          113.6343         0.360757   
    314. A(C  46,C  45,H 104)          109.8970         0.322596   
    315. A(C  13,C  45,H 104)          106.4872         0.320073   
    316. A(C  46,C  45,H 103)          109.8006         0.322349   
    317. A(C  13,C  45,H 103)          108.8623         0.319829   
    318. A(H 103,C  45,H 104)          107.9674         0.287415   
    319. A(H 106,C  46,H 107)          108.5288         0.288023   
    320. A(H 105,C  46,H 107)          107.7028         0.287509   
    321. A(C  45,C  46,H 107)          110.6228         0.322439   
    322. A(H 105,C  46,H 106)          108.2781         0.288172   
    323. A(C  45,C  46,H 106)          111.0165         0.323220   
    324. A(C  45,C  46,H 105)          110.5862         0.322615   
    325. A(C  50,C  48,H 108)          108.0122         0.322009   
    326. A(C  49,C  48,H 108)          109.1528         0.321906   
    327. A(C  10,C  48,H 108)          104.8025         0.320025   
    328. A(C  49,C  48,C  50)          110.8874         0.362997   
    329. A(C  10,C  48,C  50)          113.7409         0.360784   
    330. A(C  10,C  48,C  49)          109.9732         0.360664   
    331. A(H 110,C  49,H 111)          107.4743         0.287541   
    332. A(H 109,C  49,H 111)          107.8579         0.287504   
    333. A(C  48,C  49,H 111)          110.7613         0.322343   
    334. A(H 109,C  49,H 110)          107.9878         0.287237   
    335. A(C  48,C  49,H 110)          110.6317         0.322029   
    336. A(C  48,C  49,H 109)          111.9583         0.321985   
    337. A(H 113,C  50,H 114)          107.6787         0.287569   
    338. A(H 112,C  50,H 114)          108.2276         0.288372   
    339. A(C  48,C  50,H 114)          111.0171         0.322317   
    340. A(H 112,C  50,H 113)          108.7612         0.288352   
    341. A(C  48,C  50,H 113)          109.6600         0.322294   
    342. A(C  48,C  50,H 112)          111.3914         0.323237   
    343. D(H  51,C   2,C   1,N   9)     -4.7732         0.009636   
    344. D(C   3,C   2,C   1,N   9)   -130.5536         0.009636   
    345. D(N   6,C   2,C   1,N   9)    115.4410         0.009636   
    346. D(N   6,C   2,C   1,O   0)    -64.1826         0.009636   
    347. D(C   3,C   2,C   1,O   0)     49.8228         0.009636   
    348. D(H  51,C   2,C   1,O   0)    175.6032         0.009636   
    349. D(C   4,C   3,C   2,N   6)     28.1939         0.010507   
    350. D(H  53,C   3,C   2,H  51)    -92.9206         0.010507   
    351. D(H  53,C   3,C   2,C   1)     31.7657         0.010507   
    352. D(C   4,C   3,C   2,H  51)    145.3291         0.010507   
    353. D(H  53,C   3,C   2,N   6)    149.9442         0.010507   
    354. D(H  52,C   3,C   2,H  51)     26.8847         0.010507   
    355. D(C   4,C   3,C   2,C   1)    -89.9847         0.010507   
    356. D(H  52,C   3,C   2,C   1)    151.5710         0.010507   
    357. D(H  52,C   3,C   2,N   6)    -90.2505         0.010507   
    358. D(H  55,C   4,C   3,H  53)     80.1603         0.010657   
    359. D(H  55,C   4,C   3,H  52)    -41.4737         0.010657   
    360. D(H  54,C   4,C   3,H  52)   -163.2696         0.010657   
    361. D(H  55,C   4,C   3,C   2)   -158.8158         0.010657   
    362. D(H  54,C   4,C   3,H  53)    -41.6356         0.010657   
    363. D(C   5,C   4,C   3,C   2)    -37.4480         0.010657   
    364. D(H  54,C   4,C   3,C   2)     79.3883         0.010657   
    365. D(C   5,C   4,C   3,H  53)   -158.4720         0.010657   
    366. D(C   5,C   4,C   3,H  52)     79.8941         0.010657   
    367. D(N   6,C   5,C   4,C   3)     31.6411         0.011011   
    368. D(H  57,C   5,C   4,C   3)    -86.7260         0.011011   
    369. D(H  56,C   5,C   4,H  55)    -86.9297         0.011011   
    370. D(H  56,C   5,C   4,C   3)    151.0448         0.011011   
    371. D(H  57,C   5,C   4,H  54)    156.6914         0.011011   
    372. D(H  56,C   5,C   4,H  54)     34.4622         0.011011   
    373. D(H  57,C   5,C   4,H  55)     35.2996         0.011011   
    374. D(N   6,C   5,C   4,H  54)    -84.9415         0.011011   
    375. D(N   6,C   5,C   4,H  55)    153.6666         0.011011   
    376. D(C   5,N   6,C   2,C   3)     -8.5773         0.014055   
    377. D(C   7,N   6,C   5,H  57)    -78.9813         0.014523   
    378. D(C   7,N   6,C   5,H  56)     40.8802         0.014523   
    379. D(C   7,N   6,C   5,C   4)    161.9019         0.014523   
    380. D(C   2,N   6,C   5,H  57)    104.5431         0.014523   
    381. D(C   2,N   6,C   5,H  56)   -135.5954         0.014523   
    382. D(C   7,N   6,C   2,H  51)     55.1211         0.014055   
    383. D(C   2,N   6,C   5,C   4)    -14.5737         0.014523   
    384. D(C   7,N   6,C   2,C   3)    174.6432         0.014055   
    385. D(C   5,N   6,C   2,C   1)    110.8187         0.014055   
    386. D(C   7,N   6,C   2,C   1)    -65.9608         0.014055   
    387. D(C   5,N   6,C   2,H  51)   -128.0994         0.014055   
    388. D(C  24,C   7,N   6,C   5)     10.5229         0.034838   
    389. D(C  24,C   7,N   6,C   2)   -173.2266         0.034838   
    390. D(O   8,C   7,N   6,C   5)   -172.8238         0.034838   
    391. D(O   8,C   7,N   6,C   2)      3.4267         0.034838   
    392. D(H  58,N   9,C   1,O   0)    168.4650         0.031405   
    393. D(C  10,N   9,C   1,C   2)   -169.6343         0.031405   
    394. D(H  58,N   9,C   1,C   2)    -11.1432         0.031405   
    395. D(C  10,N   9,C   1,O   0)      9.9739         0.031405   
    396. D(H  59,C  10,N   9,C   1)    152.6916         0.015105   
    397. D(C  48,C  10,N   9,H  58)    111.3697         0.015105   
    398. D(C  48,C  10,N   9,C   1)    -90.3175         0.015105   
    399. D(C  11,C  10,N   9,C   1)     39.5188         0.015105   
    400. D(H  59,C  10,N   9,H  58)     -5.6213         0.015105   
    401. D(C  11,C  10,N   9,H  58)   -118.7941         0.015105   
    402. D(O  47,C  11,C  10,N   9)   -141.6796         0.009192   
    403. D(N  12,C  11,C  10,H  59)    -69.7344         0.009192   
    404. D(N  12,C  11,C  10,C  48)    173.7499         0.009192   
    405. D(N  12,C  11,C  10,N   9)     43.2551         0.009192   
    406. D(O  47,C  11,C  10,H  59)    105.3309         0.009192   
    407. D(O  47,C  11,C  10,C  48)    -11.1848         0.009192   
    408. D(H  60,N  12,C  11,O  47)    175.5676         0.029979   
    409. D(H  60,N  12,C  11,C  10)     -9.4531         0.029979   
    410. D(C  13,N  12,C  11,O  47)     16.0012         0.029979   
    411. D(C  13,N  12,C  11,C  10)   -169.0195         0.029979   
    412. D(H  61,C  13,N  12,C  11)    -10.6027         0.016697   
    413. D(H  61,C  13,N  12,H  60)   -170.4558         0.016697   
    414. D(C  45,C  13,N  12,H  60)    -52.1786         0.016697   
    415. D(C  45,C  13,N  12,C  11)    107.6746         0.016697   
    416. D(C  14,C  13,N  12,C  11)   -125.0910         0.016697   
    417. D(C  14,C  13,N  12,H  60)     75.0559         0.016697   
    418. D(O  44,C  14,C  13,C  45)    -27.1271         0.010276   
    419. D(O  44,C  14,C  13,N  12)   -154.3539         0.010276   
    420. D(N  15,C  14,C  13,H  61)    -87.2259         0.010276   
    421. D(N  15,C  14,C  13,C  45)    153.7088         0.010276   
    422. D(O  44,C  14,C  13,H  61)     91.9382         0.010276   
    423. D(N  15,C  14,C  13,N  12)     26.4820         0.010276   
    424. D(H  62,N  15,C  14,O  44)    162.4197         0.031863   
    425. D(H  62,N  15,C  14,C  13)    -18.4181         0.031863   
    426. D(C  16,N  15,C  14,O  44)     -1.8904         0.031863   
    427. D(C  16,N  15,C  14,C  13)    177.2718         0.031863   
    428. D(H  64,C  16,N  15,H  62)     87.4421         0.017553   
    429. D(H  64,C  16,N  15,C  14)   -108.3406         0.017553   
    430. D(H  63,C  16,N  15,H  62)   -158.4422         0.017553   
    431. D(H  63,C  16,N  15,C  14)      5.7750         0.017553   
    432. D(C  17,C  16,N  15,C  14)    130.5194         0.017553   
    433. D(C  17,C  16,N  15,H  62)    -33.6979         0.017553   
    434. D(H  65,C  17,C  16,H  64)     69.5668         0.010908   
    435. D(H  65,C  17,C  16,H  63)    -44.3146         0.010908   
    436. D(H  65,C  17,C  16,N  15)   -167.4725         0.010908   
    437. D(O  43,C  17,C  16,H  64)    -48.4243         0.010908   
    438. D(O  43,C  17,C  16,H  63)   -162.3057         0.010908   
    439. D(O  43,C  17,C  16,N  15)     74.5364         0.010908   
    440. D(C  18,C  17,C  16,H  64)   -171.2748         0.010908   
    441. D(C  18,C  17,C  16,H  63)     74.8438         0.010908   
    442. D(C  18,C  17,C  16,N  15)    -48.3141         0.010908   
    443. D(H  66,C  18,C  17,H  65)    -48.6056         0.010276   
    444. D(H  66,C  18,C  17,O  43)     66.2764         0.010276   
    445. D(H  66,C  18,C  17,C  16)   -167.2434         0.010276   
    446. D(C  32,C  18,C  17,O  43)    -48.2878         0.010276   
    447. D(C  32,C  18,C  17,C  16)     78.1923         0.010276   
    448. D(C  32,C  18,C  17,H  65)   -163.1698         0.010276   
    449. D(C  19,C  18,C  17,H  65)     64.7539         0.010276   
    450. D(C  19,C  18,C  17,O  43)    179.6359         0.010276   
    451. D(C  19,C  18,C  17,C  16)    -53.8840         0.010276   
    452. D(O  31,C  19,C  18,H  66)    -21.8997         0.008997   
    453. D(O  31,C  19,C  18,C  32)     87.7463         0.008997   
    454. D(O  31,C  19,C  18,C  17)   -136.7915         0.008997   
    455. D(N  20,C  19,C  18,H  66)    162.3114         0.008997   
    456. D(N  20,C  19,C  18,C  17)     47.4197         0.008997   
    457. D(N  20,C  19,C  18,C  32)    -88.0425         0.008997   
    458. D(H  67,N  20,C  19,O  31)    174.4708         0.031425   
    459. D(H  67,N  20,C  19,C  18)     -9.9061         0.031425   
    460. D(C  21,N  20,C  19,O  31)      4.4848         0.031425   
    461. D(C  21,N  20,C  19,C  18)   -179.8921         0.031425   
    462. D(H  68,C  21,N  20,H  67)   -163.5140         0.015689   
    463. D(H  68,C  21,N  20,C  19)      7.1371         0.015689   
    464. D(C  27,C  21,N  20,H  67)    -44.6287         0.015689   
    465. D(C  27,C  21,N  20,C  19)    126.0224         0.015689   
    466. D(C  22,C  21,N  20,H  67)     81.7548         0.015689   
    467. D(C  22,C  21,N  20,C  19)   -107.5941         0.015689   
    468. D(N  23,C  22,C  21,C  27)    135.7061         0.009633   
    469. D(N  23,C  22,C  21,N  20)     11.2620         0.009633   
    470. D(O  26,C  22,C  21,H  68)     74.7438         0.009633   
    471. D(O  26,C  22,C  21,C  27)    -46.0629         0.009633   
    472. D(O  26,C  22,C  21,N  20)   -170.5070         0.009633   
    473. D(N  23,C  22,C  21,H  68)   -103.4872         0.009633   
    474. D(H  69,N  23,C  22,O  26)   -178.5978         0.032240   
    475. D(H  69,N  23,C  22,C  21)     -0.3758         0.032240   
    476. D(C  24,N  23,C  22,O  26)     -2.0880         0.032240   
    477. D(C  24,N  23,C  22,C  21)    176.1341         0.032240   
    478. D(H  70,C  24,N  23,H  69)   -135.7720         0.017455   
    479. D(H  70,C  24,N  23,C  22)     47.5510         0.017455   
    480. D(C  25,C  24,N  23,H  69)    103.9652         0.017455   
    481. D(C  25,C  24,N  23,C  22)    -72.7118         0.017455   
    482. D(C   7,C  24,N  23,H  69)    -16.2565         0.017455   
    483. D(C   7,C  24,N  23,C  22)    167.0665         0.017455   
    484. D(H  70,C  24,C   7,O   8)    138.5097         0.010574   
    485. D(H  70,C  24,C   7,N   6)    -44.7924         0.010574   
    486. D(C  25,C  24,C   7,O   8)   -100.7523         0.010574   
    487. D(C  25,C  24,C   7,N   6)     75.9456         0.010574   
    488. D(N  23,C  24,C   7,O   8)     20.5529         0.010574   
    489. D(N  23,C  24,C   7,N   6)   -162.7492         0.010574   
    490. D(H  73,C  25,C  24,H  70)    179.3875         0.010335   
    491. D(H  73,C  25,C  24,N  23)    -60.6054         0.010335   
    492. D(H  73,C  25,C  24,C   7)     57.4886         0.010335   
    493. D(H  72,C  25,C  24,H  70)     58.5887         0.010335   
    494. D(H  72,C  25,C  24,N  23)    178.5959         0.010335   
    495. D(H  72,C  25,C  24,C   7)    -63.3102         0.010335   
    496. D(H  71,C  25,C  24,H  70)    -61.1204         0.010335   
    497. D(H  71,C  25,C  24,N  23)     58.8868         0.010335   
    498. D(H  71,C  25,C  24,C   7)    176.9808         0.010335   
    499. D(H  75,C  27,C  21,H  68)     69.3450         0.010374   
    500. D(H  75,C  27,C  21,C  22)   -172.5000         0.010374   
    501. D(H  75,C  27,C  21,N  20)    -46.6705         0.010374   
    502. D(H  74,C  27,C  21,H  68)   -176.6189         0.010374   
    503. D(H  74,C  27,C  21,C  22)    -58.4639         0.010374   
    504. D(H  74,C  27,C  21,N  20)     67.3655         0.010374   
    505. D(C  28,C  27,C  21,H  68)    -51.5209         0.010374   
    506. D(C  28,C  27,C  21,C  22)     66.6341         0.010374   
    507. D(C  28,C  27,C  21,N  20)   -167.5365         0.010374   
    508. D(H  76,C  28,C  27,H  75)    177.3976         0.010606   
    509. D(H  76,C  28,C  27,H  74)     61.5518         0.010606   
    510. D(H  76,C  28,C  27,C  21)    -62.8404         0.010606   
    511. D(C  30,C  28,C  27,H  75)    -63.6449         0.010606   
    512. D(C  30,C  28,C  27,H  74)   -179.4907         0.010606   
    513. D(C  30,C  28,C  27,C  21)     56.1170         0.010606   
    514. D(C  29,C  28,C  27,H  75)     59.4979         0.010606   
    515. D(C  29,C  28,C  27,H  74)    -56.3478         0.010606   
    516. D(C  29,C  28,C  27,C  21)    179.2599         0.010606   
    517. D(H  79,C  29,C  28,C  30)     60.8679         0.010902   
    518. D(H  79,C  29,C  28,C  27)    -63.0845         0.010902   
    519. D(H  78,C  29,C  28,H  76)     59.8908         0.010902   
    520. D(H  78,C  29,C  28,C  30)    -58.8488         0.010902   
    521. D(H  78,C  29,C  28,C  27)    177.1989         0.010902   
    522. D(H  77,C  29,C  28,H  76)    -60.4192         0.010902   
    523. D(H  77,C  29,C  28,C  30)   -179.1588         0.010902   
    524. D(H  79,C  29,C  28,H  76)    179.6075         0.010902   
    525. D(H  77,C  29,C  28,C  27)     56.8888         0.010902   
    526. D(H  82,C  30,C  28,H  76)    -65.3671         0.010999   
    527. D(H  82,C  30,C  28,C  29)     53.7854         0.010999   
    528. D(H  82,C  30,C  28,C  27)    175.8222         0.010999   
    529. D(H  81,C  30,C  28,H  76)    175.0900         0.010999   
    530. D(H  81,C  30,C  28,C  29)    -65.7575         0.010999   
    531. D(H  81,C  30,C  28,C  27)     56.2793         0.010999   
    532. D(H  80,C  30,C  28,H  76)     54.1851         0.010999   
    533. D(H  80,C  30,C  28,C  29)    173.3376         0.010999   
    534. D(H  80,C  30,C  28,C  27)    -64.6256         0.010999   
    535. D(O  42,C  32,C  18,H  66)   -145.8885         0.009352   
    536. D(O  42,C  32,C  18,C  19)    106.3459         0.009352   
    537. D(O  42,C  32,C  18,C  17)    -31.2163         0.009352   
    538. D(C  33,C  32,C  18,H  66)     34.2130         0.009352   
    539. D(C  33,C  32,C  18,C  19)    -73.5526         0.009352   
    540. D(C  33,C  32,C  18,C  17)    148.8853         0.009352   
    541. D(H  84,C  33,C  32,O  42)     96.6869         0.011536   
    542. D(H  84,C  33,C  32,C  18)    -83.4142         0.011536   
    543. D(H  83,C  33,C  32,O  42)   -151.1760         0.011536   
    544. D(H  83,C  33,C  32,C  18)     28.7229         0.011536   
    545. D(C  34,C  33,C  32,O  42)    -26.5093         0.011536   
    546. D(C  34,C  33,C  32,C  18)    153.3896         0.011536   
    547. D(H  86,C  34,C  33,H  84)     75.1446         0.011111   
    548. D(H  86,C  34,C  33,H  83)    -41.8866         0.011111   
    549. D(H  86,C  34,C  33,C  32)   -164.7665         0.011111   
    550. D(H  85,C  34,C  33,H  84)   -169.5216         0.011111   
    551. D(H  85,C  34,C  33,H  83)     73.4472         0.011111   
    552. D(H  85,C  34,C  33,C  32)    -49.4327         0.011111   
    553. D(C  35,C  34,C  33,H  84)    -47.6596         0.011111   
    554. D(C  35,C  34,C  33,H  83)   -164.6908         0.011111   
    555. D(C  35,C  34,C  33,C  32)     72.4293         0.011111   
    556. D(H  88,C  35,C  34,H  86)   -172.7768         0.011056   
    557. D(H  88,C  35,C  34,H  85)     71.1376         0.011056   
    558. D(H  88,C  35,C  34,C  33)    -50.5133         0.011056   
    559. D(H  87,C  35,C  34,H  86)    -56.2456         0.011056   
    560. D(H  87,C  35,C  34,H  85)   -172.3313         0.011056   
    561. D(H  87,C  35,C  34,C  33)     66.0179         0.011056   
    562. D(C  36,C  35,C  34,H  86)     66.2809         0.011056   
    563. D(C  36,C  35,C  34,H  85)    -49.8048         0.011056   
    564. D(C  36,C  35,C  34,C  33)   -171.4556         0.011056   
    565. D(H  90,C  36,C  35,H  87)     64.0465         0.011228   
    566. D(H  90,C  36,C  35,C  34)    -58.5816         0.011228   
    567. D(H  89,C  36,C  35,H  88)    -65.5368         0.011228   
    568. D(H  89,C  36,C  35,H  87)    177.9109         0.011228   
    569. D(H  89,C  36,C  35,C  34)     55.2828         0.011228   
    570. D(C  37,C  36,C  35,H  88)     56.9604         0.011228   
    571. D(C  37,C  36,C  35,H  87)    -59.5919         0.011228   
    572. D(H  90,C  36,C  35,H  88)   -179.4012         0.011228   
    573. D(C  37,C  36,C  35,C  34)    177.7800         0.011228   
    574. D(H  92,C  37,C  36,H  90)   -170.1429         0.011159   
    575. D(H  92,C  37,C  36,H  89)     75.2477         0.011159   
    576. D(H  92,C  37,C  36,C  35)    -46.1878         0.011159   
    577. D(H  91,C  37,C  36,H  90)    -54.9214         0.011159   
    578. D(H  91,C  37,C  36,H  89)   -169.5308         0.011159   
    579. D(H  91,C  37,C  36,C  35)     69.0336         0.011159   
    580. D(C  38,C  37,C  36,H  90)     67.8582         0.011159   
    581. D(C  38,C  37,C  36,H  89)    -46.7512         0.011159   
    582. D(C  38,C  37,C  36,C  35)   -168.1868         0.011159   
    583. D(H  94,C  38,C  37,H  92)   -173.5808         0.011124   
    584. D(H  94,C  38,C  37,H  91)     71.3349         0.011124   
    585. D(H  94,C  38,C  37,C  36)    -51.2624         0.011124   
    586. D(H  93,C  38,C  37,H  92)    -58.1560         0.011124   
    587. D(H  93,C  38,C  37,H  91)   -173.2403         0.011124   
    588. D(H  93,C  38,C  37,C  36)     64.1624         0.011124   
    589. D(C  39,C  38,C  37,H  92)     63.6094         0.011124   
    590. D(C  39,C  38,C  37,H  91)    -51.4749         0.011124   
    591. D(C  39,C  38,C  37,C  36)   -174.0722         0.011124   
    592. D(H  95,C  39,C  38,H  94)    -59.3816         0.011167   
    593. D(H  95,C  39,C  38,H  93)   -174.7325         0.011167   
    594. D(H  95,C  39,C  38,C  37)     63.5136         0.011167   
    595. D(C  40,C  39,C  38,H  94)     63.0998         0.011167   
    596. D(C  40,C  39,C  38,H  93)    -52.2511         0.011167   
    597. D(C  40,C  39,C  38,C  37)   -174.0050         0.011167   
    598. D(H  96,C  39,C  38,H  94)   -174.8104         0.011167   
    599. D(H  96,C  39,C  38,H  93)     69.8387         0.011167   
    600. D(H  96,C  39,C  38,C  37)    -51.9152         0.011167   
    601. D(H  98,C  40,C  39,H  95)     65.0593         0.011112   
    602. D(H  98,C  40,C  39,C  38)    -57.2951         0.011112   
    603. D(H  97,C  40,C  39,H  96)    -64.1039         0.011112   
    604. D(H  97,C  40,C  39,H  95)   -179.5652         0.011112   
    605. D(H  97,C  40,C  39,C  38)     58.0804         0.011112   
    606. D(C  41,C  40,C  39,H  96)     58.0068         0.011112   
    607. D(C  41,C  40,C  39,H  95)    -57.4545         0.011112   
    608. D(H  98,C  40,C  39,H  96)   -179.4793         0.011112   
    609. D(C  41,C  40,C  39,C  38)   -179.8089         0.011112   
    610. D(H 101,C  41,C  40,H  98)    -62.2222         0.011176   
    611. D(H 101,C  41,C  40,H  97)   -178.2103         0.011176   
    612. D(H 101,C  41,C  40,C  39)     60.0361         0.011176   
    613. D(H 100,C  41,C  40,H  98)    178.2325         0.011176   
    614. D(H 100,C  41,C  40,H  97)     62.2444         0.011176   
    615. D(H 100,C  41,C  40,C  39)    -59.5092         0.011176   
    616. D(H  99,C  41,C  40,H  98)     58.0292         0.011176   
    617. D(H  99,C  41,C  40,H  97)    -57.9588         0.011176   
    618. D(H  99,C  41,C  40,C  39)   -179.7125         0.011176   
    619. D(H 102,O  43,C  17,H  65)    -60.5523         0.017106   
    620. D(H 102,O  43,C  17,C  18)   -172.9278         0.017106   
    621. D(H 102,O  43,C  17,C  16)     54.6766         0.017106   
    622. D(H 104,C  45,C  13,H  61)     82.2541         0.010245   
    623. D(H 104,C  45,C  13,C  14)   -160.4196         0.010245   
    624. D(H 104,C  45,C  13,N  12)    -33.5109         0.010245   
    625. D(H 103,C  45,C  13,H  61)   -161.5734         0.010245   
    626. D(H 103,C  45,C  13,C  14)    -44.2471         0.010245   
    627. D(H 103,C  45,C  13,N  12)     82.6616         0.010245   
    628. D(C  46,C  45,C  13,H  61)    -38.8728         0.010245   
    629. D(C  46,C  45,C  13,C  14)     78.4535         0.010245   
    630. D(C  46,C  45,C  13,N  12)   -154.6379         0.010245   
    631. D(H 107,C  46,C  45,H 104)    -59.6745         0.011207   
    632. D(H 107,C  46,C  45,H 103)   -178.2934         0.011207   
    633. D(H 107,C  46,C  45,C  13)     59.5239         0.011207   
    634. D(H 106,C  46,C  45,H 104)    179.7736         0.011207   
    635. D(H 106,C  46,C  45,H 103)     61.1547         0.011207   
    636. D(H 106,C  46,C  45,C  13)    -61.0281         0.011207   
    637. D(H 105,C  46,C  45,H 104)     59.5616         0.011207   
    638. D(H 105,C  46,C  45,H 103)    -59.0573         0.011207   
    639. D(H 105,C  46,C  45,C  13)    178.7600         0.011207   
    640. D(H 108,C  48,C  10,H  59)    -67.0941         0.010346   
    641. D(H 108,C  48,C  10,C  11)     48.0093         0.010346   
    642. D(H 108,C  48,C  10,N   9)    177.4604         0.010346   
    643. D(C  50,C  48,C  10,H  59)    175.1550         0.010346   
    644. D(C  50,C  48,C  10,C  11)    -69.7415         0.010346   
    645. D(C  50,C  48,C  10,N   9)     59.7095         0.010346   
    646. D(C  49,C  48,C  10,H  59)     50.1067         0.010346   
    647. D(C  49,C  48,C  10,C  11)    165.2101         0.010346   
    648. D(C  49,C  48,C  10,N   9)    -65.3388         0.010346   
    649. D(H 111,C  49,C  48,C  50)     56.6125         0.011063   
    650. D(H 111,C  49,C  48,C  10)   -176.7186         0.011063   
    651. D(H 110,C  49,C  48,H 108)    178.6681         0.011063   
    652. D(H 110,C  49,C  48,C  50)    -62.4569         0.011063   
    653. D(H 110,C  49,C  48,C  10)     64.2120         0.011063   
    654. D(H 109,C  49,C  48,H 108)     58.1648         0.011063   
    655. D(H 109,C  49,C  48,C  50)    177.0399         0.011063   
    656. D(H 111,C  49,C  48,H 108)    -62.2626         0.011063   
    657. D(H 109,C  49,C  48,C  10)    -56.2912         0.011063   
    658. D(H 114,C  50,C  48,H 108)    178.5246         0.011104   
    659. D(H 114,C  50,C  48,C  49)     58.9639         0.011104   
    660. D(H 114,C  50,C  48,C  10)    -65.5945         0.011104   
    661. D(H 113,C  50,C  48,H 108)     59.6612         0.011104   
    662. D(H 113,C  50,C  48,C  49)    -59.8995         0.011104   
    663. D(H 113,C  50,C  48,C  10)    175.5421         0.011104   
    664. D(H 112,C  50,C  48,H 108)    -60.7864         0.011104   
    665. D(H 112,C  50,C  48,C  49)    179.6528         0.011104   
    666. D(H 112,C  50,C  48,C  10)     55.0944         0.011104   
    -----------------------------------------------------------------

Number of atoms                         .... 115
Number of degrees of freedom            .... 666

         *************************************************************
         *                GEOMETRY OPTIMIZATION CYCLE   1            *
         *************************************************************
---------------------------------
CARTESIAN COORDINATES (ANGSTROEM)
---------------------------------
  O      2.156743   -2.912846    0.315624
  C      1.623735   -2.454955   -0.693998
  C      2.466073   -1.790579   -1.801281
  C      3.654181   -2.673063   -2.221694
  C      4.789438   -2.233629   -1.284225
  C      4.579956   -0.721519   -1.158300
  N      3.119439   -0.573075   -1.278168
  C      2.368771    0.484427   -0.910564
  O      1.122635    0.435888   -0.943068
  N      0.284203   -2.474884   -0.933812
  C     -0.720453   -2.853396    0.066719
  C     -0.376176   -2.304821    1.473585
  N      0.062350   -1.010238    1.478022
  C      0.647491   -0.425421    2.673628
  C     -0.070268    0.864977    3.082932
  N     -1.369806    0.968468    2.698508
  C     -2.176236    2.110597    3.072082
  C     -2.959801    2.801794    1.950188
  C     -2.285337    3.183883    0.617430
  C     -0.995194    4.046584    0.619745
  N      0.008032    3.696898    1.470213
  C      1.260050    4.448604    1.546865
  C      2.438712    3.678338    0.918700
  N      2.099244    2.576358    0.201997
  C      3.071577    1.784451   -0.521859
  C      3.574668    2.511431   -1.783990
  O      3.605425    4.060296    1.033784
  C      1.521369    4.867096    3.006124
  C      2.626072    5.908831    3.245541
  C      2.716199    6.201239    4.747869
  C      2.389021    7.197590    2.452081
  O     -0.887852    4.964597   -0.195779
  C     -2.076644    2.027707   -0.387790
  C     -2.137939    2.462875   -1.838199
  C     -1.347260    1.585451   -2.811422
  C     -1.951602    0.207534   -3.095135
  C     -1.000459   -0.675101   -3.903737
  C     -1.530485   -2.084914   -4.171660
  C     -0.469537   -3.039778   -4.723289
  C     -1.023658   -4.406985   -5.127851
  C      0.059937   -5.405558   -5.541155
  C     -0.503449   -6.768053   -5.948390
  O     -1.878763    0.871320   -0.048883
  O     -4.103957    2.026643    1.546096
  O      0.497463    1.752728    3.739112
  C      2.172085   -0.231865    2.544546
  C      2.904235   -0.218834    3.887004
  O     -0.576900   -2.957342    2.494393
  C     -1.063322   -4.355519    0.077826
  C     -1.738862   -4.747498   -1.239024
  C      0.137723   -5.259590    0.365236
  H      1.828380   -1.514748   -2.653423
  H      3.908805   -2.464789   -3.271215
  H      3.417997   -3.739707   -2.129985
  H      4.656651   -2.708706   -0.304484
  H      5.785846   -2.480653   -1.671499
  H      4.930845   -0.319716   -0.199181
  H      5.088223   -0.175942   -1.970400
  H     -0.035991   -1.905985   -1.712587
  H     -1.632859   -2.310664   -0.234865
  H      0.271138   -0.557667    0.583244
  H      0.443513   -1.157334    3.475770
  H     -1.699503    0.359412    1.947993
  H     -1.514745    2.828433    3.578655
  H     -2.922003    1.810501    3.833048
  H     -3.305128    3.756022    2.396184
  H     -3.003423    3.853744    0.122591
  H     -0.117179    2.991457    2.197401
  H      1.113941    5.337591    0.914513
  H      1.126473    2.290696    0.102618
  H      3.927112    1.586066    0.142806
  H      4.025909    3.464536   -1.484040
  H      4.329943    1.917312   -2.315704
  H      2.733946    2.707158   -2.463216
  H      1.723255    3.962196    3.599331
  H      0.568939    5.280560    3.382451
  H      3.578423    5.472754    2.912052
  H      2.901304    5.282552    5.323973
  H      3.531249    6.907142    4.964473
  H      1.779384    6.647552    5.120275
  H      2.438398    7.026763    1.367594
  H      1.402706    7.631916    2.684956
  H      3.151607    7.950751    2.698464
  H     -1.806886    3.511935   -1.889320
  H     -3.214340    2.483885   -2.097869
  H     -0.334387    1.446962   -2.403848
  H     -1.235671    2.135920   -3.759862
  H     -2.910822    0.316815   -3.631130
  H     -2.181724   -0.287253   -2.139594
  H     -0.039712   -0.731571   -3.357206
  H     -0.751534   -0.186382   -4.861928
  H     -2.380503   -2.028783   -4.872892
  H     -1.943605   -2.507609   -3.238998
  H      0.317433   -3.182231   -3.959818
  H      0.031615   -2.575165   -5.590690
  H     -1.741586   -4.278303   -5.956739
  H     -1.603795   -4.828700   -4.289032
  H      0.767612   -5.533216   -4.703940
  H      0.647141   -4.981559   -6.373774
  H      0.294483   -7.467595   -6.235491
  H     -1.067607   -7.224961   -5.121257
  H     -1.189341   -6.673395   -6.803915
  H     -4.638021    1.848437    2.339728
  H      2.367148    0.707311    2.004238
  H      2.540782   -1.062373    1.925227
  H      3.986890   -0.100473    3.735793
  H      2.553026    0.605850    4.518462
  H      2.743033   -1.164839    4.425612
  H     -1.783586   -4.473642    0.902595
  H     -2.636686   -4.141973   -1.437324
  H     -1.046408   -4.615662   -2.084428
  H     -2.041763   -5.803897   -1.222158
  H      0.631007   -4.982376    1.302744
  H     -0.195057   -6.305503    0.436415
  H      0.879388   -5.199470   -0.444577

----------------------------
CARTESIAN COORDINATES (A.U.)
----------------------------
  NO LB      ZA    FRAG     MASS         X           Y           Z
   0 O     8.0000    0    15.999    4.075654   -5.504481    0.596443
   1 C     6.0000    0    12.011    3.068415   -4.639192   -1.311467
   2 C     6.0000    0    12.011    4.660202   -3.383703   -3.403928
   3 C     6.0000    0    12.011    6.905401   -5.051356   -4.198393
   4 C     6.0000    0    12.011    9.050727   -4.220947   -2.426833
   5 C     6.0000    0    12.011    8.654862   -1.363473   -2.188869
   6 N     7.0000    0    14.007    5.894885   -1.082955   -2.415387
   7 C     6.0000    0    12.011    4.476328    0.915435   -1.720717
   8 O     8.0000    0    15.999    2.121473    0.823710   -1.782141
   9 N     7.0000    0    14.007    0.537065   -4.676853   -1.764648
  10 C     6.0000    0    12.011   -1.361459   -5.392137    0.126080
  11 C     6.0000    0    12.011   -0.710869   -4.355481    2.784672
  12 N     7.0000    0    14.007    0.117824   -1.909074    2.793057
  13 C     6.0000    0    12.011    1.223581   -0.803930    5.052425
  14 C     6.0000    0    12.011   -0.132787    1.634569    5.825897
  15 N     7.0000    0    14.007   -2.588557    1.830139    5.099442
  16 C     6.0000    0    12.011   -4.112489    3.988449    5.805394
  17 C     6.0000    0    12.011   -5.593214    5.294624    3.685322
  18 C     6.0000    0    12.011   -4.318661    6.016667    1.166773
  19 C     6.0000    0    12.011   -1.880644    7.646936    1.171149
  20 N     7.0000    0    14.007    0.015177    6.986125    2.778301
  21 C     6.0000    0    12.011    2.381150    8.406644    2.923152
  22 C     6.0000    0    12.011    4.608497    6.951052    1.736091
  23 N     7.0000    0    14.007    3.966997    4.868612    0.381720
  24 C     6.0000    0    12.011    5.804440    3.372124   -0.986171
  25 C     6.0000    0    12.011    6.755143    4.745917   -3.371253
  26 O     8.0000    0    15.999    6.813266    7.672848    1.953569
  27 C     6.0000    0    12.011    2.874970    9.197479    5.680752
  28 C     6.0000    0    12.011    4.962557   11.166071    6.133184
  29 C     6.0000    0    12.011    5.132873   11.718643    8.972172
  30 C     6.0000    0    12.011    4.514596   13.601474    4.633761
  31 O     8.0000    0    15.999   -1.677798    9.381728   -0.369969
  32 C     6.0000    0    12.011   -3.924289    3.831811   -0.732817
  33 C     6.0000    0    12.011   -4.040119    4.654159   -3.473692
  34 C     6.0000    0    12.011   -2.545953    2.996068   -5.312818
  35 C     6.0000    0    12.011   -3.687993    0.392182   -5.848957
  36 C     6.0000    0    12.011   -1.890593   -1.275755   -7.376994
  37 C     6.0000    0    12.011   -2.892198   -3.939916   -7.883295
  38 C     6.0000    0    12.011   -0.887297   -5.744348   -8.925722
  39 C     6.0000    0    12.011   -1.934432   -8.327995   -9.690234
  40 C     6.0000    0    12.011    0.113265  -10.215024  -10.471265
  41 C     6.0000    0    12.011   -0.951381  -12.789767  -11.240828
  42 O     8.0000    0    15.999   -3.550348    1.646557   -0.092376
  43 O     8.0000    0    15.999   -7.755355    3.829799    2.921698
  44 O     8.0000    0    15.999    0.940069    3.312176    7.065897
  45 C     6.0000    0    12.011    4.104645   -0.438161    4.808495
  46 C     6.0000    0    12.011    5.488208   -0.413537    7.345374
  47 O     8.0000    0    15.999   -1.090183   -5.588566    4.713721
  48 C     6.0000    0    12.011   -2.009388   -8.230737    0.147069
  49 C     6.0000    0    12.011   -3.285972   -8.971471   -2.341416
  50 C     6.0000    0    12.011    0.260259   -9.939185    0.690196
  51 H     1.0000    0     1.008    3.455137   -2.862460   -5.014243
  52 H     1.0000    0     1.008    7.386570   -4.657776   -6.181700
  53 H     1.0000    0     1.008    6.459079   -7.067022   -4.025088
  54 H     1.0000    0     1.008    8.799795   -5.118712   -0.575391
  55 H     1.0000    0     1.008   10.933665   -4.687755   -3.158675
  56 H     1.0000    0     1.008    9.317947   -0.604177   -0.376398
  57 H     1.0000    0     1.008    9.615348   -0.332482   -3.723516
  58 H     1.0000    0     1.008   -0.068013   -3.601790   -3.236321
  59 H     1.0000    0     1.008   -3.085656   -4.366521   -0.443830
  60 H     1.0000    0     1.008    0.512377   -1.053839    1.102172
  61 H     1.0000    0     1.008    0.838119   -2.187044    6.568254
  62 H     1.0000    0     1.008   -3.211596    0.679191    3.681173
  63 H     1.0000    0     1.008   -2.862453    5.344963    6.762678
  64 H     1.0000    0     1.008   -5.521786    3.421352    7.243412
  65 H     1.0000    0     1.008   -6.245786    7.097853    4.528132
  66 H     1.0000    0     1.008   -5.675646    7.282520    0.231663
  67 H     1.0000    0     1.008   -0.221436    5.653034    4.152487
  68 H     1.0000    0     1.008    2.105043   10.086585    1.728178
  69 H     1.0000    0     1.008    2.128725    4.328788    0.193920
  70 H     1.0000    0     1.008    7.421166    2.997230    0.269865
  71 H     1.0000    0     1.008    7.607865    6.547024   -2.804428
  72 H     1.0000    0     1.008    8.182407    3.623195   -4.376046
  73 H     1.0000    0     1.008    5.166409    5.115787   -4.654804
  74 H     1.0000    0     1.008    3.256480    7.487465    6.801750
  75 H     1.0000    0     1.008    1.075139    9.978813    6.391906
  76 H     1.0000    0     1.008    6.762240   10.342006    5.502980
  77 H     1.0000    0     1.008    5.482670    9.982577   10.060851
  78 H     1.0000    0     1.008    6.673093   13.052608    9.381495
  79 H     1.0000    0     1.008    3.362548   12.562053    9.675918
  80 H     1.0000    0     1.008    4.607905   13.278658    2.584378
  81 H     1.0000    0     1.008    2.650731   14.422231    5.073831
  82 H     1.0000    0     1.008    5.955675   15.024741    5.099358
  83 H     1.0000    0     1.008   -3.414520    6.636595   -3.570297
  84 H     1.0000    0     1.008   -6.074222    4.693863   -3.964397
  85 H     1.0000    0     1.008   -0.631899    2.734362   -4.542614
  86 H     1.0000    0     1.008   -2.335080    4.036303   -7.105110
  87 H     1.0000    0     1.008   -5.500657    0.598693   -6.861841
  88 H     1.0000    0     1.008   -4.122860   -0.542829   -4.043247
  89 H     1.0000    0     1.008   -0.075046   -1.382469   -6.344199
  90 H     1.0000    0     1.008   -1.420194   -0.352210   -9.187712
  91 H     1.0000    0     1.008   -4.498498   -3.833843   -9.208432
  92 H     1.0000    0     1.008   -3.672881   -4.738694   -6.120819
  93 H     1.0000    0     1.008    0.599861   -6.013545   -7.482971
  94 H     1.0000    0     1.008    0.059744   -4.866356  -10.564873
  95 H     1.0000    0     1.008   -3.291120   -8.084822  -11.256605
  96 H     1.0000    0     1.008   -3.030734   -9.124920   -8.105095
  97 H     1.0000    0     1.008    1.450577  -10.456264   -8.889159
  98 H     1.0000    0     1.008    1.222920   -9.413783  -12.044688
  99 H     1.0000    0     1.008    0.556492  -14.111709  -11.783371
 100 H     1.0000    0     1.008   -2.017484  -13.653198   -9.677773
 101 H     1.0000    0     1.008   -2.247529  -12.610889  -12.857536
 102 H     1.0000    0     1.008   -8.764590    3.493040    4.421446
 103 H     1.0000    0     1.008    4.473262    1.336625    3.787462
 104 H     1.0000    0     1.008    4.801382   -2.007594    3.638151
 105 H     1.0000    0     1.008    7.534131   -0.189867    7.059626
 106 H     1.0000    0     1.008    4.824520    1.144890    8.538655
 107 H     1.0000    0     1.008    5.183581   -2.201227    8.363194
 108 H     1.0000    0     1.008   -3.370489   -8.453959    1.705658
 109 H     1.0000    0     1.008   -4.982615   -7.827195   -2.716149
 110 H     1.0000    0     1.008   -1.977424   -8.722337   -3.938998
 111 H     1.0000    0     1.008   -3.858374  -10.967776   -2.309545
 112 H     1.0000    0     1.008    1.192431   -9.415326    2.461829
 113 H     1.0000    0     1.008   -0.368604  -11.915673    0.824704
 114 H     1.0000    0     1.008    1.661803   -9.825574   -0.840128

--------------------------------
INTERNAL COORDINATES (ANGSTROEM)
--------------------------------
 O      0   0   0     0.000000000000     0.00000000     0.00000000
 C      1   0   0     1.230080860669     0.00000000     0.00000000
 C      2   1   0     1.541753200910   120.87378785     0.00000000
 C      3   2   1     1.538546635754   111.77647962    49.82282003
 C      4   3   2     1.536476476893   103.87520153   270.01532691
 C      5   4   3     1.531736759372   103.38229760   322.55197016
 N      6   5   4     1.472926745331   103.20341587    31.64107487
 C      7   6   5     1.347941455540   127.52299909   161.90189303
 O      8   7   6     1.247504264044   121.24226681   187.17621428
 N      2   1   3     1.360975883120   124.44811855   180.41476747
 C     10   2   1     1.467537081462   123.87916724     9.97390216
 C     11  10   2     1.548784591368   112.07198927    39.51876867
 N     12  11  10     1.366846566163   114.18829000    43.25512152
 C     13  12  11     1.453917496890   120.84783188   190.98053689
 C     14  13  12     1.532264666251   111.70845663   234.90899531
 N     15  14  13     1.359150405979   115.87795908    26.48197601
 C     16  15  14     1.447185335273   121.32424799   177.27180350
 C     17  16  15     1.533093411170   116.85409209   130.51936670
 C     18  17  16     1.541797402363   121.38025441   311.68593524
 C     19  18  17     1.552007677666   120.00711409   306.11599504
 N     20  19  18     1.360895842691   118.09275287    47.41966108
 C     21  20  19     1.462357232012   122.12856716   180.10794987
 C     22  21  20     1.541799197781   112.10777979   252.40587571
 N     23  22  21     1.357667004523   115.43152812    11.26202581
 C     24  23  22     1.447935522076   122.67813601   176.13406909
 C     25  24  23     1.540965249190   111.75768353   287.28820636
 O     23  22  21     1.233027721929   122.04406620   189.49299562
 C     22  21  20     1.540408864901   109.54509599   126.02236154
 C     28  22  21     1.537172826303   116.97326983   192.46350574
 C     29  28  22     1.533171130814   108.91197557   179.25991867
 C     29  28  22     1.531885771316   112.22567329    56.11704510
 O     20  19  18     1.232618832909   119.03804915   223.20852245
 C     19  18  17     1.546209223792   115.83054949    78.19234053
 C     33  19  18     1.515523923365   113.70445437   148.88526577
 C     34  33  19     1.530427390842   115.02889353   153.38963533
 C     35  34  33     1.531136178687   115.45881867    72.42926327
 C     36  35  34     1.528906673162   111.83779652   188.54436602
 C     37  36  35     1.529798589668   114.14856918   177.77998544
 C     38  37  36     1.530251526405   113.45147312   191.81318144
 C     39  38  37     1.529697700014   113.69691401   185.92779120
 C     40  39  38     1.530406941090   113.46067211   185.99503169
 C     41  40  39     1.529587152954   113.09898841   180.19106350
 O     33  19  18     1.221165710891   123.33465154   328.78374232
 O     18  17  16     1.439876202344   111.64089502    74.53643956
 O     15  14  13     1.241367210126   121.95292463   205.64609383
 C     14  13  12     1.542242518583   112.30314841   107.67456934
 C     46  14  13     1.529185571970   113.63426612   205.36212849
 O     12  11  10     1.228056649331   122.04178442   218.32043833
 C     11  10   2     1.540796764403   114.12339630   269.68254445
 C     49  11  10     1.531043411909   109.97316355   294.66117879
 C     49  11  10     1.530509773317   113.74090532    59.70951075
 H      3   2   1     1.099491098941   110.35616994   175.60323389
 H      4   3   2     1.099865951762   109.32366990   151.57096019
 H      4   3   2     1.096322443792   111.64377709    31.76565174
 H      5   4   3     1.096915371424   109.36919733    79.38834815
 H      5   4   3     1.097192382101   113.03225727   201.18423277
 H      6   5   4     1.097486567431   112.92591976   151.04475801
 H      6   5   4     1.102495711607   111.40203239   273.27399805
 H     10   2   1     1.016199291528   115.91040492   168.46501754
 H     11  10   2     1.103628380714   104.64474287   152.69157616
 H     13  12  11     1.024226614011   118.75533417   350.54693914
 H     14  13  12     1.104868675370   104.84835105   349.39732935
 H     16  15  14     1.021235802279   118.10788322   341.58189109
 H     17  16  15     1.099760969867   107.38931772     5.77502226
 H     17  16  15     1.106930746503   109.81152712   251.65936260
 H     18  17  16     1.108473173776   104.64952667   192.52748329
 H     19  18  17     1.099648188370   104.73121906   192.75655347
 H     21  20  19     1.020846242600   122.16161870   350.09393308
 H     22  21  20     1.100688437772   105.74792511     7.13711042
 H     24  23  22     1.018706749010   121.18927193   359.62422033
 H     25  24  23     1.101397395121   108.56903296    47.55099759
 H     26  25  24     1.096356651597   108.68808826    58.88681666
 H     26  25  24     1.098242925499   111.46004341   178.59587385
 H     26  25  24     1.098394283511   109.91730777   299.39463307
 H     28  22  21     1.100680140887   108.56116954    67.36553207
 H     28  22  21     1.104398923983   106.15351817   313.32945876
 H     29  28  22     1.099250173180   107.84990871   297.15956581
 H     30  29  28     1.100065385323   111.33258037    56.88882266
 H     30  29  28     1.099783349447   111.03700192   177.19886209
 H     30  29  28     1.102499912076   110.99247119   296.91554564
 H     31  29  28     1.098968282191   111.92621135   295.37440050
 H     31  29  28     1.102581757462   111.12640892    56.27927405
 H     31  29  28     1.099769574938   110.65888592   175.82223924
 H     34  33  19     1.101243154642   107.80642274    28.72288657
 H     34  33  19     1.107478597163   105.61382034   276.58583858
 H     35  34  33     1.100549429375   108.18714066   310.56728596
 H     35  34  33     1.102273486723   108.24962690   195.23347590
 H     36  35  34     1.104235649690   110.10533069    66.01786443
 H     36  35  34     1.100375607333   109.04397424   309.48674540
 H     37  36  35     1.106760462835   107.95818057    55.28277746
 H     37  36  35     1.104055584449   110.10364847   301.41836402
 H     38  37  36     1.103361520903   109.35005627    69.03364755
 H     38  37  36     1.104173019109   109.54138443   313.81215537
 H     39  38  37     1.105668492015   108.96274863    64.16240859
 H     39  38  37     1.104266407811   109.58880293   308.73759231
 H     40  39  38     1.104099211564   109.26414999    63.51361587
 H     40  39  38     1.103639865063   109.32504381   308.08482180
 H     41  40  39     1.103643552860   108.94234563    58.08037703
 H     41  40  39     1.103557390549   109.25758161   302.70491581
 H     42  41  40     1.099309198261   111.65493149   180.28752855
 H     42  41  40     1.100539876168   111.00983889   300.49080083
 H     42  41  40     1.100604940916   111.09293348    60.03606095
 H     44  18  17     0.973054302101   107.80794411    54.67662788
 H     46  14  13     1.100923992590   108.86233637    82.66157876
 H     46  14  13     1.099653618393   106.48715716   326.48907418
 H     47  46  14     1.099553128319   110.58617786   178.75996762
 H     47  46  14     1.096444028784   111.01647614   298.97194370
 H     47  46  14     1.100458567022   110.62277998    59.52386924
 H     49  11  10     1.101352884187   104.80250529   177.46039853
 H     50  49  11     1.100941477815   111.95827591   303.70881791
 H     50  49  11     1.100718501046   110.63170725    64.21204515
 H     50  49  11     1.099096426484   110.76130957   183.28142344
 H     51  49  11     1.095032810076   111.39141645    55.09442356
 H     51  49  11     1.099882605468   109.66000964   175.54209696
 H     51  49  11     1.099762927955   111.01705705   294.40545448

---------------------------
INTERNAL COORDINATES (A.U.)
---------------------------
 O      0   0   0     0.000000000000     0.00000000     0.00000000
 C      1   0   0     2.324515949243     0.00000000     0.00000000
 C      2   1   0     2.913491315816   120.87378785     0.00000000
 C      3   2   1     2.907431785841   111.77647962    49.82282003
 C      4   3   2     2.903519752540   103.87520153   270.01532691
 C      5   4   3     2.894562984473   103.38229760   322.55197016
 N      6   5   4     2.783428164003   103.20341587    31.64107487
 C      7   6   5     2.547240195530   127.52299909   161.90189303
 O      8   7   6     2.357441409943   121.24226681   187.17621428
 N      2   1   3     2.571871693968   124.44811855   180.41476747
 C     10   2   1     2.773243175338   123.87916724     9.97390216
 C     11  10   2     2.926778718123   112.07198927    39.51876867
 N     12  11  10     2.582965677139   114.18829000    43.25512152
 C     13  12  11     2.747505890438   120.84783188   190.98053689
 C     14  13  12     2.895560583898   111.70845663   234.90899531
 N     15  14  13     2.568422042109   115.87795908    26.48197601
 C     16  15  14     2.734783948693   121.32424799   177.27180350
 C     17  16  15     2.897126684831   116.85409209   130.51936670
 C     18  17  16     2.913574844458   121.38025441   311.68593524
 C     19  18  17     2.932869468532   120.00711409   306.11599504
 N     20  19  18     2.571720439479   118.09275287    47.41966108
 C     21  20  19     2.763454678462   122.12856716   180.10794987
 C     22  21  20     2.913578237306   112.10777979   252.40587571
 N     23  22  21     2.565618819610   115.43152812    11.26202581
 C     24  23  22     2.736201596300   122.67813601   176.13406909
 C     25  24  23     2.912002302859   111.75768353   287.28820636
 O     23  22  21     2.330084709978   122.04406620   189.49299562
 C     22  21  20     2.910950888927   109.54509599   126.02236154
 C     28  22  21     2.904835662219   116.97326983   192.46350574
 C     29  28  22     2.897273553673   108.91197557   179.25991867
 C     29  28  22     2.894844576238   112.22567329    56.11704510
 O     20  19  18     2.329312021711   119.03804915   223.20852245
 C     19  18  17     2.921911978710   115.83054949    78.19234053
 C     33  19  18     2.863925164566   113.70445437   148.88526577
 C     34  33  19     2.892088636542   115.02889353   153.38963533
 C     35  34  33     2.893428051457   115.45881867    72.42926327
 C     36  35  34     2.889214896601   111.83779652   188.54436602
 C     37  36  35     2.890900374531   114.14856918   177.77998544
 C     38  37  36     2.891756300921   113.45147312   191.81318144
 C     39  38  37     2.890709720716   113.69691401   185.92779120
 C     40  39  38     2.892049992112   113.46067211   185.99503169
 C     41  40  39     2.890500817047   113.09898841   180.19106350
 O     33  19  18     2.307668757719   123.33465154   328.78374232
 O     18  17  16     2.720971689181   111.64089502    74.53643956
 O     15  14  13     2.345844058769   121.95292463   205.64609383
 C     14  13  12     2.914415992210   112.30314841   107.67456934
 C     46  14  13     2.889741938966   113.63426612   205.36212849
 O     12  11  10     2.320690744176   122.04178442   218.32043833
 C     11  10   2     2.911683912754   114.12339630   269.68254445
 C     49  11  10     2.893252747653   109.97316355   294.66117879
 C     49  11  10     2.892244316859   113.74090532    59.70951075
 H      3   2   1     2.077737063683   110.35616994   175.60323389
 H      4   3   2     2.078445432856   109.32366990   151.57096019
 H      4   3   2     2.071749173239   111.64377709    31.76565174
 H      5   4   3     2.072869644080   109.36919733    79.38834815
 H      5   4   3     2.073393118395   113.03225727   201.18423277
 H      6   5   4     2.073949048101   112.92591976   151.04475801
 H      6   5   4     2.083414958759   111.40203239   273.27399805
[...]
freq.      89.35  E(vib)   ...       0.47 
freq.      94.62  E(vib)   ...       0.47 
freq.      96.93  E(vib)   ...       0.46 
freq.     101.90  E(vib)   ...       0.46 
freq.     109.71  E(vib)   ...       0.45 
freq.     115.24  E(vib)   ...       0.44 
freq.     118.23  E(vib)   ...       0.44 
freq.     121.22  E(vib)   ...       0.44 
freq.     127.88  E(vib)   ...       0.43 
freq.     128.02  E(vib)   ...       0.43 
freq.     132.66  E(vib)   ...       0.42 
freq.     139.37  E(vib)   ...       0.42 
freq.     147.04  E(vib)   ...       0.41 
freq.     148.56  E(vib)   ...       0.41 
freq.     157.68  E(vib)   ...       0.40 
freq.     159.57  E(vib)   ...       0.39 
freq.     166.49  E(vib)   ...       0.39 
freq.     169.61  E(vib)   ...       0.38 
freq.     176.46  E(vib)   ...       0.38 
freq.     183.29  E(vib)   ...       0.37 
freq.     192.29  E(vib)   ...       0.36 
freq.     195.13  E(vib)   ...       0.36 
freq.     205.60  E(vib)   ...       0.35 
freq.     212.78  E(vib)   ...       0.34 
freq.     219.03  E(vib)   ...       0.33 
freq.     223.22  E(vib)   ...       0.33 
freq.     225.40  E(vib)   ...       0.33 
freq.     231.21  E(vib)   ...       0.32 
freq.     235.02  E(vib)   ...       0.32 
freq.     237.38  E(vib)   ...       0.32 
freq.     238.01  E(vib)   ...       0.32 
freq.     244.20  E(vib)   ...       0.31 
freq.     245.49  E(vib)   ...       0.31 
freq.     248.21  E(vib)   ...       0.31 
freq.     249.78  E(vib)   ...       0.31 
freq.     255.27  E(vib)   ...       0.30 
freq.     258.35  E(vib)   ...       0.30 
freq.     270.48  E(vib)   ...       0.29 
freq.     277.24  E(vib)   ...       0.28 
freq.     284.54  E(vib)   ...       0.28 
freq.     292.65  E(vib)   ...       0.27 
freq.     294.91  E(vib)   ...       0.27 
freq.     299.12  E(vib)   ...       0.26 
freq.     305.41  E(vib)   ...       0.26 
freq.     307.23  E(vib)   ...       0.26 
freq.     321.64  E(vib)   ...       0.25 
freq.     332.24  E(vib)   ...       0.24 
freq.     350.81  E(vib)   ...       0.23 
freq.     354.32  E(vib)   ...       0.22 
freq.     356.51  E(vib)   ...       0.22 
freq.     363.70  E(vib)   ...       0.22 
freq.     377.91  E(vib)   ...       0.21 
freq.     390.74  E(vib)   ...       0.20 
freq.     402.31  E(vib)   ...       0.19 
freq.     403.53  E(vib)   ...       0.19 
freq.     405.31  E(vib)   ...       0.19 
freq.     414.68  E(vib)   ...       0.19 
freq.     436.30  E(vib)   ...       0.17 
freq.     447.26  E(vib)   ...       0.17 
freq.     458.57  E(vib)   ...       0.16 
freq.     468.67  E(vib)   ...       0.16 
freq.     469.94  E(vib)   ...       0.16 
freq.     476.00  E(vib)   ...       0.15 
freq.     504.98  E(vib)   ...       0.14 
freq.     511.40  E(vib)   ...       0.14 
freq.     515.34  E(vib)   ...       0.13 
freq.     522.14  E(vib)   ...       0.13 
freq.     539.16  E(vib)   ...       0.12 
freq.     548.51  E(vib)   ...       0.12 
freq.     560.30  E(vib)   ...       0.11 
freq.     570.88  E(vib)   ...       0.11 
freq.     571.97  E(vib)   ...       0.11 
freq.     596.57  E(vib)   ...       0.10 
freq.     607.42  E(vib)   ...       0.10 
freq.     615.34  E(vib)   ...       0.10 
freq.     635.47  E(vib)   ...       0.09 
freq.     642.77  E(vib)   ...       0.09 
freq.     673.08  E(vib)   ...       0.08 
freq.     693.35  E(vib)   ...       0.07 
freq.     705.15  E(vib)   ...       0.07 
freq.     708.46  E(vib)   ...       0.07 
freq.     710.35  E(vib)   ...       0.07 
freq.     716.65  E(vib)   ...       0.07 
freq.     720.94  E(vib)   ...       0.07 
freq.     726.40  E(vib)   ...       0.06 
freq.     729.51  E(vib)   ...       0.06 
freq.     737.08  E(vib)   ...       0.06 
freq.     738.59  E(vib)   ...       0.06 
freq.     742.48  E(vib)   ...       0.06 
freq.     746.19  E(vib)   ...       0.06 
freq.     770.18  E(vib)   ...       0.05 
freq.     774.91  E(vib)   ...       0.05 
freq.     783.28  E(vib)   ...       0.05 
freq.     789.48  E(vib)   ...       0.05 
freq.     808.13  E(vib)   ...       0.05 
freq.     824.58  E(vib)   ...       0.04 
freq.     825.52  E(vib)   ...       0.04 
freq.     836.60  E(vib)   ...       0.04 
freq.     847.83  E(vib)   ...       0.04 
freq.     855.41  E(vib)   ...       0.04 
freq.     866.04  E(vib)   ...       0.04 
freq.     867.21  E(vib)   ...       0.04 
freq.     877.64  E(vib)   ...       0.04 
freq.     879.19  E(vib)   ...       0.04 
freq.     884.45  E(vib)   ...       0.04 
freq.     887.21  E(vib)   ...       0.04 
freq.     894.26  E(vib)   ...       0.03 
freq.     902.46  E(vib)   ...       0.03 
freq.     903.74  E(vib)   ...       0.03 
freq.     906.09  E(vib)   ...       0.03 
freq.     910.58  E(vib)   ...       0.03 
freq.     921.17  E(vib)   ...       0.03 
freq.     923.93  E(vib)   ...       0.03 
freq.     930.30  E(vib)   ...       0.03 
freq.     937.91  E(vib)   ...       0.03 
freq.     939.97  E(vib)   ...       0.03 
freq.     942.97  E(vib)   ...       0.03 
freq.     951.21  E(vib)   ...       0.03 
freq.     956.39  E(vib)   ...       0.03 
freq.     964.09  E(vib)   ...       0.03 
freq.     972.32  E(vib)   ...       0.03 
freq.     978.84  E(vib)   ...       0.03 
freq.     980.89  E(vib)   ...       0.02 
freq.     982.09  E(vib)   ...       0.02 
freq.     998.62  E(vib)   ...       0.02 
freq.    1003.34  E(vib)   ...       0.02 
freq.    1011.94  E(vib)   ...       0.02 
freq.    1026.50  E(vib)   ...       0.02 
freq.    1029.33  E(vib)   ...       0.02 
freq.    1032.65  E(vib)   ...       0.02 
freq.    1035.96  E(vib)   ...       0.02 
freq.    1040.05  E(vib)   ...       0.02 
freq.    1041.71  E(vib)   ...       0.02 
freq.    1046.53  E(vib)   ...       0.02 
freq.    1049.69  E(vib)   ...       0.02 
freq.    1052.66  E(vib)   ...       0.02 
freq.    1055.18  E(vib)   ...       0.02 
freq.    1058.77  E(vib)   ...       0.02 
freq.    1065.24  E(vib)   ...       0.02 
freq.    1073.37  E(vib)   ...       0.02 
freq.    1077.80  E(vib)   ...       0.02 
freq.    1078.44  E(vib)   ...       0.02 
freq.    1089.04  E(vib)   ...       0.02 
freq.    1102.01  E(vib)   ...       0.02 
freq.    1105.90  E(vib)   ...       0.02 
freq.    1108.65  E(vib)   ...       0.02 
freq.    1117.50  E(vib)   ...       0.01 
freq.    1119.35  E(vib)   ...       0.01 
freq.    1130.61  E(vib)   ...       0.01 
freq.    1131.79  E(vib)   ...       0.01 
freq.    1136.11  E(vib)   ...       0.01 
freq.    1137.67  E(vib)   ...       0.01 
freq.    1146.92  E(vib)   ...       0.01 
freq.    1156.86  E(vib)   ...       0.01 
freq.    1158.36  E(vib)   ...       0.01 
freq.    1160.17  E(vib)   ...       0.01 
freq.    1166.31  E(vib)   ...       0.01 
freq.    1170.50  E(vib)   ...       0.01 
freq.    1171.58  E(vib)   ...       0.01 
freq.    1177.88  E(vib)   ...       0.01 
freq.    1184.19  E(vib)   ...       0.01 
freq.    1198.74  E(vib)   ...       0.01 
freq.    1202.72  E(vib)   ...       0.01 
freq.    1205.72  E(vib)   ...       0.01 
freq.    1209.95  E(vib)   ...       0.01 
freq.    1210.50  E(vib)   ...       0.01 
freq.    1220.39  E(vib)   ...       0.01 
freq.    1223.49  E(vib)   ...       0.01 
freq.    1226.72  E(vib)   ...       0.01 
freq.    1232.68  E(vib)   ...       0.01 
freq.    1236.69  E(vib)   ...       0.01 
freq.    1241.32  E(vib)   ...       0.01 
freq.    1245.63  E(vib)   ...       0.01 
freq.    1246.74  E(vib)   ...       0.01 
freq.    1250.05  E(vib)   ...       0.01 
freq.    1259.86  E(vib)   ...       0.01 
freq.    1263.02  E(vib)   ...       0.01 
freq.    1269.64  E(vib)   ...       0.01 
freq.    1273.06  E(vib)   ...       0.01 
freq.    1279.83  E(vib)   ...       0.01 
freq.    1286.09  E(vib)   ...       0.01 
freq.    1288.19  E(vib)   ...       0.01 
freq.    1288.93  E(vib)   ...       0.01 
freq.    1289.22  E(vib)   ...       0.01 
freq.    1289.47  E(vib)   ...       0.01 
freq.    1291.43  E(vib)   ...       0.01 
freq.    1292.03  E(vib)   ...       0.01 
freq.    1299.27  E(vib)   ...       0.01 
freq.    1301.89  E(vib)   ...       0.01 
freq.    1307.28  E(vib)   ...       0.01 
freq.    1312.46  E(vib)   ...       0.01 
freq.    1313.77  E(vib)   ...       0.01 
freq.    1317.28  E(vib)   ...       0.01 
freq.    1319.18  E(vib)   ...       0.01 
freq.    1326.10  E(vib)   ...       0.01 
freq.    1328.74  E(vib)   ...       0.01 
freq.    1335.80  E(vib)   ...       0.01 
freq.    1337.46  E(vib)   ...       0.01 
freq.    1339.88  E(vib)   ...       0.01 
freq.    1340.88  E(vib)   ...       0.01 
freq.    1341.39  E(vib)   ...       0.01 
freq.    1343.18  E(vib)   ...       0.01 
freq.    1343.63  E(vib)   ...       0.01 
freq.    1345.95  E(vib)   ...       0.01 
freq.    1348.41  E(vib)   ...       0.01 
freq.    1349.91  E(vib)   ...       0.01 
freq.    1350.26  E(vib)   ...       0.01 
freq.    1350.88  E(vib)   ...       0.01 
freq.    1356.03  E(vib)   ...       0.01 
freq.    1362.42  E(vib)   ...       0.01 
freq.    1364.83  E(vib)   ...       0.01 
freq.    1369.59  E(vib)   ...       0.01 
freq.    1370.42  E(vib)   ...       0.01 
freq.    1380.49  E(vib)   ...       0.01 
freq.    1402.39  E(vib)   ...       0.00 
freq.    1423.91  E(vib)   ...       0.00 
freq.    1431.49  E(vib)   ...       0.00 
freq.    1432.37  E(vib)   ...       0.00 
freq.    1434.16  E(vib)   ...       0.00 
freq.    1434.82  E(vib)   ...       0.00 
freq.    1435.42  E(vib)   ...       0.00 
freq.    1436.08  E(vib)   ...       0.00 
freq.    1437.58  E(vib)   ...       0.00 
freq.    1441.22  E(vib)   ...       0.00 
freq.    1441.43  E(vib)   ...       0.00 
freq.    1443.02  E(vib)   ...       0.00 
freq.    1443.76  E(vib)   ...       0.00 
freq.    1444.55  E(vib)   ...       0.00 
freq.    1446.13  E(vib)   ...       0.00 
freq.    1446.20  E(vib)   ...       0.00 
freq.    1448.42  E(vib)   ...       0.00 
freq.    1451.17  E(vib)   ...       0.00 
freq.    1452.66  E(vib)   ...       0.00 
freq.    1453.69  E(vib)   ...       0.00 
freq.    1454.72  E(vib)   ...       0.00 
freq.    1455.30  E(vib)   ...       0.00 
freq.    1456.09  E(vib)   ...       0.00 
freq.    1458.53  E(vib)   ...       0.00 
freq.    1461.54  E(vib)   ...       0.00 
freq.    1462.29  E(vib)   ...       0.00 
freq.    1464.51  E(vib)   ...       0.00 
freq.    1466.09  E(vib)   ...       0.00 
freq.    1466.34  E(vib)   ...       0.00 
freq.    1467.06  E(vib)   ...       0.00 
freq.    1469.15  E(vib)   ...       0.00 
freq.    1489.50  E(vib)   ...       0.00 
freq.    1492.77  E(vib)   ...       0.00 
freq.    1507.96  E(vib)   ...       0.00 
freq.    1612.06  E(vib)   ...       0.00 
freq.    1644.49  E(vib)   ...       0.00 
freq.    1658.92  E(vib)   ...       0.00 
freq.    1668.74  E(vib)   ...       0.00 
freq.    1686.45  E(vib)   ...       0.00 
freq.    1694.84  E(vib)   ...       0.00 
freq.    1708.44  E(vib)   ...       0.00 
freq.    2884.79  E(vib)   ...       0.00 
freq.    2909.14  E(vib)   ...       0.00 
freq.    2913.11  E(vib)   ...       0.00 
freq.    2920.19  E(vib)   ...       0.00 
freq.    2925.56  E(vib)   ...       0.00 
freq.    2932.38  E(vib)   ...       0.00 
freq.    2936.58  E(vib)   ...       0.00 
freq.    2937.44  E(vib)   ...       0.00 
freq.    2941.90  E(vib)   ...       0.00 
freq.    2944.00  E(vib)   ...       0.00 
freq.    2946.58  E(vib)   ...       0.00 
freq.    2946.80  E(vib)   ...       0.00 
freq.    2949.02  E(vib)   ...       0.00 
freq.    2949.47  E(vib)   ...       0.00 
freq.    2949.57  E(vib)   ...       0.00 
freq.    2949.85  E(vib)   ...       0.00 
freq.    2953.27  E(vib)   ...       0.00 
freq.    2955.10  E(vib)   ...       0.00 
freq.    2955.92  E(vib)   ...       0.00 
freq.    2958.34  E(vib)   ...       0.00 
freq.    2958.85  E(vib)   ...       0.00 
freq.    2965.26  E(vib)   ...       0.00 
freq.    2968.72  E(vib)   ...       0.00 
freq.    2972.80  E(vib)   ...       0.00 
freq.    2974.96  E(vib)   ...       0.00 
freq.    2976.65  E(vib)   ...       0.00 
freq.    2978.00  E(vib)   ...       0.00 
freq.    2980.11  E(vib)   ...       0.00 
freq.    2982.03  E(vib)   ...       0.00 
freq.    2987.18  E(vib)   ...       0.00 
freq.    2989.94  E(vib)   ...       0.00 
freq.    2994.04  E(vib)   ...       0.00 
freq.    2994.09  E(vib)   ...       0.00 
freq.    2994.82  E(vib)   ...       0.00 
freq.    2998.29  E(vib)   ...       0.00 
freq.    2999.90  E(vib)   ...       0.00 
freq.    3007.32  E(vib)   ...       0.00 
freq.    3007.99  E(vib)   ...       0.00 
freq.    3008.80  E(vib)   ...       0.00 
freq.    3011.62  E(vib)   ...       0.00 
freq.    3013.82  E(vib)   ...       0.00 
freq.    3014.86  E(vib)   ...       0.00 
freq.    3018.88  E(vib)   ...       0.00 
freq.    3022.14  E(vib)   ...       0.00 
freq.    3025.05  E(vib)   ...       0.00 
freq.    3025.70  E(vib)   ...       0.00 
freq.    3026.11  E(vib)   ...       0.00 
freq.    3027.50  E(vib)   ...       0.00 
freq.    3028.49  E(vib)   ...       0.00 
freq.    3029.38  E(vib)   ...       0.00 
freq.    3031.40  E(vib)   ...       0.00 
freq.    3031.66  E(vib)   ...       0.00 
freq.    3049.69  E(vib)   ...       0.00 
freq.    3051.63  E(vib)   ...       0.00 
freq.    3062.52  E(vib)   ...       0.00 
freq.    3062.81  E(vib)   ...       0.00 
freq.    3069.91  E(vib)   ...       0.00 
freq.    3076.53  E(vib)   ...       0.00 
freq.    3369.06  E(vib)   ...       0.00 
freq.    3423.33  E(vib)   ...       0.00 
freq.    3435.19  E(vib)   ...       0.00 
freq.    3465.40  E(vib)   ...       0.00 
freq.    3498.29  E(vib)   ...       0.00 
freq.    3677.26  E(vib)   ...       0.00 

------------
INNER ENERGY
------------

The inner energy is: U= E(el) + E(ZPE) + E(vib) + E(rot) + E(trans)
    E(el)   - is the total energy from the electronic structure calculation
              = E(kin-el) + E(nuc-el) + E(el-el) + E(nuc-nuc)
    E(ZPE)  - the the zero temperature vibrational energy from the frequency calculation
    E(vib)  - the the finite temperature correction to E(ZPE) due to population
              of excited vibrational states
    E(rot)  - is the rotational thermal energy
    E(trans)- is the translational thermal energy

Summary of contributions to the inner energy U:
Electronic energy                ...  -2380.07808791 Eh
Zero point energy                ...      0.97698761 Eh     613.07 kcal/mol
Thermal vibrational correction   ...      0.05486498 Eh      34.43 kcal/mol
Thermal rotational correction    ...      0.00141627 Eh       0.89 kcal/mol
Thermal translational correction ...      0.00141627 Eh       0.89 kcal/mol
-----------------------------------------------------------------------
Total thermal energy                  -2379.04340277 Eh


Summary of corrections to the electronic energy:
(perhaps to be used in another calculation)
Total thermal correction                  0.05769753 Eh      36.21 kcal/mol
Non-thermal (ZPE) correction              0.97698761 Eh     613.07 kcal/mol
-----------------------------------------------------------------------
Total correction                          1.03468514 Eh     649.27 kcal/mol


--------
ENTHALPY
--------

The enthalpy is H = U + kB*T
                kB is Boltzmann's constant
Total free energy                 ...  -2379.04340277 Eh 
Thermal Enthalpy correction       ...      0.00094421 Eh       0.59 kcal/mol
-----------------------------------------------------------------------
Total Enthalpy                    ...  -2379.04245856 Eh


Note: Only C1 symmetry has been detected, increase convergence thresholds 
      if your molecule has a higher symmetry. Symmetry factor of 1.0 is   
      used for the rotational entropy correction. 
 

Note: Rotational entropy computed according to Herzberg 
Infrared and Raman Spectra, Chapter V,1, Van Nostrand Reinhold, 1945 
Point Group:  C1, Symmetry Number:   1  
Rotational constants in cm-1:     0.002889     0.001319     0.001254 

Vibrational entropy computed according to the QRRHO of S. Grimme
Chem.Eur.J. 2012 18 9955


-------
ENTROPY
-------

The entropy contributions are T*S = T*(S(el)+S(vib)+S(rot)+S(trans))
     S(el)   - electronic entropy
     S(vib)  - vibrational entropy
     S(rot)  - rotational entropy
     S(trans)- translational entropy
The entropies will be listed as mutliplied by the temperature to get
units of energy

Electronic entropy                ...      0.00000000 Eh      0.00 kcal/mol
Vibrational entropy               ...      0.09993195 Eh     62.71 kcal/mol
Rotational entropy                ...      0.01855554 Eh     11.64 kcal/mol
Translational entropy             ...      0.02166895 Eh     13.60 kcal/mol
-----------------------------------------------------------------------
Final entropy term                ...      0.14015644 Eh     87.95 kcal/mol

In case the symmetry of your molecule has not been determined correctly
or in case you have a reason to use a different symmetry number we print 
out the resulting rotational entropy values for sn=1,12 :
 --------------------------------------------------------
|  sn= 1 | S(rot)=       0.01855554 Eh     11.64 kcal/mol|
|  sn= 2 | S(rot)=       0.01790108 Eh     11.23 kcal/mol|
|  sn= 3 | S(rot)=       0.01751825 Eh     10.99 kcal/mol|
|  sn= 4 | S(rot)=       0.01724663 Eh     10.82 kcal/mol|
|  sn= 5 | S(rot)=       0.01703594 Eh     10.69 kcal/mol|
|  sn= 6 | S(rot)=       0.01686380 Eh     10.58 kcal/mol|
|  sn= 7 | S(rot)=       0.01671825 Eh     10.49 kcal/mol|
|  sn= 8 | S(rot)=       0.01659217 Eh     10.41 kcal/mol|
|  sn= 9 | S(rot)=       0.01648096 Eh     10.34 kcal/mol|
|  sn=10 | S(rot)=       0.01638148 Eh     10.28 kcal/mol|
|  sn=11 | S(rot)=       0.01629149 Eh     10.22 kcal/mol|
|  sn=12 | S(rot)=       0.01620934 Eh     10.17 kcal/mol|
 --------------------------------------------------------


-------------------
GIBBS FREE ENERGY
-------------------

The Gibbs free energy is G = H - T*S

Total enthalpy                    ...  -2379.04245856 Eh 
Total entropy correction          ...     -0.14015644 Eh    -87.95 kcal/mol
-----------------------------------------------------------------------
Final Gibbs free energy         ...  -2379.18261500 Eh

For completeness - the Gibbs free energy minus the electronic energy
G-E(el)                           ...      0.89547291 Eh    561.92 kcal/mol

--------------------------------------------------------------------------
WARNING: No preset parameters were found for the device that Open MPI
detected:

  Local host:            eu-g1-024-2
  Device name:           mlx5_0
  Device vendor ID:      0x02c9
  Device vendor part ID: 4123

Default device parameters will be used, which may result in lower
performance.  You can edit any of the files specified by the
btl_openib_device_param_files MCA parameter to set values for your
device.

NOTE: You can turn off this warning by setting the MCA parameter
      btl_openib_warn_no_device_params_found to 0.
--------------------------------------------------------------------------
--------------------------------------------------------------------------
WARNING: There was an error initializing an OpenFabrics device.

  Local host:   eu-g1-024-2
  Local device: mlx5_0
--------------------------------------------------------------------------

Timings for individual modules:

Sum of individual times         ...    40084.128 sec (= 668.069 min)
GTO integral calculation        ...       57.315 sec (=   0.955 min)   0.1 %
SCF iterations                  ...     1563.312 sec (=  26.055 min)   3.9 %
SCF Gradient evaluation         ...      633.913 sec (=  10.565 min)   1.6 %
Geometry relaxation             ...       24.632 sec (=   0.411 min)   0.1 %
Analytical frequency calculation...    37804.955 sec (= 630.083 min)  94.3 %
                             ****ORCA TERMINATED NORMALLY****
TOTAL RUN TIME: 0 days 11 hours 8 minutes 35 seconds 796 msec
