
                                 *****************
                                 * O   R   C   A *
                                 *****************

           --- An Ab Initio, DFT and Semiempirical electronic structure package ---

                  #######################################################
                  #                        -***-                        #
                  #          Department of theory and spectroscopy      #
                  #               Directorship: Frank Neese             #
                  #        Max Planck Institute fuer Kohlenforschung    #
                  #                Kaiser Wilhelm Platz 1               #
                  #                 D-45470 Muelheim/Ruhr               #
                  #                      Germany                        #
                  #                                                     #
                  #                  All rights reserved                #
                  #                        -***-                        #
                  #######################################################


                         Program Version 4.2.0 -  RELEASE  -


 With contributions from (in alphabetic order):
   Daniel Aravena         : Magnetic Suceptibility
   Michael Atanasov       : Ab Initio Ligand Field Theory (pilot matlab implementation)
   Alexander A. Auer      : GIAO ZORA, VPT2
   Ute Becker             : Parallelization
   Giovanni Bistoni       : ED, misc. LED, open-shell LED, HFLED
   Martin Brehm           : Molecular dynamics
   Dmytro Bykov           : SCF Hessian
   Vijay G. Chilkuri      : MRCI spin determinant printing, contributions to CSF-ICE
   Dipayan Datta          : RHF DLPNO-CCSD density
   Achintya Kumar Dutta   : EOM-CC, STEOM-CC
   Dmitry Ganyushin       : Spin-Orbit,Spin-Spin,Magnetic field MRCI
   Miquel Garcia          : C-PCM Hessian, Gaussian charge scheme
   Yang Guo               : DLPNO-NEVPT2, CIM, IAO-localization
   Andreas Hansen         : Spin unrestricted coupled pair/coupled cluster methods
   Benjamin Helmich-Paris : CASSCF linear response (MC-RPA)
   Lee Huntington         : MR-EOM, pCC
   Robert Izsak           : Overlap fitted RIJCOSX, COSX-SCS-MP3, EOM
   Christian Kollmar      : KDIIS, OOCD, Brueckner-CCSD(T), CCSD density
   Simone Kossmann        : Meta GGA functionals, TD-DFT gradient, OOMP2, MP2 Hessian
   Martin Krupicka        : AUTO-CI
   Lucas Lang             : DCDCAS
   Dagmar Lenk            : GEPOL surface, SMD
   Dimitrios Liakos       : Extrapolation schemes; Compound Job, initial MDCI parallelization
   Dimitrios Manganas     : Further ROCIS development; embedding schemes
   Dimitrios Pantazis     : SARC Basis sets
   Taras Petrenko         : DFT Hessian,TD-DFT gradient, ASA, ECA, R-Raman, ABS, FL, XAS/XES, NRVS
   Peter Pinski           : DLPNO-MP2, DLPNO-MP2 Gradient
   Christoph Reimann      : Effective Core Potentials
   Marius Retegan         : Local ZFS, SOC
   Christoph Riplinger    : Optimizer, TS searches, QM/MM, DLPNO-CCSD(T), (RO)-DLPNO pert. Triples
   Tobias Risthaus        : Range-separated hybrids, TD-DFT gradient, RPA, STAB
   Michael Roemelt        : Original ROCIS implementation
   Masaaki Saitow         : Open-shell DLPNO-CCSD energy and density
   Barbara Sandhoefer     : DKH picture change effects
   Avijit Sen             : IP-ROCIS
   Kantharuban Sivalingam : CASSCF convergence, NEVPT2, FIC-MRCI
   Bernardo de Souza      : ESD, SOC TD-DFT
   Georgi Stoychev        : AutoAux, RI-MP2 NMR
   Willem Van den Heuvel  : Paramagnetic NMR
   Boris Wezisla          : Elementary symmetry handling
   Frank Wennmohs         : Technical directorship


 We gratefully acknowledge several colleagues who have allowed us to
 interface, adapt or use parts of their codes:
   Stefan Grimme, W. Hujo, H. Kruse,             : VdW corrections, initial TS optimization,
                  C. Bannwarth                     DFT functionals, gCP, sTDA/sTD-DF
   Ed Valeev, F. Pavosevic, A. Kumar             : LibInt (2-el integral package), F12 methods
   Garnet Chan, S. Sharma, J. Yang, R. Olivares  : DMRG
   Ulf Ekstrom                                   : XCFun DFT Library
   Mihaly Kallay                                 : mrcc  (arbitrary order and MRCC methods)
   Andreas Klamt, Michael Diedenhofen            : otool_cosmo (COSMO solvation model)
   Jiri Pittner, Ondrej Demel                    : Mk-CCSD
   Frank Weinhold                                : gennbo (NPA and NBO analysis)
   Christopher J. Cramer and Donald G. Truhlar   : smd solvation model
   Lars Goerigk                                  : TD-DFT with DH, B97 family of functionals
   V. Asgeirsson, H. Jonsson                     : NEB implementation
   FAccTs GmbH                                   : IRC, NEB, NEB-TS, Multilevel, MM, QM/MM, CI optimization
   S Lehtola, MJT Oliveira, MAL Marques          : LibXC Library


 Your calculation uses the libint2 library for the computation of 2-el integrals
 For citations please refer to: http://libint.valeyev.net

 Your ORCA version has been built with support for libXC version: 4.2.3
 For citations please refer to: https://tddft.org/programs/libxc/

 This ORCA versions uses:
   CBLAS   interface :  Fast vector & matrix operations
   LAPACKE interface :  Fast linear algebra routines
   SCALAPACK package :  Parallel linear algebra routines




***************************************
The coordinates will be read from file: 26.xyz
***************************************


Your calculation utilizes the atom-pairwise dispersion correction
with the Becke-Johnson damping scheme (D3BJ)
Cite in your paper:
S.Grimme, S.Ehrlich, L.Goerigk, J Comput Chem, (2011), 32, 1456–1465 
S.Grimme, J.Antony, S.Ehrlich and H.Krieg, J.Chem.Phys., 132, (2010), 154104 
   

----- Orbital basis set information -----
Your calculation utilizes the basis: def2-TZVP
   F. Weigend and R. Ahlrichs, Phys. Chem. Chem. Phys. 7, 3297 (2005).

----- AuxJ basis set information -----
Your calculation utilizes the auxiliary basis: def2/J
   F. Weigend, Phys. Chem. Chem. Phys. 8, 1057 (2006).

================================================================================
                                        WARNINGS
                       Please study these warnings very carefully!
================================================================================


WARNING: Geometry Optimization
  ===> : Switching off AutoStart
         For restart on a previous wavefunction, please use MOREAD

INFO   : the flag for use of LIBINT has been found!

================================================================================
                                       INPUT FILE
================================================================================
NAME = 26.inp
|  1> !RI BP86 def2-tzvp def2/J D3BJ TIGHTSCF TightOpt Grid5 FinalGrid6 freq
|  2> %maxcore 4000
|  3> %pal nprocs 24
|  4> end
|  5> * xyzfile 0 1 26.xyz 
|  6> 
|  7>                          ****END OF INPUT****
================================================================================

                       *****************************
                       * Geometry Optimization Run *
                       *****************************

Geometry optimization settings:
Update method            Update   .... BFGS
Choice of coordinates    CoordSys .... Z-matrix Internals
Initial Hessian          InHess   .... Almoef's Model

Convergence Tolerances:
Energy Change            TolE     ....  1.0000e-06 Eh
Max. Gradient            TolMAXG  ....  1.0000e-04 Eh/bohr
RMS Gradient             TolRMSG  ....  3.0000e-05 Eh/bohr
Max. Displacement        TolMAXD  ....  1.0000e-03 bohr
RMS Displacement         TolRMSD  ....  6.0000e-04 bohr
Strict Convergence                ....  False
------------------------------------------------------------------------------
                        ORCA OPTIMIZATION COORDINATE SETUP
------------------------------------------------------------------------------

The optimization will be done in new redundant internal coordinates
Making redundant internal coordinates   ...  (new redundants) done
Evaluating the initial hessian          ...  (Almloef) done
Evaluating the coordinates              ...  done
Calculating the B-matrix                .... done
Calculating the G-matrix                .... done
Diagonalizing the G-matrix              .... done
Small eigenvalue found = 2.853e-04
Small eigenvalue found = 3.607e-04
Small eigenvalue found = 2.739e-03
Small eigenvalue found = 3.909e-03
Small eigenvalue found = 4.423e-03
Small eigenvalue found = 5.718e-03
Small eigenvalue found = 6.410e-03
Small eigenvalue found = 7.225e-03
Small eigenvalue found = 8.728e-03
Small eigenvalue found = 9.289e-03
Small eigenvalue found = 9.855e-03
Small eigenvalue found = 1.183e-02
Small eigenvalue found = 1.412e-02
Small eigenvalue found = 1.736e-02
Small eigenvalue found = 2.012e-02
Small eigenvalue found = 2.153e-02
Small eigenvalue found = 2.273e-02
Small eigenvalue found = 2.510e-02
Small eigenvalue found = 2.608e-02
Small eigenvalue found = 2.898e-02
The first mode is                       ....  325
The number of degrees of freedom        ....  339

    -----------------------------------------------------------------
                    Redundant Internal Coordinates


    -----------------------------------------------------------------
         Definition                    Initial Value    Approx d2E/dq
    -----------------------------------------------------------------
      1. B(C   1,O   0)                  1.2267         1.019409   
      2. B(C   2,C   1)                  1.5427         0.356567   
      3. B(C   3,C   2)                  1.5379         0.362910   
      4. B(C   4,C   3)                  1.5353         0.366372   
      5. B(C   5,C   4)                  1.5326         0.370086   
      6. B(N   6,C   5)                  1.4788         0.403861   
      7. B(N   6,C   2)                  1.4781         0.404944   
      8. B(C   7,N   6)                  1.3493         0.649964   
      9. B(O   8,C   7)                  1.2493         0.938419   
     10. B(N   9,C   1)                  1.3598         0.625147   
     11. B(C  10,N   9)                  1.4527         0.444477   
     12. B(C  11,C  10)                  1.5430         0.356139   
     13. B(N  12,C  11)                  1.3638         0.616194   
     14. B(C  13,N  12)                  1.4639         0.426562   
     15. B(C  14,C  13)                  1.5262         0.378890   
     16. B(N  15,C  14)                  1.3552         0.635937   
     17. B(C  16,N  15)                  1.4550         0.440746   
     18. B(C  17,C  16)                  1.5567         0.338614   
     19. B(C  18,C  17)                  1.5440         0.354796   
     20. B(C  19,C  18)                  1.5356         0.366017   
     21. B(N  20,C  19)                  1.3733         0.594995   
     22. B(C  21,N  20)                  1.4610         0.431104   
     23. B(C  22,C  21)                  1.5352         0.366540   
     24. B(N  23,C  22)                  1.3653         0.612838   
     25. B(C  24,N  23)                  1.4528         0.444269   
     26. B(C  24,C   7)                  1.5200         0.387548   
     27. B(C  25,C  24)                  1.5403         0.359696   
     28. B(O  26,C  22)                  1.2291         1.010649   
     29. B(C  27,C  21)                  1.5405         0.359397   
     30. B(C  28,C  27)                  1.5348         0.367075   
     31. B(C  29,C  28)                  1.5321         0.370676   
     32. B(C  30,C  28)                  1.5330         0.369432   
     33. B(O  31,C  19)                  1.2292         1.010281   
     34. B(C  32,C  18)                  1.5429         0.356277   
     35. B(C  33,C  32)                  1.5140         0.396141   
     36. B(C  34,C  33)                  1.5417         0.357863   
     37. B(C  35,C  34)                  1.5287         0.375395   
     38. B(C  36,C  35)                  1.5302         0.373361   
     39. B(C  37,C  36)                  1.5302         0.373244   
     40. B(C  38,C  37)                  1.5303         0.373172   
     41. B(C  39,C  38)                  1.5302         0.373359   
     42. B(C  40,C  39)                  1.5310         0.372210   
     43. B(C  41,C  40)                  1.5298         0.373791   
     44. B(O  42,C  32)                  1.2182         1.052043   
     45. B(O  43,C  17)                  1.4172         0.506405   
     46. B(O  44,C  14)                  1.2411         0.967056   
     47. B(C  45,C  13)                  1.5555         0.340157   
     48. B(C  46,C  45)                  1.5259         0.379206   
     49. B(O  47,C  11)                  1.2316         1.001288   
     50. B(C  48,C  10)                  1.5555         0.340208   
     51. B(C  49,C  48)                  1.5353         0.366364   
     52. B(C  50,C  48)                  1.5302         0.373247   
     53. B(H  51,C   2)                  1.0984         0.349130   
     54. B(H  52,C   3)                  1.0996         0.347679   
     55. B(H  53,C   3)                  1.0956         0.352769   
     56. B(H  54,C   4)                  1.1001         0.347019   
     57. B(H  55,C   4)                  1.0966         0.351499   
     58. B(H  56,C   5)                  1.0974         0.350404   
     59. B(H  57,C   5)                  1.1018         0.344863   
     60. B(H  58,N   9)                  1.0152         0.424522   
     61. B(H  59,C  10)                  1.0993         0.347954   
     62. B(H  60,N  12)                  1.0194         0.417967   
     63. B(H  61,C  13)                  1.0986         0.348939   
     64. B(H  62,O   8)                  1.7581         0.027707   
     65. B(H  62,N  15)                  1.0254         0.408896   
     66. B(H  63,C  16)                  1.1007         0.346202   
     67. B(H  64,C  16)                  1.0978         0.349867   
     68. B(H  65,C  17)                  1.1069         0.338473   
     69. B(H  66,C  18)                  1.1020         0.344600   
     70. B(H  67,N  20)                  1.0165         0.422448   
     71. B(H  68,C  21)                  1.1001         0.347035   
     72. B(H  69,N  23)                  1.0178         0.420472   
     73. B(H  70,C  24)                  1.0975         0.350299   
     74. B(H  71,C  25)                  1.0962         0.351973   
     75. B(H  72,C  25)                  1.0995         0.347711   
     76. B(H  73,C  25)                  1.0980         0.349706   
     77. B(H  74,C  27)                  1.1038         0.342262   
     78. B(H  75,C  27)                  1.1051         0.340720   
     79. B(H  76,C  28)                  1.1028         0.343584   
     80. B(H  77,C  29)                  1.0976         0.350159   
     81. B(H  78,C  29)                  1.1021         0.344471   
     82. B(H  79,C  29)                  1.0994         0.347892   
     83. B(H  80,C  30)                  1.1001         0.347006   
     84. B(H  81,C  30)                  1.0992         0.348160   
     85. B(H  82,C  30)                  1.1016         0.345075   
     86. B(H  83,H  73)                  3.1574         0.000035   
     87. B(H  83,C  33)                  1.0979         0.349833   
     88. B(H  84,C  33)                  1.0996         0.347587   
     89. B(H  85,C  34)                  1.1010         0.345783   
     90. B(H  86,C  34)                  1.1014         0.345341   
     91. B(H  87,C  35)                  1.1051         0.340712   
     92. B(H  88,C  35)                  1.1042         0.341809   
     93. B(H  89,C  36)                  1.1038         0.342250   
     94. B(H  90,C  36)                  1.1041         0.341931   
     95. B(H  91,C  37)                  1.1046         0.341317   
     96. B(H  92,C  37)                  1.1044         0.341546   
     97. B(H  93,C  38)                  1.1043         0.341708   
     98. B(H  94,C  38)                  1.1043         0.341698   
     99. B(H  95,C  39)                  1.1047         0.341222   
    100. B(H  96,C  39)                  1.1046         0.341256   
    101. B(H  97,C  40)                  1.1034         0.342844   
    102. B(H  98,C  40)                  1.1034         0.342862   
    103. B(H  99,C  41)                  1.0994         0.347819   
    104. B(H 100,C  41)                  1.1008         0.346109   
    105. B(H 101,C  41)                  1.1008         0.346107   
    106. B(H 102,O  43)                  0.9844         0.475401   
    107. B(H 103,H  74)                  2.2258         0.001063   
    108. B(H 103,C  45)                  1.1035         0.342699   
    109. B(H 104,C  45)                  1.0988         0.348663   
    110. B(H 105,C  46)                  1.0994         0.347873   
    111. B(H 106,C  46)                  1.0976         0.350172   
    112. B(H 107,C  46)                  1.0990         0.348395   
    113. B(H 108,C  48)                  1.1042         0.341820   
    114. B(H 109,C  49)                  1.1022         0.344257   
    115. B(H 110,H  80)                  2.7793         0.000139   
    116. B(H 110,C  49)                  1.0994         0.347880   
    117. B(H 111,C  49)                  1.0985         0.348966   
    118. B(H 112,C  50)                  1.0992         0.348187   
    119. B(H 113,C  50)                  1.0999         0.347276   
    120. B(H 114,C  50)                  1.0966         0.351470   
    121. A(O   0,C   1,N   9)          124.4981         0.469555   
    122. A(C   2,C   1,N   9)          116.0383         0.391516   
    123. A(O   0,C   1,C   2)          119.4632         0.426921   
    124. A(C   1,C   2,H  51)          104.9138         0.320225   
    125. A(N   6,C   2,H  51)          109.2302         0.325022   
    126. A(C   1,C   2,N   6)          114.9655         0.363198   
    127. A(C   1,C   2,C   3)          112.0071         0.358699   
    128. A(C   3,C   2,H  51)          112.7056         0.321150   
    129. A(C   3,C   2,N   6)          103.2329         0.364294   
    130. A(C   4,C   3,H  53)          114.0739         0.322196   
    131. A(C   4,C   3,H  52)          110.4583         0.321430   
    132. A(C   2,C   3,C   4)          103.3439         0.360360   
    133. A(C   2,C   3,H  53)          111.0241         0.321695   
    134. A(C   2,C   3,H  52)          109.7180         0.320931   
    135. A(H  52,C   3,H  53)          108.1436         0.288312   
    136. A(H  54,C   4,H  55)          107.9506         0.288064   
    137. A(C   3,C   4,H  55)          113.3631         0.322006   
    138. A(C   3,C   4,C   5)          103.3331         0.361566   
    139. A(C   3,C   4,H  54)          110.2145         0.321330   
    140. A(C   5,C   4,H  55)          112.0243         0.322538   
    141. A(C   5,C   4,H  54)          109.9108         0.321861   
    142. A(H  56,C   5,H  57)          108.2894         0.287643   
    143. A(C   4,C   5,N   6)          102.8765         0.365350   
    144. A(C   4,C   5,H  56)          113.1526         0.322373   
    145. A(N   6,C   5,H  57)          110.1092         0.324224   
    146. A(N   6,C   5,H  56)          110.9539         0.325074   
    147. A(C   4,C   5,H  57)          111.3999         0.321533   
    148. A(C   5,N   6,C   7)          127.3054         0.400336   
    149. A(C   2,N   6,C   7)          120.1238         0.400525   
    150. A(C   2,N   6,C   5)          112.2837         0.368717   
    151. A(O   8,C   7,C  24)          120.5265         0.426962   
    152. A(N   6,C   7,O   8)          120.3180         0.465796   
    153. A(N   6,C   7,C  24)          119.1303         0.400004   
    154. A(C   1,N   9,C  10)          124.0059         0.404372   
    155. A(C  10,N   9,H  58)          118.1205         0.338022   
    156. A(C   1,N   9,H  58)          117.8731         0.358008   
    157. A(C  48,C  10,H  59)          109.7047         0.317606   
    158. A(C  11,C  10,H  59)          106.5513         0.319986   
    159. A(N   9,C  10,C  11)          113.6348         0.368964   
    160. A(N   9,C  10,C  48)          108.8547         0.366079   
    161. A(N   9,C  10,H  59)          106.8973         0.329867   
    162. A(C  11,C  10,C  48)          111.0505         0.354713   
    163. A(N  12,C  11,O  47)          122.8209         0.466778   
    164. A(C  10,C  11,O  47)          120.1287         0.425461   
    165. A(C  10,C  11,N  12)          116.9709         0.390448   
    166. A(C  13,N  12,H  60)          122.0619         0.334846   
    167. A(C  11,N  12,C  13)          119.4710         0.400430   
    168. A(C  11,N  12,H  60)          118.4335         0.356189   
    169. A(C  14,C  13,C  45)          107.5314         0.358454   
    170. A(N  12,C  13,H  61)          108.2583         0.327787   
    171. A(C  14,C  13,H  61)          107.4785         0.323396   
    172. A(N  12,C  13,C  14)          115.6545         0.370284   
    173. A(C  45,C  13,H  61)          108.7116         0.317744   
    174. A(N  12,C  13,C  45)          109.0294         0.363502   
    175. A(C  13,C  14,N  15)          117.6364         0.396893   
    176. A(N  15,C  14,O  44)          122.1408         0.466500   
    177. A(C  13,C  14,O  44)          119.5212         0.427534   
    178. A(C  14,N  15,H  62)          122.2145         0.356770   
    179. A(C  16,N  15,H  62)          115.9945         0.335446   
    180. A(C  14,N  15,C  16)          120.8131         0.404992   
    181. A(H  63,C  16,H  64)          107.4882         0.287748   
    182. A(C  17,C  16,H  64)          112.1278         0.317646   
    183. A(N  15,C  16,H  63)          111.6067         0.329133   
    184. A(C  17,C  16,H  63)          108.3203         0.317102   
    185. A(N  15,C  16,C  17)          110.9967         0.365257   
    186. A(N  15,C  16,H  64)          106.2760         0.329706   
    187. A(O  43,C  17,H  65)          108.8382         0.335538   
    188. A(C  18,C  17,H  65)          105.9717         0.318350   
    189. A(C  16,C  17,H  65)          105.4047         0.315939   
    190. A(C  16,C  17,C  18)          115.6800         0.354203   
    191. A(C  18,C  17,O  43)          108.4565         0.377106   
    192. A(C  16,C  17,O  43)          112.0990         0.374078   
    193. A(C  19,C  18,H  66)          107.8998         0.320912   
    194. A(C  17,C  18,H  66)          106.3303         0.319283   
    195. A(C  17,C  18,C  32)          116.7034         0.357273   
    196. A(C  17,C  18,C  19)          110.7443         0.358916   
    197. A(C  19,C  18,C  32)          110.2892         0.359171   
    198. A(C  32,C  18,H  66)          104.2577         0.319500   
    199. A(C  18,C  19,N  20)          114.5150         0.389927   
    200. A(N  20,C  19,O  31)          121.7204         0.464555   
    201. A(C  18,C  19,O  31)          123.7545         0.428236   
    202. A(C  19,N  20,H  67)          118.2548         0.354721   
    203. A(C  19,N  20,C  21)          123.1502         0.398714   
    204. A(C  21,N  20,H  67)          116.9207         0.336032   
    205. A(C  27,C  21,H  68)          110.7501         0.320324   
    206. A(C  22,C  21,H  68)          104.9172         0.321357   
    207. A(N  20,C  21,H  68)          109.8723         0.328064   
    208. A(N  20,C  21,C  22)          113.2114         0.368853   
    209. A(C  22,C  21,C  27)          110.5403         0.359792   
    210. A(N  20,C  21,C  27)          107.5767         0.367609   
    211. A(C  21,C  22,N  23)          115.3183         0.392044   
    212. A(C  21,C  22,O  26)          121.3323         0.428374   
    213. A(N  23,C  22,O  26)          123.1729         0.467106   
    214. A(C  22,N  23,C  24)          120.0651         0.402922   
    215. A(C  24,N  23,H  69)          118.0097         0.337456   
    216. A(C  22,N  23,H  69)          117.6059         0.356220   
    217. A(C  25,C  24,H  70)          108.9756         0.320858   
    218. A(N  23,C  24,H  70)          106.3357         0.330208   
    219. A(C   7,C  24,H  70)          111.7668         0.324805   
    220. A(N  23,C  24,C  25)          112.2472         0.369565   
    221. A(C   7,C  24,N  23)          108.2539         0.374341   
    222. A(C   7,C  24,C  25)          109.2677         0.363281   
    223. A(H  71,C  25,H  73)          108.7787         0.288473   
    224. A(C  24,C  25,H  73)          110.2022         0.320769   
    225. A(H  71,C  25,H  72)          108.9885         0.288214   
    226. A(C  24,C  25,H  72)          111.1036         0.320469   
    227. A(C  24,C  25,H  71)          109.0007         0.321109   
    228. A(H  72,C  25,H  73)          108.7253         0.287923   
    229. A(C  28,C  27,H  75)          108.7174         0.320469   
    230. A(C  21,C  27,C  28)          116.5007         0.359881   
    231. A(H  74,C  27,H  75)          106.7941         0.286049   
    232. A(C  21,C  27,H  75)          107.6606         0.319365   
    233. A(C  28,C  27,H  74)          108.8930         0.320706   
    234. A(C  21,C  27,H  74)          107.8647         0.319600   
    235. A(C  29,C  28,C  30)          111.2946         0.362178   
    236. A(C  27,C  28,C  30)          109.1473         0.361575   
    237. A(C  27,C  28,C  29)          112.1962         0.361782   
    238. A(C  30,C  28,H  76)          108.2234         0.321245   
    239. A(C  29,C  28,H  76)          107.8635         0.321421   
    240. A(C  27,C  28,H  76)          107.9759         0.320908   
    241. A(C  28,C  29,H  79)          110.5644         0.322078   
    242. A(H  78,C  29,H  79)          107.6145         0.287269   
    243. A(H  77,C  29,H  79)          107.5674         0.288005   
    244. A(H  77,C  29,H  78)          108.6931         0.287560   
    245. A(C  28,C  29,H  78)          110.7946         0.321557   
    246. A(C  28,C  29,H  77)          111.4660         0.322421   
    247. A(H  81,C  30,H  82)          107.6026         0.287382   
    248. A(H  80,C  30,H  82)          107.7513         0.287233   
    249. A(C  28,C  30,H  82)          110.9114         0.321472   
    250. A(H  80,C  30,H  81)          107.9693         0.287633   
    251. A(C  28,C  30,H  81)          110.9364         0.321941   
    252. A(C  28,C  30,H  80)          111.5067         0.321766   
    253. A(C  33,C  32,O  42)          121.2195         0.437545   
    254. A(C  18,C  32,O  42)          118.5613         0.429277   
    255. A(C  18,C  32,C  33)          120.2114         0.364050   
    256. A(C  32,C  33,C  34)          110.8971         0.364327   
    257. A(C  34,C  33,H  84)          109.7089         0.320183   
    258. A(H  83,C  33,H  84)          107.3021         0.287924   
    259. A(C  32,C  33,H  84)          107.0821         0.325562   
    260. A(C  34,C  33,H  83)          110.6456         0.320521   
    261. A(C  32,C  33,H  83)          111.0685         0.325907   
    262. A(C  33,C  34,C  35)          112.2972         0.360995   
    263. A(H  85,C  34,H  86)          105.8506         0.287109   
    264. A(C  35,C  34,H  86)          109.9877         0.322357   
    265. A(C  33,C  34,H  86)          109.7859         0.319844   
    266. A(C  35,C  34,H  85)          110.3208         0.322424   
    267. A(C  33,C  34,H  85)          108.3843         0.319911   
    268. A(C  34,C  35,C  36)          113.0695         0.363618   
    269. A(H  87,C  35,H  88)          105.9018         0.285989   
    270. A(C  36,C  35,H  88)          109.5231         0.321528   
    271. A(C  34,C  35,H  88)          109.5903         0.321815   
    272. A(C  36,C  35,H  87)          109.2188         0.321359   
    273. A(C  34,C  35,H  87)          109.2852         0.321645   
    274. A(C  35,C  36,C  37)          113.4387         0.363261   
    275. A(H  89,C  36,H  90)          105.8983         0.286206   
    276. A(C  37,C  36,H  90)          109.3565         0.321531   
    277. A(C  35,C  36,H  90)          109.2408         0.321547   
    278. A(C  37,C  36,H  89)          109.3792         0.321580   
    279. A(C  35,C  36,H  89)          109.2512         0.321596   
    280. A(C  36,C  37,C  38)          113.4929         0.363230   
    281. A(H  91,C  37,H  92)          105.9210         0.286034   
    282. A(C  38,C  37,H  92)          109.2947         0.321461   
    283. A(C  36,C  37,H  92)          109.3049         0.321471   
    284. A(C  38,C  37,H  91)          109.2660         0.321426   
    285. A(C  36,C  37,H  91)          109.2834         0.321436   
    286. A(C  37,C  38,C  39)          113.5411         0.363249   
    287. A(H  93,C  38,H  94)          105.8936         0.286105   
    288. A(C  39,C  38,H  94)          109.3031         0.321511   
    289. A(C  37,C  38,H  94)          109.2717         0.321485   
    290. A(C  39,C  38,H  93)          109.2989         0.321513   
    291. A(C  37,C  38,H  93)          109.2492         0.321486   
    292. A(C  38,C  39,C  40)          113.5866         0.363088   
    293. A(H  95,C  39,H  96)          105.8751         0.285983   
    294. A(C  40,C  39,H  96)          109.2344         0.321281   
    295. A(C  38,C  39,H  96)          109.3160         0.321443   
    296. A(C  40,C  39,H  95)          109.2251         0.321276   
    297. A(C  38,C  39,H  95)          109.3158         0.321438   
    298. A(C  39,C  40,C  41)          113.1359         0.363160   
    299. A(H  97,C  40,H  98)          105.9367         0.286405   
    300. A(C  41,C  40,H  98)          109.6401         0.321751   
    301. A(C  39,C  40,H  98)          109.1223         0.321528   
    302. A(C  41,C  40,H  97)          109.6363         0.321748   
    303. A(C  39,C  40,H  97)          109.1142         0.321525   
    304. A(H 100,C  41,H 101)          107.4494         0.287251   
    305. A(H  99,C  41,H 101)          107.6810         0.287472   
    306. A(C  40,C  41,H 101)          111.0879         0.322248   
    307. A(H  99,C  41,H 100)          107.6873         0.287472   
    308. A(C  40,C  41,H 100)          111.0862         0.322248   
    309. A(C  40,C  41,H  99)          111.6570         0.322508   
    310. A(C  17,O  43,H 102)          103.5989         0.352139   
    311. A(C  13,C  45,C  46)          115.5946         0.358505   
    312. A(C  46,C  45,H 104)          109.4865         0.323398   
    313. A(C  13,C  45,H 104)          105.8361         0.317703   
    314. A(C  46,C  45,H 103)          110.8808         0.322485   
    315. A(C  13,C  45,H 103)          107.3700         0.316812   
    316. A(H 103,C  45,H 104)          107.2549         0.287137   
    317. A(H 106,C  46,H 107)          107.1755         0.288072   
    318. A(H 105,C  46,H 107)          107.8474         0.287775   
    319. A(C  45,C  46,H 107)          110.8296         0.323358   
    320. A(H 105,C  46,H 106)          108.4333         0.288004   
    321. A(C  45,C  46,H 106)          112.3747         0.323628   
    322. A(C  45,C  46,H 105)          110.0219         0.323278   
    323. A(C  50,C  48,H 108)          107.9376         0.321514   
    324. A(C  49,C  48,H 108)          108.2611         0.320537   
    325. A(C  10,C  48,H 108)          104.3831         0.316687   
    326. A(C  49,C  48,C  50)          111.1926         0.362090   
    327. A(C  10,C  48,C  50)          112.7975         0.357550   
    328. A(C  10,C  48,C  49)          111.8685         0.356421   
    329. A(H 110,C  49,H 111)          107.7857         0.287850   
    330. A(H 109,C  49,H 111)          106.9600         0.287379   
    331. A(C  48,C  49,H 111)          110.3965         0.321624   
    332. A(H 109,C  49,H 110)          107.4851         0.287239   
    333. A(C  48,C  49,H 110)          110.7306         0.321459   
    334. A(C  48,C  49,H 109)          113.2499         0.320909   
    335. A(H 113,C  50,H 114)          108.9501         0.288093   
    336. A(H 112,C  50,H 114)          107.6687         0.288212   
    337. A(C  48,C  50,H 114)          111.0272         0.322984   
    338. A(H 112,C  50,H 113)          108.1132         0.287671   
    339. A(C  48,C  50,H 113)          109.9276         0.322349   
    340. A(C  48,C  50,H 112)          111.0646         0.322487   
    341. D(H  51,C   2,C   1,N   9)   -123.5395         0.009576   
    342. D(C   3,C   2,C   1,N   9)    113.8797         0.009576   
    343. D(N   6,C   2,C   1,N   9)     -3.5409         0.009576   
    344. D(N   6,C   2,C   1,O   0)    176.2607         0.009576   
    345. D(C   3,C   2,C   1,O   0)    -66.3187         0.009576   
    346. D(H  51,C   2,C   1,O   0)     56.2622         0.009576   
    347. D(C   4,C   3,C   2,N   6)     29.7656         0.010555   
    348. D(H  53,C   3,C   2,H  51)    -89.8093         0.010555   
    349. D(H  53,C   3,C   2,C   1)     28.2267         0.010555   
    350. D(C   4,C   3,C   2,H  51)    147.4867         0.010555   
    351. D(H  53,C   3,C   2,N   6)    152.4696         0.010555   
    352. D(H  52,C   3,C   2,H  51)     29.6720         0.010555   
    353. D(C   4,C   3,C   2,C   1)    -94.4773         0.010555   
    354. D(H  52,C   3,C   2,C   1)    147.7080         0.010555   
    355. D(H  52,C   3,C   2,N   6)    -88.0491         0.010555   
    356. D(H  55,C   4,C   3,H  53)     78.8608         0.010743   
    357. D(H  55,C   4,C   3,H  52)    -43.1918         0.010743   
    358. D(H  54,C   4,C   3,H  52)   -164.3109         0.010743   
    359. D(H  55,C   4,C   3,C   2)   -160.4876         0.010743   
    360. D(H  54,C   4,C   3,H  53)    -42.2583         0.010743   
    361. D(C   5,C   4,C   3,C   2)    -39.0086         0.010743   
    362. D(H  54,C   4,C   3,C   2)     78.3933         0.010743   
    363. D(C   5,C   4,C   3,H  53)   -159.6602         0.010743   
    364. D(C   5,C   4,C   3,H  52)     78.2872         0.010743   
    365. D(N   6,C   5,C   4,C   3)     32.5428         0.010949   
    366. D(H  57,C   5,C   4,C   3)    -85.3864         0.010949   
    367. D(H  56,C   5,C   4,H  55)    -85.2959         0.010949   
    368. D(H  56,C   5,C   4,C   3)    152.3266         0.010949   
    369. D(H  57,C   5,C   4,H  54)    156.9987         0.010949   
    370. D(H  56,C   5,C   4,H  54)     34.7117         0.010949   
    371. D(H  57,C   5,C   4,H  55)     36.9911         0.010949   
    372. D(N   6,C   5,C   4,H  54)    -85.0721         0.010949   
    373. D(N   6,C   5,C   4,H  55)    154.9203         0.010949   
    374. D(C   5,N   6,C   2,C   3)     -9.6900         0.013994   
    375. D(C   7,N   6,C   5,H  57)    -69.3293         0.013921   
    376. D(C   7,N   6,C   5,H  56)     50.5424         0.013921   
    377. D(C   7,N   6,C   5,C   4)    171.8361         0.013921   
    378. D(C   2,N   6,C   5,H  57)    104.4544         0.013921   
    379. D(C   2,N   6,C   5,H  56)   -135.6738         0.013921   
    380. D(C   7,N   6,C   2,H  51)     44.4637         0.013994   
    381. D(C   2,N   6,C   5,C   4)    -14.3801         0.013921   
    382. D(C   7,N   6,C   2,C   3)    164.5952         0.013994   
    383. D(C   5,N   6,C   2,C   1)    112.5928         0.013994   
    384. D(C   7,N   6,C   2,C   1)    -73.1220         0.013994   
    385. D(C   5,N   6,C   2,H  51)   -129.8214         0.013994   
    386. D(C  24,C   7,N   6,C   5)      1.6131         0.034476   
    387. D(C  24,C   7,N   6,C   2)   -171.7348         0.034476   
    388. D(O   8,C   7,N   6,C   5)    179.7928         0.034476   
    389. D(O   8,C   7,N   6,C   2)      6.4448         0.034476   
    390. D(H  58,N   9,C   1,O   0)    177.4713         0.031687   
    391. D(C  10,N   9,C   1,C   2)    177.5087         0.031687   
    392. D(H  58,N   9,C   1,C   2)     -2.7382         0.031687   
    393. D(C  10,N   9,C   1,O   0)     -2.2818         0.031687   
    394. D(H  59,C  10,N   9,C   1)     20.5971         0.016849   
    395. D(C  48,C  10,N   9,H  58)    -40.7242         0.016849   
    396. D(C  48,C  10,N   9,C   1)    139.0283         0.016849   
    397. D(C  11,C  10,N   9,C   1)    -96.6560         0.016849   
    398. D(H  59,C  10,N   9,H  58)   -159.1554         0.016849   
    399. D(C  11,C  10,N   9,H  58)     83.5915         0.016849   
    400. D(O  47,C  11,C  10,N   9)    174.3534         0.009555   
    401. D(N  12,C  11,C  10,H  59)   -126.2510         0.009555   
    402. D(N  12,C  11,C  10,C  48)    114.3242         0.009555   
    403. D(N  12,C  11,C  10,N   9)     -8.7969         0.009555   
    404. D(O  47,C  11,C  10,H  59)     56.8993         0.009555   
    405. D(O  47,C  11,C  10,C  48)    -62.5255         0.009555   
    406. D(H  60,N  12,C  11,O  47)   -175.1993         0.030716   
    407. D(H  60,N  12,C  11,C  10)      8.0430         0.030716   
    408. D(C  13,N  12,C  11,O  47)      6.8641         0.030716   
    409. D(C  13,N  12,C  11,C  10)   -169.8936         0.030716   
    410. D(H  61,C  13,N  12,C  11)    -45.9397         0.015513   
    411. D(H  61,C  13,N  12,H  60)    136.2014         0.015513   
    412. D(C  45,C  13,N  12,H  60)   -105.6911         0.015513   
    413. D(C  45,C  13,N  12,C  11)     72.1678         0.015513   
    414. D(C  14,C  13,N  12,C  11)   -166.5576         0.015513   
    415. D(C  14,C  13,N  12,H  60)     15.5835         0.015513   
    416. D(O  44,C  14,C  13,C  45)    -80.9184         0.010716   
    417. D(O  44,C  14,C  13,N  12)    157.0050         0.010716   
    418. D(N  15,C  14,C  13,H  61)   -153.4241         0.010716   
    419. D(N  15,C  14,C  13,C  45)     89.6917         0.010716   
    420. D(O  44,C  14,C  13,H  61)     35.9659         0.010716   
    421. D(N  15,C  14,C  13,N  12)    -32.3849         0.010716   
    422. D(H  62,N  15,C  14,O  44)   -163.3156         0.032882   
    423. D(H  62,N  15,C  14,C  13)     26.3366         0.032882   
    424. D(C  16,N  15,C  14,O  44)      4.9148         0.032882   
    425. D(C  16,N  15,C  14,C  13)   -165.4330         0.032882   
    426. D(H  64,C  16,N  15,H  62)    -13.4365         0.016565   
    427. D(H  64,C  16,N  15,C  14)    177.6330         0.016565   
    428. D(H  63,C  16,N  15,H  62)    103.4583         0.016565   
    429. D(H  63,C  16,N  15,C  14)    -65.4722         0.016565   
    430. D(C  17,C  16,N  15,C  14)     55.4677         0.016565   
    431. D(C  17,C  16,N  15,H  62)   -135.6019         0.016565   
    432. D(H  65,C  17,C  16,H  64)   -109.0791         0.009291   
    433. D(H  65,C  17,C  16,H  63)    132.4728         0.009291   
    434. D(H  65,C  17,C  16,N  15)      9.6146         0.009291   
    435. D(O  43,C  17,C  16,H  64)    132.6681         0.009291   
    436. D(O  43,C  17,C  16,H  63)     14.2199         0.009291   
    437. D(O  43,C  17,C  16,N  15)   -108.6382         0.009291   
    438. D(C  18,C  17,C  16,H  64)      7.6123         0.009291   
    439. D(C  18,C  17,C  16,H  63)   -110.8358         0.009291   
    440. D(C  18,C  17,C  16,N  15)    126.3060         0.009291   
    441. D(H  66,C  18,C  17,H  65)    -54.9383         0.010121   
    442. D(H  66,C  18,C  17,O  43)     61.7796         0.010121   
    443. D(H  66,C  18,C  17,C  16)   -171.3106         0.010121   
    444. D(C  32,C  18,C  17,O  43)    -53.9840         0.010121   
    445. D(C  32,C  18,C  17,C  16)     72.9257         0.010121   
    446. D(C  32,C  18,C  17,H  65)   -170.7019         0.010121   
    447. D(C  19,C  18,C  17,H  65)     62.0269         0.010121   
    448. D(C  19,C  18,C  17,O  43)    178.7448         0.010121   
    449. D(C  19,C  18,C  17,C  16)    -54.3455         0.010121   
    450. D(O  31,C  19,C  18,H  66)   -119.3797         0.010048   
    451. D(O  31,C  19,C  18,C  32)     -6.0926         0.010048   
    452. D(O  31,C  19,C  18,C  17)    124.6253         0.010048   
    453. D(N  20,C  19,C  18,H  66)     61.7613         0.010048   
    454. D(N  20,C  19,C  18,C  17)    -54.2337         0.010048   
    455. D(N  20,C  19,C  18,C  32)    175.0484         0.010048   
    456. D(H  67,N  20,C  19,O  31)    174.8701         0.028492   
    457. D(H  67,N  20,C  19,C  18)     -6.2451         0.028492   
    458. D(C  21,N  20,C  19,O  31)     10.0872         0.028492   
    459. D(C  21,N  20,C  19,C  18)   -171.0280         0.028492   
    460. D(H  68,C  21,N  20,H  67)   -109.1128         0.015845   
    461. D(H  68,C  21,N  20,C  19)     55.8585         0.015845   
    462. D(C  27,C  21,N  20,H  67)     11.5291         0.015845   
    463. D(C  27,C  21,N  20,C  19)    176.5004         0.015845   
    464. D(C  22,C  21,N  20,H  67)    133.9617         0.015845   
    465. D(C  22,C  21,N  20,C  19)    -61.0670         0.015845   
    466. D(N  23,C  22,C  21,C  27)     87.1535         0.010075   
    467. D(N  23,C  22,C  21,N  20)    -33.6147         0.010075   
    468. D(O  26,C  22,C  21,H  68)     31.2648         0.010075   
    469. D(O  26,C  22,C  21,C  27)    -88.1651         0.010075   
    470. D(O  26,C  22,C  21,N  20)    151.0668         0.010075   
    471. D(N  23,C  22,C  21,H  68)   -153.4167         0.010075   
    472. D(H  69,N  23,C  22,O  26)   -169.0237         0.030357   
    473. D(H  69,N  23,C  22,C  21)     15.7538         0.030357   
    474. D(C  24,N  23,C  22,O  26)    -12.8122         0.030357   
    475. D(C  24,N  23,C  22,C  21)    171.9654         0.030357   
    476. D(H  70,C  24,N  23,H  69)   -164.8062         0.016833   
    477. D(H  70,C  24,N  23,C  22)     39.0763         0.016833   
    478. D(C  25,C  24,N  23,H  69)     76.1166         0.016833   
    479. D(C  25,C  24,N  23,C  22)    -80.0009         0.016833   
    480. D(C   7,C  24,N  23,H  69)    -44.5692         0.016833   
    481. D(C   7,C  24,N  23,C  22)    159.3133         0.016833   
    482. D(H  70,C  24,C   7,O   8)    157.4210         0.011182   
    483. D(H  70,C  24,C   7,N   6)    -24.4033         0.011182   
    484. D(C  25,C  24,C   7,O   8)    -81.8829         0.011182   
    485. D(C  25,C  24,C   7,N   6)     96.2928         0.011182   
    486. D(N  23,C  24,C   7,O   8)     40.6385         0.011182   
    487. D(N  23,C  24,C   7,N   6)   -141.1858         0.011182   
    488. D(H  73,C  25,C  24,H  70)    179.9156         0.010381   
    489. D(H  73,C  25,C  24,N  23)    -62.5680         0.010381   
    490. D(H  73,C  25,C  24,C   7)     57.5307         0.010381   
    491. D(H  72,C  25,C  24,H  70)     59.3395         0.010381   
    492. D(H  72,C  25,C  24,N  23)    176.8558         0.010381   
    493. D(H  72,C  25,C  24,C   7)    -63.0455         0.010381   
    494. D(H  71,C  25,C  24,H  70)    -60.7772         0.010381   
    495. D(H  71,C  25,C  24,N  23)     56.7391         0.010381   
    496. D(H  71,C  25,C  24,C   7)    176.8378         0.010381   
    497. D(H  75,C  27,C  21,H  68)     60.7503         0.010365   
    498. D(H  75,C  27,C  21,C  22)    176.5945         0.010365   
    499. D(H  75,C  27,C  21,N  20)    -59.3370         0.010365   
    500. D(H  74,C  27,C  21,H  68)    175.6609         0.010365   
    501. D(H  74,C  27,C  21,C  22)    -68.4950         0.010365   
    502. D(H  74,C  27,C  21,N  20)     55.5736         0.010365   
    503. D(C  28,C  27,C  21,H  68)    -61.5975         0.010365   
    504. D(C  28,C  27,C  21,C  22)     54.2466         0.010365   
    505. D(C  28,C  27,C  21,N  20)    178.3152         0.010365   
    506. D(H  76,C  28,C  27,H  75)    179.4009         0.010782   
    507. D(H  76,C  28,C  27,H  74)     63.3993         0.010782   
    508. D(H  76,C  28,C  27,C  21)    -58.8054         0.010782   
    509. D(C  30,C  28,C  27,H  75)     61.9701         0.010782   
    510. D(C  30,C  28,C  27,H  74)    -54.0315         0.010782   
    511. D(C  30,C  28,C  27,C  21)   -176.2362         0.010782   
    512. D(C  29,C  28,C  27,H  75)    -61.8690         0.010782   
    513. D(C  29,C  28,C  27,H  74)   -177.8706         0.010782   
    514. D(C  29,C  28,C  27,C  21)     59.9247         0.010782   
    515. D(H  79,C  29,C  28,C  30)     53.5280         0.010981   
    516. D(H  79,C  29,C  28,C  27)    176.1599         0.010981   
    517. D(H  78,C  29,C  28,H  76)    175.7340         0.010981   
    518. D(H  78,C  29,C  28,C  30)    -65.6943         0.010981   
    519. D(H  78,C  29,C  28,C  27)     56.9377         0.010981   
    520. D(H  77,C  29,C  28,H  76)     54.5550         0.010981   
    521. D(H  77,C  29,C  28,C  30)    173.1267         0.010981   
    522. D(H  79,C  29,C  28,H  76)    -65.0438         0.010981   
    523. D(H  77,C  29,C  28,C  27)    -64.2413         0.010981   
    524. D(H  82,C  30,C  28,H  76)    179.2171         0.010912   
    525. D(H  82,C  30,C  28,C  29)     60.8617         0.010912   
    526. D(H  82,C  30,C  28,C  27)    -63.5085         0.010912   
    527. D(H  81,C  30,C  28,H  76)     59.6919         0.010912   
    528. D(H  81,C  30,C  28,C  29)    -58.6636         0.010912   
    529. D(H  81,C  30,C  28,C  27)    176.9663         0.010912   
    530. D(H  80,C  30,C  28,H  76)    -60.6922         0.010912   
    531. D(H  80,C  30,C  28,C  29)   -179.0476         0.010912   
    532. D(H  80,C  30,C  28,C  27)     56.5822         0.010912   
    533. D(O  42,C  32,C  18,H  66)      6.4330         0.009561   
    534. D(O  42,C  32,C  18,C  19)   -109.1642         0.009561   
    535. D(O  42,C  32,C  18,C  17)    123.3417         0.009561   
    536. D(C  33,C  32,C  18,H  66)   -172.5674         0.009561   
    537. D(C  33,C  32,C  18,C  19)     71.8353         0.009561   
    538. D(C  33,C  32,C  18,C  17)    -55.6588         0.009561   
    539. D(H  84,C  33,C  32,O  42)     42.2831         0.011657   
    540. D(H  84,C  33,C  32,C  18)   -138.7435         0.011657   
    541. D(H  83,C  33,C  32,O  42)    159.1428         0.011657   
    542. D(H  83,C  33,C  32,C  18)    -21.8838         0.011657   
    543. D(C  34,C  33,C  32,O  42)    -77.3849         0.011657   
    544. D(C  34,C  33,C  32,C  18)    101.5885         0.011657   
    545. D(H  86,C  34,C  33,H  84)   -169.1986         0.010283   
    546. D(H  86,C  34,C  33,H  83)     72.6001         0.010283   
    547. D(H  86,C  34,C  33,C  32)    -51.1148         0.010283   
    548. D(H  85,C  34,C  33,H  84)    -54.0202         0.010283   
    549. D(H  85,C  34,C  33,H  83)   -172.2215         0.010283   
    550. D(H  85,C  34,C  33,C  32)     64.0636         0.010283   
    551. D(C  35,C  34,C  33,H  84)     68.1081         0.010283   
    552. D(C  35,C  34,C  33,H  83)    -50.0932         0.010283   
    553. D(C  35,C  34,C  33,C  32)   -173.8081         0.010283   
    554. D(H  88,C  35,C  34,H  86)   -179.7086         0.011246   
    555. D(H  88,C  35,C  34,H  85)     63.8923         0.011246   
    556. D(H  88,C  35,C  34,C  33)    -57.1293         0.011246   
    557. D(H  87,C  35,C  34,H  86)    -64.0733         0.011246   
    558. D(H  87,C  35,C  34,H  85)    179.5276         0.011246   
    559. D(H  87,C  35,C  34,C  33)     58.5060         0.011246   
    560. D(C  36,C  35,C  34,H  86)     57.8029         0.011246   
    561. D(C  36,C  35,C  34,H  85)    -58.5962         0.011246   
    562. D(C  36,C  35,C  34,C  33)   -179.6178         0.011246   
    563. D(H  90,C  36,C  35,H  87)     65.0354         0.011132   
    564. D(H  90,C  36,C  35,C  34)    -56.8781         0.011132   
    565. D(H  89,C  36,C  35,H  88)    -63.9860         0.011132   
    566. D(H  89,C  36,C  35,H  87)   -179.5466         0.011132   
    567. D(H  89,C  36,C  35,C  34)     58.5400         0.011132   
    568. D(C  37,C  36,C  35,H  88)     58.3235         0.011132   
    569. D(C  37,C  36,C  35,H  87)    -57.2371         0.011132   
    570. D(H  90,C  36,C  35,H  88)   -179.4040         0.011132   
    571. D(C  37,C  36,C  35,C  34)   -179.1506         0.011132   
    572. D(H  92,C  37,C  36,H  90)   -179.8660         0.011125   
    573. D(H  92,C  37,C  36,H  89)     64.5807         0.011125   
    574. D(H  92,C  37,C  36,C  35)    -57.6577         0.011125   
    575. D(H  91,C  37,C  36,H  90)    -64.3676         0.011125   
    576. D(H  91,C  37,C  36,H  89)   -179.9209         0.011125   
    577. D(H  91,C  37,C  36,C  35)     57.8407         0.011125   
    578. D(C  38,C  37,C  36,H  90)     57.8568         0.011125   
    579. D(C  38,C  37,C  36,H  89)    -57.6965         0.011125   
    580. D(C  38,C  37,C  36,C  35)   -179.9349         0.011125   
    581. D(H  94,C  38,C  37,H  92)   -179.9010         0.011121   
    582. D(H  94,C  38,C  37,H  91)     64.6159         0.011121   
    583. D(H  94,C  38,C  37,C  36)    -57.6181         0.011121   
    584. D(H  93,C  38,C  37,H  92)    -64.4727         0.011121   
    585. D(H  93,C  38,C  37,H  91)   -179.9558         0.011121   
    586. D(H  93,C  38,C  37,C  36)     57.8102         0.011121   
    587. D(C  39,C  38,C  37,H  92)     57.8022         0.011121   
    588. D(C  39,C  38,C  37,H  91)    -57.6809         0.011121   
    589. D(C  39,C  38,C  37,C  36)   -179.9149         0.011121   
    590. D(H  95,C  39,C  38,H  94)    -64.4632         0.011131   
    591. D(H  95,C  39,C  38,H  93)   -179.9365         0.011131   
    592. D(H  95,C  39,C  38,C  37)     57.8161         0.011131   
    593. D(C  40,C  39,C  38,H  94)     57.7969         0.011131   
    594. D(C  40,C  39,C  38,H  93)    -57.6764         0.011131   
    595. D(C  40,C  39,C  38,C  37)   -179.9237         0.011131   
    596. D(H  96,C  39,C  38,H  94)   -179.9309         0.011131   
    597. D(H  96,C  39,C  38,H  93)     64.5958         0.011131   
    598. D(H  96,C  39,C  38,C  37)    -57.6515         0.011131   
    599. D(H  98,C  40,C  39,H  95)     64.6682         0.011067   
    600. D(H  98,C  40,C  39,C  38)    -57.6421         0.011067   
    601. D(H  97,C  40,C  39,H  96)    -64.6361         0.011067   
    602. D(H  97,C  40,C  39,H  95)    179.9916         0.011067   
    603. D(H  97,C  40,C  39,C  38)     57.6813         0.011067   
    604. D(C  41,C  40,C  39,H  96)     57.6969         0.011067   
    605. D(C  41,C  40,C  39,H  95)    -57.6755         0.011067   
    606. D(H  98,C  40,C  39,H  96)   -179.9594         0.011067   
    607. D(C  41,C  40,C  39,C  38)   -179.9858         0.011067   
    608. D(H 101,C  41,C  40,H  98)    -62.2509         0.011156   
    609. D(H 101,C  41,C  40,H  97)   -178.1552         0.011156   
    610. D(H 101,C  41,C  40,C  39)     59.8035         0.011156   
    611. D(H 100,C  41,C  40,H  98)    178.2016         0.011156   
    612. D(H 100,C  41,C  40,H  97)     62.2973         0.011156   
    613. D(H 100,C  41,C  40,C  39)    -59.7440         0.011156   
    614. D(H  99,C  41,C  40,H  98)     57.9719         0.011156   
    615. D(H  99,C  41,C  40,H  97)    -57.9324         0.011156   
    616. D(H  99,C  41,C  40,C  39)   -179.9737         0.011156   
    617. D(H 102,O  43,C  17,H  65)    -57.4700         0.020291   
    618. D(H 102,O  43,C  17,C  18)   -172.3279         0.020291   
    619. D(H 102,O  43,C  17,C  16)     58.7265         0.020291   
    620. D(H 104,C  45,C  13,H  61)     67.5286         0.009368   
    621. D(H 104,C  45,C  13,C  14)   -176.3960         0.009368   
    622. D(H 104,C  45,C  13,N  12)    -50.2935         0.009368   
    623. D(H 103,C  45,C  13,H  61)   -178.1544         0.009368   
    624. D(H 103,C  45,C  13,C  14)    -62.0790         0.009368   
    625. D(H 103,C  45,C  13,N  12)     64.0236         0.009368   
    626. D(C  46,C  45,C  13,H  61)    -53.8267         0.009368   
    627. D(C  46,C  45,C  13,C  14)     62.2487         0.009368   
    628. D(C  46,C  45,C  13,N  12)   -171.6487         0.009368   
    629. D(H 107,C  46,C  45,H 104)    -61.2630         0.011463   
    630. D(H 107,C  46,C  45,H 103)   -179.4110         0.011463   
    631. D(H 107,C  46,C  45,C  13)     58.1078         0.011463   
    632. D(H 106,C  46,C  45,H 104)    178.8502         0.011463   
    633. D(H 106,C  46,C  45,H 103)     60.7022         0.011463   
    634. D(H 106,C  46,C  45,C  13)    -61.7790         0.011463   
    635. D(H 105,C  46,C  45,H 104)     57.9231         0.011463   
    636. D(H 105,C  46,C  45,H 103)    -60.2249         0.011463   
    637. D(H 105,C  46,C  45,C  13)    177.2939         0.011463   
    638. D(H 108,C  48,C  10,H  59)     70.2635         0.009370   
    639. D(H 108,C  48,C  10,C  11)   -172.2156         0.009370   
    640. D(H 108,C  48,C  10,N   9)    -46.3869         0.009370   
    641. D(C  50,C  48,C  10,H  59)    -46.6520         0.009370   
    642. D(C  50,C  48,C  10,C  11)     70.8689         0.009370   
    643. D(C  50,C  48,C  10,N   9)   -163.3024         0.009370   
    644. D(C  49,C  48,C  10,H  59)   -172.8969         0.009370   
    645. D(C  49,C  48,C  10,C  11)    -55.3760         0.009370   
    646. D(C  49,C  48,C  10,N   9)     70.4527         0.009370   
    647. D(H 111,C  49,C  48,C  50)     59.5383         0.010743   
    648. D(H 111,C  49,C  48,C  10)   -173.3464         0.010743   
    649. D(H 110,C  49,C  48,H 108)   -178.1581         0.010743   
    650. D(H 110,C  49,C  48,C  50)    -59.7484         0.010743   
    651. D(H 110,C  49,C  48,C  10)     67.3670         0.010743   
    652. D(H 109,C  49,C  48,H 108)     61.0275         0.010743   
    653. D(H 109,C  49,C  48,C  50)    179.4373         0.010743   
    654. D(H 111,C  49,C  48,H 108)    -58.8715         0.010743   
    655. D(H 109,C  49,C  48,C  10)    -53.4474         0.010743   
    656. D(H 114,C  50,C  48,H 108)   -179.1027         0.011125   
    657. D(H 114,C  50,C  48,C  49)     62.2929         0.011125   
    658. D(H 114,C  50,C  48,C  10)    -64.3134         0.011125   
    659. D(H 113,C  50,C  48,H 108)     60.2712         0.011125   
    660. D(H 113,C  50,C  48,C  49)    -58.3332         0.011125   
    661. D(H 113,C  50,C  48,C  10)    175.0605         0.011125   
    662. D(H 112,C  50,C  48,H 108)    -59.3335         0.011125   
    663. D(H 112,C  50,C  48,C  49)   -177.9379         0.011125   
    664. D(H 112,C  50,C  48,C  10)     55.4558         0.011125   
    -----------------------------------------------------------------

Number of atoms                         .... 115
Number of degrees of freedom            .... 664

         *************************************************************
         *                GEOMETRY OPTIMIZATION CYCLE   1            *
         *************************************************************
---------------------------------
CARTESIAN COORDINATES (ANGSTROEM)
---------------------------------
  O      5.085319   -2.746184   -1.112693
  C      4.836931   -1.648239   -0.625139
  C      4.746039   -0.412756   -1.544483
  C      6.103469   -0.064747   -2.178016
  C      6.680554    0.989440   -1.222607
  C      5.456811    1.830603   -0.843634
  N      4.357363    0.841930   -0.866744
  C      3.084295    1.025007   -0.459001
  O      2.255586    0.093817   -0.541516
  N      4.624494   -1.423818    0.699130
  C      4.617121   -2.467889    1.709173
  C      3.203874   -2.976021    2.063312
  N      2.149598   -2.281511    1.547525
  C      0.795082   -2.572063    2.020656
  C     -0.337647   -1.990792    1.179113
  N     -0.115200   -0.807588    0.556952
  C     -1.218835   -0.036801    0.004800
  C     -2.294975    0.253768    1.091516
  C     -2.679053    1.738253    1.272755
  C     -1.431849    2.594534    1.535849
  N     -0.657730    2.166152    2.586179
  C      0.459984    2.939326    3.122341
  C      1.570144    3.191908    2.092530
  N      1.764351    2.189911    1.185766
  C      2.663139    2.389447    0.061906
  C      2.002873    3.187191   -1.078355
  O      2.282663    4.191563    2.153060
  C      1.014769    2.173201    4.338278
  C      2.231962    2.791066    5.039866
  C      1.938322    4.194668    5.579374
  C      2.698738    1.851377    6.157588
  O     -1.120951    3.573801    0.861106
  C     -3.538690    2.372882    0.159728
  C     -3.067385    2.340708   -1.278721
  C     -3.798245    1.239431   -2.072357
  C     -3.241125    1.076921   -3.486592
  C     -3.960448   -0.005963   -4.293632
  C     -3.395888   -0.189991   -5.703966
  C     -4.115419   -1.271627   -6.512754
  C     -3.550421   -1.457996   -7.922515
  C     -4.270738   -2.538634   -8.733264
  C     -3.697532   -2.716570  -10.140457
  O     -4.604343    2.878671    0.463828
  O     -3.480384   -0.493929    0.881329
  O     -1.464005   -2.509692    1.227749
  C      0.634146   -2.022218    3.466815
  C     -0.654993   -2.415889    4.182077
  O      3.063993   -3.931197    2.828141
  C      5.357423   -1.948292    2.974658
  C      4.550464   -0.865454    3.705029
  C      5.762679   -3.074064    3.928616
  H      3.983457   -0.671694   -2.291443
  H      5.946823    0.366792   -3.177145
  H      6.727348   -0.958804   -2.286525
  H      7.093852    0.504200   -0.326010
  H      7.473756    1.597484   -1.673830
  H      5.543852    2.297695    0.145608
  H      5.268810    2.623578   -1.585079
  H      4.465058   -0.467044    0.998784
  H      5.161336   -3.324720    1.287013
  H      2.338453   -1.550023    0.863049
  H      0.664384   -3.662628    2.041680
  H      0.825935   -0.496520    0.294345
  H     -1.704143   -0.564758   -0.830251
  H     -0.779089    0.884730   -0.398529
  H     -1.838440   -0.061818    2.049180
  H     -3.317842    1.785783    2.169438
  H     -1.003615    1.400058    3.157844
  H      0.114247    3.941072    3.417473
  H      1.032447    1.488629    1.093824
  H      3.518014    2.959414    0.447727
  H      1.650196    4.147467   -0.684434
  H      2.715549    3.375223   -1.894262
  H      1.144385    2.633503   -1.480812
  H      1.273431    1.152742    4.006317
  H      0.195558    2.071920    5.072984
  H      3.044603    2.876479    4.299297
  H      1.721640    4.900100    4.766855
  H      1.079595    4.176677    6.269911
  H      2.803690    4.583788    6.134693
  H      2.926725    0.846968    5.771109
  H      3.603596    2.240430    6.645506
  H      1.922294    1.745097    6.931775
  H     -1.979850    2.201196   -1.334679
  H     -3.293783    3.324419   -1.714882
  H     -4.869434    1.491298   -2.109971
  H     -3.732935    0.283169   -1.529804
  H     -2.164824    0.833123   -3.429085
  H     -3.304916    2.040180   -4.022595
  H     -5.034287    0.241306   -4.358342
  H     -3.903098   -0.964411   -3.748553
  H     -2.321743   -0.438737   -5.637317
  H     -3.451439    0.769744   -6.247586
  H     -5.189071   -1.022269   -6.579886
  H     -4.061185   -2.230667   -5.968024
  H     -2.476640   -1.708580   -7.855642
  H     -3.603425   -0.498455   -8.467200
  H     -5.342948   -2.286656   -8.798778
  H     -4.217316   -3.495942   -8.187283
  H     -4.232203   -3.496990  -10.700682
  H     -3.768471   -1.782182  -10.718055
  H     -2.634841   -3.001102  -10.102187
  H     -3.171472   -1.428348    0.902567
  H      0.735875   -0.924649    3.415174
  H      1.497031   -2.403365    4.030274
  H     -0.651889   -2.020933    5.208083
  H     -1.549290   -2.040338    3.668324
  H     -0.750333   -3.509085    4.242268
  H      6.280363   -1.486355    2.582212
  H      4.248925   -0.031611    3.050254
  H      3.635247   -1.290219    4.141639
  H      5.142819   -0.432726    4.522753
  H      6.371153   -3.829752    3.412046
  H      6.357048   -2.665865    4.759167
  H      4.879961   -3.580201    4.337481

----------------------------
CARTESIAN COORDINATES (A.U.)
----------------------------
  NO LB      ZA    FRAG     MASS         X           Y           Z
   0 O     8.0000    0    15.999    9.609860   -5.189535   -2.102685
   1 C     6.0000    0    12.011    9.140476   -3.114720   -1.181342
   2 C     6.0000    0    12.011    8.968715   -0.779996   -2.918650
   3 C     6.0000    0    12.011   11.533884   -0.122355   -4.115854
   4 C     6.0000    0    12.011   12.624417    1.869771   -2.310393
   5 C     6.0000    0    12.011   10.311878    3.459338   -1.594238
   6 N     7.0000    0    14.007    8.234223    1.591018   -1.637910
   7 C     6.0000    0    12.011    5.828472    1.936983   -0.867385
   8 O     8.0000    0    15.999    4.262440    0.177289   -1.023316
   9 N     7.0000    0    14.007    8.739026   -2.690626    1.321165
  10 C     6.0000    0    12.011    8.725095   -4.663634    3.229869
  11 C     6.0000    0    12.011    6.054444   -5.623865    3.899095
  12 N     7.0000    0    14.007    4.062151   -4.311430    2.924398
  13 C     6.0000    0    12.011    1.502488   -4.860495    3.818486
  14 C     6.0000    0    12.011   -0.638060   -3.762052    2.228200
  15 N     7.0000    0    14.007   -0.217696   -1.526120    1.052487
  16 C     6.0000    0    12.011   -2.303265   -0.069544    0.009070
  17 C     6.0000    0    12.011   -4.336874    0.479553    2.062667
  18 C     6.0000    0    12.011   -5.062677    3.284822    2.405158
  19 C     6.0000    0    12.011   -2.705802    4.902958    2.902334
  20 N     7.0000    0    14.007   -1.242930    4.093434    4.887170
  21 C     6.0000    0    12.011    0.869244    5.554522    5.900369
  22 C     6.0000    0    12.011    2.967142    6.031832    3.954309
  23 N     7.0000    0    14.007    3.334140    4.138332    2.240773
  24 C     6.0000    0    12.011    5.032603    4.515400    0.116986
  25 C     6.0000    0    12.011    3.784882    6.022919   -2.037795
  26 O     8.0000    0    15.999    4.313608    7.920906    4.068693
  27 C     6.0000    0    12.011    1.917635    4.106754    8.198158
  28 C     6.0000    0    12.011    4.217797    5.274350    9.523967
  29 C     6.0000    0    12.011    3.662898    7.926775   10.543489
  30 C     6.0000    0    12.011    5.099875    3.498595   11.636155
  31 O     8.0000    0    15.999   -2.118290    6.753505    1.627254
  32 C     6.0000    0    12.011   -6.687154    4.484098    0.301842
  33 C     6.0000    0    12.011   -5.796518    4.423298   -2.416433
  34 C     6.0000    0    12.011   -7.177643    2.342184   -3.916187
  35 C     6.0000    0    12.011   -6.124839    2.035086   -6.588704
  36 C     6.0000    0    12.011   -7.484161   -0.011269   -8.113789
  37 C     6.0000    0    12.011   -6.417297   -0.359031  -10.778935
  38 C     6.0000    0    12.011   -7.777015   -2.403027  -12.307322
  39 C     6.0000    0    12.011   -6.709323   -2.755212  -14.971384
  40 C     6.0000    0    12.011   -8.070525   -4.797323  -16.503478
  41 C     6.0000    0    12.011   -6.987323   -5.133573  -19.162687
  42 O     8.0000    0    15.999   -8.700948    5.439899    0.876508
  43 O     8.0000    0    15.999   -6.576972   -0.933390    1.665471
  44 O     8.0000    0    15.999   -2.766568   -4.742630    2.320110
  45 C     6.0000    0    12.011    1.198361   -3.821438    6.551331
  46 C     6.0000    0    12.011   -1.237757   -4.565368    7.902981
  47 O     8.0000    0    15.999    5.790108   -7.428886    5.344411
  48 C     6.0000    0    12.011   10.124062   -3.681737    5.621289
  49 C     6.0000    0    12.011    8.599130   -1.635470    7.001490
  50 C     6.0000    0    12.011   10.889886   -5.809138    7.424008
  51 H     1.0000    0     1.008    7.527642   -1.269318   -4.330199
  52 H     1.0000    0     1.008   11.237867    0.693136   -6.003933
  53 H     1.0000    0     1.008   12.712846   -1.811877   -4.320907
  54 H     1.0000    0     1.008   13.405437    0.952799   -0.616070
  55 H     1.0000    0     1.008   14.123352    3.018808   -3.163080
  56 H     1.0000    0     1.008   10.476362    4.342015    0.275160
  57 H     1.0000    0     1.008    9.956607    4.957843   -2.995365
  58 H     1.0000    0     1.008    8.437736   -0.882585    1.887428
  59 H     1.0000    0     1.008    9.753511   -6.282810    2.432102
  60 H     1.0000    0     1.008    4.419035   -2.929119    1.630926
  61 H     1.0000    0     1.008    1.255503   -6.921365    3.858217
  62 H     1.0000    0     1.008    1.560791   -0.938287    0.556231
  63 H     1.0000    0     1.008   -3.220363   -1.067238   -1.568947
  64 H     1.0000    0     1.008   -1.472264    1.671897   -0.753110
  65 H     1.0000    0     1.008   -3.474149   -0.116819    3.872390
  66 H     1.0000    0     1.008   -6.269813    3.374642    4.099644
  67 H     1.0000    0     1.008   -1.896558    2.645726    5.967460
  68 H     1.0000    0     1.008    0.215895    7.447547    6.458089
  69 H     1.0000    0     1.008    1.951042    2.813101    2.067027
  70 H     1.0000    0     1.008    6.648083    5.592482    0.846081
  71 H     1.0000    0     1.008    3.118418    7.837576   -1.293392
  72 H     1.0000    0     1.008    5.131644    6.378247   -3.579637
  73 H     1.0000    0     1.008    2.162574    4.976600   -2.798329
  74 H     1.0000    0     1.008    2.406436    2.178367    7.570842
  75 H     1.0000    0     1.008    0.369552    3.915361    9.586550
  76 H     1.0000    0     1.008    5.753466    5.435757    8.124494
  77 H     1.0000    0     1.008    3.253429    9.259847    9.008051
  78 H     1.0000    0     1.008    2.040139    7.892777   11.848416
  79 H     1.0000    0     1.008    5.298206    8.662104   11.592890
  80 H     1.0000    0     1.008    5.530709    1.600537   10.905816
  81 H     1.0000    0     1.008    6.809809    4.233799   12.558186
  82 H     1.0000    0     1.008    3.632609    3.297755   13.099157
  83 H     1.0000    0     1.008   -3.741374    4.159658   -2.522178
  84 H     1.0000    0     1.008   -6.224347    6.282242   -3.240658
  85 H     1.0000    0     1.008   -9.201897    2.818145   -3.987268
  86 H     1.0000    0     1.008   -7.054224    0.535113   -2.890910
  87 H     1.0000    0     1.008   -4.090925    1.574374   -6.480032
  88 H     1.0000    0     1.008   -6.245385    3.855382   -7.601602
  89 H     1.0000    0     1.008   -9.513424    0.456002   -8.236072
  90 H     1.0000    0     1.008   -7.375785   -1.822472   -7.083739
  91 H     1.0000    0     1.008   -4.387459   -0.829093  -10.652986
  92 H     1.0000    0     1.008   -6.522275    1.454606  -11.806226
  93 H     1.0000    0     1.008   -9.805923   -1.931809  -12.434183
  94 H     1.0000    0     1.008   -7.674527   -4.215350  -11.277930
  95 H     1.0000    0     1.008   -4.680171   -3.228748  -14.845012
  96 H     1.0000    0     1.008   -6.809486   -0.941943  -16.000689
  97 H     1.0000    0     1.008  -10.096708   -4.321154  -16.627281
  98 H     1.0000    0     1.008   -7.969572   -6.606373  -15.471722
  99 H     1.0000    0     1.008   -7.997705   -6.608354  -20.221359
 100 H     1.0000    0     1.008   -7.121378   -3.367835  -20.254190
 101 H     1.0000    0     1.008   -4.979128   -5.671261  -19.090366
 102 H     1.0000    0     1.008   -5.993214   -2.699187    1.705605
 103 H     1.0000    0     1.008    1.390601   -1.747333    6.453743
 104 H     1.0000    0     1.008    2.828979   -4.541701    7.616114
 105 H     1.0000    0     1.008   -1.231893   -3.819010    9.841851
 106 H     1.0000    0     1.008   -2.927734   -3.855680    6.932128
 107 H     1.0000    0     1.008   -1.417925   -6.631210    8.016724
 108 H     1.0000    0     1.008   11.868166   -2.808804    4.879673
 109 H     1.0000    0     1.008    8.029305   -0.059735    5.764144
 110 H     1.0000    0     1.008    6.869621   -2.438161    7.826564
 111 H     1.0000    0     1.008    9.718519   -0.817734    8.546764
 112 H     1.0000    0     1.008   12.039734   -7.237182    6.447833
 113 H     1.0000    0     1.008   12.013080   -5.037755    8.993523
 114 H     1.0000    0     1.008    9.221790   -6.765600    8.196651

--------------------------------
INTERNAL COORDINATES (ANGSTROEM)
--------------------------------
 O      0   0   0     0.000000000000     0.00000000     0.00000000
 C      1   0   0     1.226738716825     0.00000000     0.00000000
 C      2   1   0     1.542683599648   119.46320212     0.00000000
 C      3   2   1     1.537884319655   112.00707798   293.68131872
 C      4   3   2     1.535299865345   103.34393642   265.52272173
 C      5   4   3     1.532553988304   103.33308244   320.99137264
 N      3   2   1     1.478051663209   114.96552148   176.26074411
 C      7   3   2     1.349250145659   120.12377062   286.87801837
 O      8   7   3     1.249272644207   120.31797503     6.44479685
 N      2   1   3     1.359847224119   124.49814146   179.78375948
 C     10   2   1     1.452695391804   124.00592673   357.71822602
 C     11  10   2     1.543010623689   113.63482995   263.34402148
 N     12  11  10     1.363773789066   116.97093524   351.20308936
 C     13  12  11     1.463894076249   119.47104651   190.10644509
 C     14  13  12     1.526154107039   115.65447092   193.44236959
 N     15  14  13     1.355189274287   117.63635229   327.61509433
 C     16  15  14     1.454990027973   120.81306195   194.56695979
 C     17  16  15     1.556746807078   110.99667417    55.46767294
 C     18  17  16     1.544039520421   115.68004096   126.30602686
 C     19  18  17     1.535563287388   110.74432620   305.65452622
 N     20  19  18     1.373303496997   114.51500770   305.76628740
 C     21  20  19     1.461011207227   123.15017952   188.97195331
 C     22  21  20     1.535175035076   113.21140871   298.93304339
 N     23  22  21     1.365260368809   115.31831541   326.38534047
 C     24  23  22     1.452822532969   120.06513237   171.96536755
 C     25  24  23     1.540305933490   112.24715209   279.99912681
 O     23  22  21     1.229088005060   121.33228560   151.06676090
 C     22  21  20     1.540531836381   107.57670799   176.50042711
 C     28  22  21     1.534777568225   116.50070795   178.31516975
 C     29  28  22     1.532120327741   112.19615279    59.92465519
 C     29  28  22     1.533035413276   109.14726605   183.76375493
 O     20  19  18     1.229187131297   123.75452063   124.62532707
 C     19  18  17     1.542905573073   116.70340724    72.92572621
 C     33  19  18     1.514034100943   120.21143164   304.34122191
 C     34  33  19     1.541696065869   110.89705179   101.58853000
 C     35  34  33     1.528676951817   112.29719689   186.19188945
 C     36  35  34     1.530155832064   113.06948611   180.38224143
 C     37  36  35     1.530240876148   113.43872584   180.84944881
 C     38  37  36     1.530293683251   113.49294545   180.06505415
 C     39  38  37     1.530157505365   113.54108976   180.08506346
 C     40  39  38     1.530996386612   113.58660371   180.07625421
 C     41  40  39     1.529842558650   113.13588743   180.01423569
 O     33  19  18     1.218161003672   118.56133656   123.34166775
 O     18  17  16     1.417188564335   112.09904076   251.36179499
 O     15  14  13     1.241090037740   119.52123734   157.00501406
 C     14  13  12     1.555508881967   109.02938126    72.16780942
 C     46  14  13     1.525927542812   115.59462520   188.35127825
 O     12  11  10     1.231621016129   120.12872210   174.35338964
 C     11  10   2     1.555467846396   108.85468905   139.02833739
 C     49  11  10     1.535305305811   111.86848544    70.45268543
 C     49  11  10     1.530238849639   112.79749456   196.69762501
 H      3   2   1     1.098421670961   104.91383813    56.26220376
 H      4   3   2     1.099555132400   109.71802678   147.70803337
 H      4   3   2     1.095599090792   111.02408518    28.22670731
 H      5   4   3     1.100072608483   110.21452216    78.39327150
 H      5   4   3     1.096580771911   113.36312373   199.51238989
 H      6   5   4     1.097429905632   113.15261387   152.32663806
 H      6   5   4     1.101768653833   111.39985975   274.61359100
 H     10   2   1     1.015198957333   117.87313157   177.47130473
 H     11  10   2     1.099339822633   106.89728527    20.59713466
 H     13  12  11     1.019434934044   118.43350163     8.04303035
 H     14  13  12     1.098570347540   108.25826233   314.06032862
 H     16  15  14     1.025408051447   122.21448258    26.33660698
 H     17  16  15     1.100714149412   111.60668616   294.52781349
 H     17  16  15     1.097847818731   106.27600987   177.63303429
 H     18  17  16     1.106859974631   105.40465950     9.61464424
 H     19  18  17     1.101976180872   106.33030648   188.68935047
 H     21  20  19     1.016532068842   118.25484508   353.75486369
 H     22  21  20     1.100060037229   109.87227892    55.85853772
 H     24  23  22     1.017808114302   117.60593558    15.75378434
 H     25  24  23     1.097511521951   106.33566327    39.07634959
 H     26  25  24     1.096213528549   109.00068558    56.73908443
 H     26  25  24     1.099530299777   111.10356481   176.85582080
 H     26  25  24     1.097972939972   110.20221186   297.43196612
 H     28  22  21     1.103829622026   107.86465190    55.57356176
 H     28  22  21     1.105059001192   107.66059544   300.66300693
 H     29  28  22     1.102779976126   107.97587921   301.19456533
 H     30  29  28     1.097620508659   111.46599978   295.75867058
 H     30  29  28     1.102078577850   110.79457489    56.93767599
 H     30  29  28     1.099388616532   110.56442352   176.15992138
 H     31  29  28     1.100082315065   111.50672598    56.58224579
 H     31  29  28     1.099178919701   110.93642625   176.96626767
 H     31  29  28     1.101601883988   110.91138643   296.49149372
 H     34  33  19     1.097873965912   111.06852493   338.11622834
 H     34  33  19     1.099627040218   107.08212961   221.25650949
 H     35  34  33     1.101043948266   108.38431819    64.06357743
 H     35  34  33     1.101392117854   109.78588162   308.88517378
 H     36  35  34     1.105064957802   109.28515857    58.50600395
 H     36  35  34     1.104190399958   109.59029846   302.87071080
 H     37  36  35     1.103838985381   109.25120601    58.53995877
 H     37  36  35     1.104092942142   109.24077008   303.12194730
 H     38  37  36     1.104582382354   109.28336683    57.84066402
 H     38  37  36     1.104400163984   109.30487519   302.34228113
 H     39  38  37     1.104270970549   109.24916839    57.81018684
 H     39  38  37     1.104278533850   109.27166121   302.38185039
 H     40  39  38     1.104658448432   109.31583650    57.81614980
 H     40  39  38     1.104630689951   109.31597458   302.34848391
 H     41  40  39     1.103366981569   109.11421579    57.68129119
 H     41  40  39     1.103353241505   109.12233891   302.35791994
 H     42  41  40     1.099445959607   111.65698367   180.02632776
 H     42  41  40     1.100787197697   111.08624922   300.25602752
 H     42  41  40     1.100788928994   111.08789966    59.80354962
 H     44  18  17     0.984386474343   103.59893243    58.72653235
 H     46  14  13     1.103482433124   107.37002237    64.02359270
 H     46  14  13     1.098786036287   105.83608755   309.70654001
 H     47  46  14     1.099403089270   110.02193924   177.29386679
 H     47  46  14     1.097610443369   112.37470882   298.22100160
 H     47  46  14     1.098995390416   110.82955774    58.10779030
 H     49  11  10     1.104181760939   104.38313847   313.61307675
 H     50  49  11     1.102247789112   113.24990053   306.55258908
 H     50  49  11     1.099398209720   110.73060819    67.36696612
 H     50  49  11     1.098549017644   110.39653682   186.65362455
 H     51  49  11     1.099157823720   111.06457456    55.45582637
 H     51  49  11     1.099871122625   109.92763593   175.06046227
 H     51  49  11     1.096603081701   111.02721348   295.68656835

---------------------------
INTERNAL COORDINATES (A.U.)
---------------------------
 O      0   0   0     0.000000000000     0.00000000     0.00000000
 C      1   0   0     2.318200212677     0.00000000     0.00000000
 C      2   1   0     2.915249514627   119.46320212     0.00000000
 C      3   2   1     2.906180189799   112.00707798   293.68131872
 C      4   3   2     2.901296278948   103.34393642   265.52272173
 C      5   4   3     2.896107323343   103.33308244   320.99137264
 N      3   2   1     2.793112855252   114.96552148   176.26074411
 C      7   3   2     2.549713261448   120.12377062   286.87801837
 O      8   7   3     2.360783164150   120.31797503     6.44479685
 N      2   1   3     2.569738837557   124.49814146   179.78375948
 C     10   2   1     2.745196446520   124.00592673   357.71822602
 C     11  10   2     2.915867500503   113.63482995   263.34402148
 N     12  11  10     2.577158969956   116.97093524   351.20308936
 C     13  12  11     2.766358893179   119.47104651   190.10644509
 C     14  13  12     2.884013300464   115.65447092   193.44236959
 N     15  14  13     2.560936588029   117.63635229   327.61509433
 C     16  15  14     2.749532680455   120.81306195   194.56695979
 C     17  16  15     2.941825125235   110.99667417    55.46767294
 C     18  17  16     2.917811833546   115.68004096   126.30602686
 C     19  18  17     2.901794074467   110.74432620   305.65452622
 N     20  19  18     2.595167508081   114.51500770   305.76628740
 C     21  20  19     2.760911060248   123.15017952   188.97195331
 C     22  21  20     2.901060383926   113.21140871   298.93304339
 N     23  22  21     2.579968198545   115.31831541   326.38534047
 C     24  23  22     2.745436708500   120.06513237   171.96536755
 C     25  24  23     2.910756376749   112.24715209   279.99912681
 O     23  22  21     2.322639724050   121.33228560   151.06676090
 C     22  21  20     2.911183271346   107.57670799   176.50042711
 C     28  22  21     2.900309280431   116.50070795   178.31516975
 C     29  28  22     2.895287823645   112.19615279    59.92465519
 C     29  28  22     2.897017084694   109.14726605   183.76375493
 O     20  19  18     2.322827045492   123.75452063   124.62532707
 C     19  18  17     2.915668983608   116.70340724    72.92572621
 C     33  19  18     2.861109808200   120.21143164   304.34122191
 C     34  33  19     2.913383346236   110.89705179   101.58853000
 C     35  34  33     2.888780786172   112.29719689   186.19188945
 C     36  35  34     2.891575464824   113.06948611   180.38224143
 C     37  36  35     2.891736174851   113.43872584   180.84944881
 C     38  37  36     2.891835965815   113.49294545   180.06505415
 C     39  38  37     2.891578626905   113.54108976   180.08506346
 C     40  39  38     2.893163882720   113.58660371   180.07625421
 C     41  40  39     2.890983463866   113.13588743   180.01423569
 O     33  19  18     2.301990683963   118.56133656   123.34166775
 O     18  17  16     2.678098266718   112.09904076   251.36179499
 O     15  14  13     2.345320278866   119.52123734   157.00501406
 C     14  13  12     2.939485785799   109.02938126    72.16780942
 C     46  14  13     2.883585156122   115.59462520   188.35127825
 O     12  11  10     2.327426421265   120.12872210   174.35338964
 C     11  10   2     2.939408239810   108.85468905   139.02833739
 C     49  11  10     2.901306559939   111.86848544    70.45268543
 C     49  11  10     2.891732345305   112.79749456   196.69762501
 H      3   2   1     2.075716137681   104.91383813    56.26220376
 H      4   3   2     2.077858069383   109.71802678   147.70803337
 H      4   3   2     2.070382234171   111.02408518    28.22670731
 H      5   4   3     2.078835957462   110.21452216    78.39327150
 H      5   4   3     2.072237342636   113.36312373   199.51238989
 H      6   5   4     2.073841972820   113.15261387   152.32663806
 H      6   5   4     2.082041018684   111.39985975   274.61359100
 H     10   2   1     1.918448000801   117.87313157   177.47130473
[...]
freq.      86.12  E(vib)   ...       0.48 
freq.      88.44  E(vib)   ...       0.48 
freq.      90.42  E(vib)   ...       0.47 
freq.      92.62  E(vib)   ...       0.47 
freq.      93.45  E(vib)   ...       0.47 
freq.     102.00  E(vib)   ...       0.46 
freq.     104.98  E(vib)   ...       0.46 
freq.     111.71  E(vib)   ...       0.45 
freq.     114.26  E(vib)   ...       0.44 
freq.     120.00  E(vib)   ...       0.44 
freq.     130.53  E(vib)   ...       0.43 
freq.     135.95  E(vib)   ...       0.42 
freq.     141.86  E(vib)   ...       0.41 
freq.     143.12  E(vib)   ...       0.41 
freq.     147.85  E(vib)   ...       0.41 
freq.     151.08  E(vib)   ...       0.40 
freq.     160.37  E(vib)   ...       0.39 
freq.     163.59  E(vib)   ...       0.39 
freq.     165.30  E(vib)   ...       0.39 
freq.     168.37  E(vib)   ...       0.38 
freq.     184.70  E(vib)   ...       0.37 
freq.     189.99  E(vib)   ...       0.36 
freq.     197.67  E(vib)   ...       0.35 
freq.     205.48  E(vib)   ...       0.35 
freq.     211.58  E(vib)   ...       0.34 
freq.     216.75  E(vib)   ...       0.34 
freq.     220.79  E(vib)   ...       0.33 
freq.     222.69  E(vib)   ...       0.33 
freq.     224.67  E(vib)   ...       0.33 
freq.     227.18  E(vib)   ...       0.33 
freq.     233.33  E(vib)   ...       0.32 
freq.     235.82  E(vib)   ...       0.32 
freq.     237.14  E(vib)   ...       0.32 
freq.     240.21  E(vib)   ...       0.31 
freq.     244.32  E(vib)   ...       0.31 
freq.     253.35  E(vib)   ...       0.30 
freq.     262.19  E(vib)   ...       0.29 
freq.     265.55  E(vib)   ...       0.29 
freq.     272.15  E(vib)   ...       0.29 
freq.     277.66  E(vib)   ...       0.28 
freq.     287.46  E(vib)   ...       0.27 
freq.     295.42  E(vib)   ...       0.27 
freq.     298.73  E(vib)   ...       0.26 
freq.     311.30  E(vib)   ...       0.25 
freq.     321.12  E(vib)   ...       0.25 
freq.     343.85  E(vib)   ...       0.23 
freq.     348.90  E(vib)   ...       0.23 
freq.     349.87  E(vib)   ...       0.23 
freq.     357.09  E(vib)   ...       0.22 
freq.     371.25  E(vib)   ...       0.21 
freq.     379.97  E(vib)   ...       0.21 
freq.     387.80  E(vib)   ...       0.20 
freq.     401.06  E(vib)   ...       0.19 
freq.     414.13  E(vib)   ...       0.19 
freq.     416.33  E(vib)   ...       0.18 
freq.     428.21  E(vib)   ...       0.18 
freq.     431.35  E(vib)   ...       0.18 
freq.     435.03  E(vib)   ...       0.17 
freq.     447.76  E(vib)   ...       0.17 
freq.     448.39  E(vib)   ...       0.17 
freq.     458.98  E(vib)   ...       0.16 
freq.     460.82  E(vib)   ...       0.16 
freq.     471.38  E(vib)   ...       0.15 
freq.     474.44  E(vib)   ...       0.15 
freq.     495.89  E(vib)   ...       0.14 
freq.     513.73  E(vib)   ...       0.13 
freq.     519.99  E(vib)   ...       0.13 
freq.     534.82  E(vib)   ...       0.13 
freq.     542.45  E(vib)   ...       0.12 
freq.     544.87  E(vib)   ...       0.12 
freq.     557.27  E(vib)   ...       0.12 
freq.     588.36  E(vib)   ...       0.10 
freq.     593.77  E(vib)   ...       0.10 
freq.     618.87  E(vib)   ...       0.09 
freq.     627.39  E(vib)   ...       0.09 
freq.     629.86  E(vib)   ...       0.09 
freq.     640.00  E(vib)   ...       0.09 
freq.     661.81  E(vib)   ...       0.08 
freq.     673.89  E(vib)   ...       0.08 
freq.     680.00  E(vib)   ...       0.08 
freq.     690.95  E(vib)   ...       0.07 
freq.     706.85  E(vib)   ...       0.07 
freq.     711.72  E(vib)   ...       0.07 
freq.     714.00  E(vib)   ...       0.07 
freq.     725.51  E(vib)   ...       0.06 
freq.     725.81  E(vib)   ...       0.06 
freq.     731.63  E(vib)   ...       0.06 
freq.     739.71  E(vib)   ...       0.06 
freq.     744.56  E(vib)   ...       0.06 
freq.     755.25  E(vib)   ...       0.06 
freq.     758.24  E(vib)   ...       0.06 
freq.     774.25  E(vib)   ...       0.05 
freq.     793.09  E(vib)   ...       0.05 
freq.     796.50  E(vib)   ...       0.05 
freq.     802.89  E(vib)   ...       0.05 
freq.     811.07  E(vib)   ...       0.05 
freq.     821.15  E(vib)   ...       0.05 
freq.     827.18  E(vib)   ...       0.04 
freq.     849.91  E(vib)   ...       0.04 
freq.     854.35  E(vib)   ...       0.04 
freq.     866.03  E(vib)   ...       0.04 
freq.     867.48  E(vib)   ...       0.04 
freq.     870.29  E(vib)   ...       0.04 
freq.     874.09  E(vib)   ...       0.04 
freq.     877.53  E(vib)   ...       0.04 
freq.     880.33  E(vib)   ...       0.04 
freq.     900.98  E(vib)   ...       0.03 
freq.     904.06  E(vib)   ...       0.03 
freq.     905.65  E(vib)   ...       0.03 
freq.     913.15  E(vib)   ...       0.03 
freq.     914.14  E(vib)   ...       0.03 
freq.     926.31  E(vib)   ...       0.03 
freq.     927.46  E(vib)   ...       0.03 
freq.     938.43  E(vib)   ...       0.03 
freq.     940.75  E(vib)   ...       0.03 
freq.     943.37  E(vib)   ...       0.03 
freq.     949.54  E(vib)   ...       0.03 
freq.     954.26  E(vib)   ...       0.03 
freq.     958.88  E(vib)   ...       0.03 
freq.     964.78  E(vib)   ...       0.03 
freq.     965.78  E(vib)   ...       0.03 
freq.     975.67  E(vib)   ...       0.03 
freq.     979.11  E(vib)   ...       0.03 
freq.     981.74  E(vib)   ...       0.02 
freq.    1003.71  E(vib)   ...       0.02 
freq.    1012.67  E(vib)   ...       0.02 
freq.    1018.16  E(vib)   ...       0.02 
freq.    1025.55  E(vib)   ...       0.02 
freq.    1027.74  E(vib)   ...       0.02 
freq.    1034.11  E(vib)   ...       0.02 
freq.    1037.69  E(vib)   ...       0.02 
freq.    1042.39  E(vib)   ...       0.02 
freq.    1044.47  E(vib)   ...       0.02 
freq.    1045.60  E(vib)   ...       0.02 
freq.    1049.58  E(vib)   ...       0.02 
freq.    1052.24  E(vib)   ...       0.02 
freq.    1054.88  E(vib)   ...       0.02 
freq.    1057.21  E(vib)   ...       0.02 
freq.    1059.41  E(vib)   ...       0.02 
freq.    1071.35  E(vib)   ...       0.02 
freq.    1072.37  E(vib)   ...       0.02 
freq.    1077.52  E(vib)   ...       0.02 
freq.    1087.87  E(vib)   ...       0.02 
freq.    1090.43  E(vib)   ...       0.02 
freq.    1099.42  E(vib)   ...       0.02 
freq.    1101.83  E(vib)   ...       0.02 
freq.    1106.89  E(vib)   ...       0.02 
freq.    1109.61  E(vib)   ...       0.02 
freq.    1127.58  E(vib)   ...       0.01 
freq.    1129.23  E(vib)   ...       0.01 
freq.    1140.18  E(vib)   ...       0.01 
freq.    1144.62  E(vib)   ...       0.01 
freq.    1152.22  E(vib)   ...       0.01 
freq.    1154.76  E(vib)   ...       0.01 
freq.    1161.86  E(vib)   ...       0.01 
freq.    1162.11  E(vib)   ...       0.01 
freq.    1168.30  E(vib)   ...       0.01 
freq.    1171.18  E(vib)   ...       0.01 
freq.    1178.30  E(vib)   ...       0.01 
freq.    1187.39  E(vib)   ...       0.01 
freq.    1188.63  E(vib)   ...       0.01 
freq.    1196.25  E(vib)   ...       0.01 
freq.    1204.08  E(vib)   ...       0.01 
freq.    1205.44  E(vib)   ...       0.01 
freq.    1213.61  E(vib)   ...       0.01 
freq.    1218.40  E(vib)   ...       0.01 
freq.    1224.30  E(vib)   ...       0.01 
freq.    1227.86  E(vib)   ...       0.01 
freq.    1230.29  E(vib)   ...       0.01 
freq.    1236.74  E(vib)   ...       0.01 
freq.    1236.95  E(vib)   ...       0.01 
freq.    1244.06  E(vib)   ...       0.01 
freq.    1245.86  E(vib)   ...       0.01 
freq.    1249.52  E(vib)   ...       0.01 
freq.    1262.88  E(vib)   ...       0.01 
freq.    1266.11  E(vib)   ...       0.01 
freq.    1272.05  E(vib)   ...       0.01 
freq.    1275.67  E(vib)   ...       0.01 
freq.    1276.44  E(vib)   ...       0.01 
freq.    1278.87  E(vib)   ...       0.01 
freq.    1282.02  E(vib)   ...       0.01 
freq.    1283.93  E(vib)   ...       0.01 
freq.    1285.25  E(vib)   ...       0.01 
freq.    1286.48  E(vib)   ...       0.01 
freq.    1289.07  E(vib)   ...       0.01 
freq.    1293.01  E(vib)   ...       0.01 
freq.    1293.40  E(vib)   ...       0.01 
freq.    1294.71  E(vib)   ...       0.01 
freq.    1297.42  E(vib)   ...       0.01 
freq.    1301.68  E(vib)   ...       0.01 
freq.    1302.70  E(vib)   ...       0.01 
freq.    1304.68  E(vib)   ...       0.01 
freq.    1305.98  E(vib)   ...       0.01 
freq.    1310.86  E(vib)   ...       0.01 
freq.    1316.29  E(vib)   ...       0.01 
freq.    1316.88  E(vib)   ...       0.01 
freq.    1321.03  E(vib)   ...       0.01 
freq.    1325.19  E(vib)   ...       0.01 
freq.    1327.74  E(vib)   ...       0.01 
freq.    1331.72  E(vib)   ...       0.01 
freq.    1338.34  E(vib)   ...       0.01 
freq.    1341.10  E(vib)   ...       0.01 
freq.    1341.92  E(vib)   ...       0.01 
freq.    1343.81  E(vib)   ...       0.01 
freq.    1348.91  E(vib)   ...       0.01 
freq.    1349.80  E(vib)   ...       0.01 
freq.    1350.72  E(vib)   ...       0.01 
freq.    1350.77  E(vib)   ...       0.01 
freq.    1355.84  E(vib)   ...       0.01 
freq.    1363.58  E(vib)   ...       0.01 
freq.    1369.58  E(vib)   ...       0.01 
freq.    1371.76  E(vib)   ...       0.01 
freq.    1375.74  E(vib)   ...       0.01 
freq.    1398.92  E(vib)   ...       0.00 
freq.    1425.94  E(vib)   ...       0.00 
freq.    1428.75  E(vib)   ...       0.00 
freq.    1428.92  E(vib)   ...       0.00 
freq.    1430.62  E(vib)   ...       0.00 
freq.    1433.26  E(vib)   ...       0.00 
freq.    1433.42  E(vib)   ...       0.00 
freq.    1434.28  E(vib)   ...       0.00 
freq.    1437.06  E(vib)   ...       0.00 
freq.    1438.14  E(vib)   ...       0.00 
freq.    1438.76  E(vib)   ...       0.00 
freq.    1440.35  E(vib)   ...       0.00 
freq.    1441.32  E(vib)   ...       0.00 
freq.    1442.06  E(vib)   ...       0.00 
freq.    1443.43  E(vib)   ...       0.00 
freq.    1445.04  E(vib)   ...       0.00 
freq.    1446.30  E(vib)   ...       0.00 
freq.    1447.01  E(vib)   ...       0.00 
freq.    1448.75  E(vib)   ...       0.00 
freq.    1450.98  E(vib)   ...       0.00 
freq.    1453.44  E(vib)   ...       0.00 
freq.    1453.61  E(vib)   ...       0.00 
freq.    1454.41  E(vib)   ...       0.00 
freq.    1455.08  E(vib)   ...       0.00 
freq.    1456.75  E(vib)   ...       0.00 
freq.    1460.31  E(vib)   ...       0.00 
freq.    1461.03  E(vib)   ...       0.00 
freq.    1462.74  E(vib)   ...       0.00 
freq.    1463.73  E(vib)   ...       0.00 
freq.    1466.74  E(vib)   ...       0.00 
freq.    1467.46  E(vib)   ...       0.00 
freq.    1470.19  E(vib)   ...       0.00 
freq.    1471.95  E(vib)   ...       0.00 
freq.    1488.71  E(vib)   ...       0.00 
freq.    1545.38  E(vib)   ...       0.00 
freq.    1610.01  E(vib)   ...       0.00 
freq.    1641.00  E(vib)   ...       0.00 
freq.    1672.28  E(vib)   ...       0.00 
freq.    1674.42  E(vib)   ...       0.00 
freq.    1688.67  E(vib)   ...       0.00 
freq.    1700.48  E(vib)   ...       0.00 
freq.    1719.52  E(vib)   ...       0.00 
freq.    2887.64  E(vib)   ...       0.00 
freq.    2923.62  E(vib)   ...       0.00 
freq.    2924.67  E(vib)   ...       0.00 
freq.    2925.72  E(vib)   ...       0.00 
freq.    2926.23  E(vib)   ...       0.00 
freq.    2932.83  E(vib)   ...       0.00 
freq.    2935.37  E(vib)   ...       0.00 
freq.    2939.91  E(vib)   ...       0.00 
freq.    2942.50  E(vib)   ...       0.00 
freq.    2944.78  E(vib)   ...       0.00 
freq.    2946.76  E(vib)   ...       0.00 
freq.    2947.07  E(vib)   ...       0.00 
freq.    2949.71  E(vib)   ...       0.00 
freq.    2952.38  E(vib)   ...       0.00 
freq.    2953.28  E(vib)   ...       0.00 
freq.    2953.38  E(vib)   ...       0.00 
freq.    2956.40  E(vib)   ...       0.00 
freq.    2959.80  E(vib)   ...       0.00 
freq.    2959.92  E(vib)   ...       0.00 
freq.    2966.71  E(vib)   ...       0.00 
freq.    2967.56  E(vib)   ...       0.00 
freq.    2969.24  E(vib)   ...       0.00 
freq.    2971.15  E(vib)   ...       0.00 
freq.    2971.70  E(vib)   ...       0.00 
freq.    2972.32  E(vib)   ...       0.00 
freq.    2974.50  E(vib)   ...       0.00 
freq.    2978.46  E(vib)   ...       0.00 
freq.    2979.09  E(vib)   ...       0.00 
freq.    2984.08  E(vib)   ...       0.00 
freq.    2987.99  E(vib)   ...       0.00 
freq.    2989.90  E(vib)   ...       0.00 
freq.    2993.94  E(vib)   ...       0.00 
freq.    2996.99  E(vib)   ...       0.00 
freq.    3004.25  E(vib)   ...       0.00 
freq.    3010.92  E(vib)   ...       0.00 
freq.    3012.55  E(vib)   ...       0.00 
freq.    3015.15  E(vib)   ...       0.00 
freq.    3017.22  E(vib)   ...       0.00 
freq.    3017.98  E(vib)   ...       0.00 
freq.    3019.31  E(vib)   ...       0.00 
freq.    3019.66  E(vib)   ...       0.00 
freq.    3022.65  E(vib)   ...       0.00 
freq.    3023.15  E(vib)   ...       0.00 
freq.    3026.87  E(vib)   ...       0.00 
freq.    3027.36  E(vib)   ...       0.00 
freq.    3028.08  E(vib)   ...       0.00 
freq.    3032.56  E(vib)   ...       0.00 
freq.    3032.60  E(vib)   ...       0.00 
freq.    3036.60  E(vib)   ...       0.00 
freq.    3040.01  E(vib)   ...       0.00 
freq.    3040.83  E(vib)   ...       0.00 
freq.    3048.41  E(vib)   ...       0.00 
freq.    3049.35  E(vib)   ...       0.00 
freq.    3050.55  E(vib)   ...       0.00 
freq.    3050.86  E(vib)   ...       0.00 
freq.    3062.94  E(vib)   ...       0.00 
freq.    3064.17  E(vib)   ...       0.00 
freq.    3073.96  E(vib)   ...       0.00 
freq.    3304.51  E(vib)   ...       0.00 
freq.    3440.01  E(vib)   ...       0.00 
freq.    3480.35  E(vib)   ...       0.00 
freq.    3490.54  E(vib)   ...       0.00 
freq.    3500.56  E(vib)   ...       0.00 
freq.    3508.72  E(vib)   ...       0.00 

------------
INNER ENERGY
------------

The inner energy is: U= E(el) + E(ZPE) + E(vib) + E(rot) + E(trans)
    E(el)   - is the total energy from the electronic structure calculation
              = E(kin-el) + E(nuc-el) + E(el-el) + E(nuc-nuc)
    E(ZPE)  - the the zero temperature vibrational energy from the frequency calculation
    E(vib)  - the the finite temperature correction to E(ZPE) due to population
              of excited vibrational states
    E(rot)  - is the rotational thermal energy
    E(trans)- is the translational thermal energy

Summary of contributions to the inner energy U:
Electronic energy                ...  -2380.06373718 Eh
Zero point energy                ...      0.97616219 Eh     612.55 kcal/mol
Thermal vibrational correction   ...      0.05649535 Eh      35.45 kcal/mol
Thermal rotational correction    ...      0.00141627 Eh       0.89 kcal/mol
Thermal translational correction ...      0.00141627 Eh       0.89 kcal/mol
-----------------------------------------------------------------------
Total thermal energy                  -2379.02824709 Eh


Summary of corrections to the electronic energy:
(perhaps to be used in another calculation)
Total thermal correction                  0.05932790 Eh      37.23 kcal/mol
Non-thermal (ZPE) correction              0.97616219 Eh     612.55 kcal/mol
-----------------------------------------------------------------------
Total correction                          1.03549009 Eh     649.78 kcal/mol


--------
ENTHALPY
--------

The enthalpy is H = U + kB*T
                kB is Boltzmann's constant
Total free energy                 ...  -2379.02824709 Eh 
Thermal Enthalpy correction       ...      0.00094421 Eh       0.59 kcal/mol
-----------------------------------------------------------------------
Total Enthalpy                    ...  -2379.02730288 Eh


Note: Only C1 symmetry has been detected, increase convergence thresholds 
      if your molecule has a higher symmetry. Symmetry factor of 1.0 is   
      used for the rotational entropy correction. 
 

Note: Rotational entropy computed according to Herzberg 
Infrared and Raman Spectra, Chapter V,1, Van Nostrand Reinhold, 1945 
Point Group:  C1, Symmetry Number:   1  
Rotational constants in cm-1:     0.002001     0.001131     0.000954 

Vibrational entropy computed according to the QRRHO of S. Grimme
Chem.Eur.J. 2012 18 9955


-------
ENTROPY
-------

The entropy contributions are T*S = T*(S(el)+S(vib)+S(rot)+S(trans))
     S(el)   - electronic entropy
     S(vib)  - vibrational entropy
     S(rot)  - rotational entropy
     S(trans)- translational entropy
The entropies will be listed as mutliplied by the temperature to get
units of energy

Electronic entropy                ...      0.00000000 Eh      0.00 kcal/mol
Vibrational entropy               ...      0.10581151 Eh     66.40 kcal/mol
Rotational entropy                ...      0.01893067 Eh     11.88 kcal/mol
Translational entropy             ...      0.02166895 Eh     13.60 kcal/mol
-----------------------------------------------------------------------
Final entropy term                ...      0.14641113 Eh     91.87 kcal/mol

In case the symmetry of your molecule has not been determined correctly
or in case you have a reason to use a different symmetry number we print 
out the resulting rotational entropy values for sn=1,12 :
 --------------------------------------------------------
|  sn= 1 | S(rot)=       0.01893067 Eh     11.88 kcal/mol|
|  sn= 2 | S(rot)=       0.01827621 Eh     11.47 kcal/mol|
|  sn= 3 | S(rot)=       0.01789338 Eh     11.23 kcal/mol|
|  sn= 4 | S(rot)=       0.01762176 Eh     11.06 kcal/mol|
|  sn= 5 | S(rot)=       0.01741107 Eh     10.93 kcal/mol|
|  sn= 6 | S(rot)=       0.01723893 Eh     10.82 kcal/mol|
|  sn= 7 | S(rot)=       0.01709338 Eh     10.73 kcal/mol|
|  sn= 8 | S(rot)=       0.01696730 Eh     10.65 kcal/mol|
|  sn= 9 | S(rot)=       0.01685609 Eh     10.58 kcal/mol|
|  sn=10 | S(rot)=       0.01675661 Eh     10.51 kcal/mol|
|  sn=11 | S(rot)=       0.01666662 Eh     10.46 kcal/mol|
|  sn=12 | S(rot)=       0.01658447 Eh     10.41 kcal/mol|
 --------------------------------------------------------


-------------------
GIBBS FREE ENERGY
-------------------

The Gibbs free energy is G = H - T*S

Total enthalpy                    ...  -2379.02730288 Eh 
Total entropy correction          ...     -0.14641113 Eh    -91.87 kcal/mol
-----------------------------------------------------------------------
Final Gibbs free energy         ...  -2379.17371401 Eh

For completeness - the Gibbs free energy minus the electronic energy
G-E(el)                           ...      0.89002317 Eh    558.50 kcal/mol

--------------------------------------------------------------------------
WARNING: No preset parameters were found for the device that Open MPI
detected:

  Local host:            eu-g1-019-3
  Device name:           mlx5_0
  Device vendor ID:      0x02c9
  Device vendor part ID: 4123

Default device parameters will be used, which may result in lower
performance.  You can edit any of the files specified by the
btl_openib_device_param_files MCA parameter to set values for your
device.

NOTE: You can turn off this warning by setting the MCA parameter
      btl_openib_warn_no_device_params_found to 0.
--------------------------------------------------------------------------
--------------------------------------------------------------------------
WARNING: There was an error initializing an OpenFabrics device.

  Local host:   eu-g1-019-3
  Local device: mlx5_0
--------------------------------------------------------------------------

Timings for individual modules:

Sum of individual times         ...    27682.173 sec (= 461.370 min)
GTO integral calculation        ...       14.319 sec (=   0.239 min)   0.1 %
SCF iterations                  ...      369.850 sec (=   6.164 min)   1.3 %
SCF Gradient evaluation         ...       72.882 sec (=   1.215 min)   0.3 %
Geometry relaxation             ...        4.011 sec (=   0.067 min)   0.0 %
Analytical frequency calculation...    27221.111 sec (= 453.685 min)  98.3 %
                             ****ORCA TERMINATED NORMALLY****
TOTAL RUN TIME: 0 days 7 hours 41 minutes 39 seconds 897 msec
