
                                 *****************
                                 * O   R   C   A *
                                 *****************

           --- An Ab Initio, DFT and Semiempirical electronic structure package ---

                  #######################################################
                  #                        -***-                        #
                  #          Department of theory and spectroscopy      #
                  #               Directorship: Frank Neese             #
                  #        Max Planck Institute fuer Kohlenforschung    #
                  #                Kaiser Wilhelm Platz 1               #
                  #                 D-45470 Muelheim/Ruhr               #
                  #                      Germany                        #
                  #                                                     #
                  #                  All rights reserved                #
                  #                        -***-                        #
                  #######################################################


                         Program Version 4.2.0 -  RELEASE  -


 With contributions from (in alphabetic order):
   Daniel Aravena         : Magnetic Suceptibility
   Michael Atanasov       : Ab Initio Ligand Field Theory (pilot matlab implementation)
   Alexander A. Auer      : GIAO ZORA, VPT2
   Ute Becker             : Parallelization
   Giovanni Bistoni       : ED, misc. LED, open-shell LED, HFLED
   Martin Brehm           : Molecular dynamics
   Dmytro Bykov           : SCF Hessian
   Vijay G. Chilkuri      : MRCI spin determinant printing, contributions to CSF-ICE
   Dipayan Datta          : RHF DLPNO-CCSD density
   Achintya Kumar Dutta   : EOM-CC, STEOM-CC
   Dmitry Ganyushin       : Spin-Orbit,Spin-Spin,Magnetic field MRCI
   Miquel Garcia          : C-PCM Hessian, Gaussian charge scheme
   Yang Guo               : DLPNO-NEVPT2, CIM, IAO-localization
   Andreas Hansen         : Spin unrestricted coupled pair/coupled cluster methods
   Benjamin Helmich-Paris : CASSCF linear response (MC-RPA)
   Lee Huntington         : MR-EOM, pCC
   Robert Izsak           : Overlap fitted RIJCOSX, COSX-SCS-MP3, EOM
   Christian Kollmar      : KDIIS, OOCD, Brueckner-CCSD(T), CCSD density
   Simone Kossmann        : Meta GGA functionals, TD-DFT gradient, OOMP2, MP2 Hessian
   Martin Krupicka        : AUTO-CI
   Lucas Lang             : DCDCAS
   Dagmar Lenk            : GEPOL surface, SMD
   Dimitrios Liakos       : Extrapolation schemes; Compound Job, initial MDCI parallelization
   Dimitrios Manganas     : Further ROCIS development; embedding schemes
   Dimitrios Pantazis     : SARC Basis sets
   Taras Petrenko         : DFT Hessian,TD-DFT gradient, ASA, ECA, R-Raman, ABS, FL, XAS/XES, NRVS
   Peter Pinski           : DLPNO-MP2, DLPNO-MP2 Gradient
   Christoph Reimann      : Effective Core Potentials
   Marius Retegan         : Local ZFS, SOC
   Christoph Riplinger    : Optimizer, TS searches, QM/MM, DLPNO-CCSD(T), (RO)-DLPNO pert. Triples
   Tobias Risthaus        : Range-separated hybrids, TD-DFT gradient, RPA, STAB
   Michael Roemelt        : Original ROCIS implementation
   Masaaki Saitow         : Open-shell DLPNO-CCSD energy and density
   Barbara Sandhoefer     : DKH picture change effects
   Avijit Sen             : IP-ROCIS
   Kantharuban Sivalingam : CASSCF convergence, NEVPT2, FIC-MRCI
   Bernardo de Souza      : ESD, SOC TD-DFT
   Georgi Stoychev        : AutoAux, RI-MP2 NMR
   Willem Van den Heuvel  : Paramagnetic NMR
   Boris Wezisla          : Elementary symmetry handling
   Frank Wennmohs         : Technical directorship


 We gratefully acknowledge several colleagues who have allowed us to
 interface, adapt or use parts of their codes:
   Stefan Grimme, W. Hujo, H. Kruse,             : VdW corrections, initial TS optimization,
                  C. Bannwarth                     DFT functionals, gCP, sTDA/sTD-DF
   Ed Valeev, F. Pavosevic, A. Kumar             : LibInt (2-el integral package), F12 methods
   Garnet Chan, S. Sharma, J. Yang, R. Olivares  : DMRG
   Ulf Ekstrom                                   : XCFun DFT Library
   Mihaly Kallay                                 : mrcc  (arbitrary order and MRCC methods)
   Andreas Klamt, Michael Diedenhofen            : otool_cosmo (COSMO solvation model)
   Jiri Pittner, Ondrej Demel                    : Mk-CCSD
   Frank Weinhold                                : gennbo (NPA and NBO analysis)
   Christopher J. Cramer and Donald G. Truhlar   : smd solvation model
   Lars Goerigk                                  : TD-DFT with DH, B97 family of functionals
   V. Asgeirsson, H. Jonsson                     : NEB implementation
   FAccTs GmbH                                   : IRC, NEB, NEB-TS, Multilevel, MM, QM/MM, CI optimization
   S Lehtola, MJT Oliveira, MAL Marques          : LibXC Library


 Your calculation uses the libint2 library for the computation of 2-el integrals
 For citations please refer to: http://libint.valeyev.net

 Your ORCA version has been built with support for libXC version: 4.2.3
 For citations please refer to: https://tddft.org/programs/libxc/

 This ORCA versions uses:
   CBLAS   interface :  Fast vector & matrix operations
   LAPACKE interface :  Fast linear algebra routines
   SCALAPACK package :  Parallel linear algebra routines




***************************************
The coordinates will be read from file: 27.xyz
***************************************


Your calculation utilizes the atom-pairwise dispersion correction
with the Becke-Johnson damping scheme (D3BJ)
Cite in your paper:
S.Grimme, S.Ehrlich, L.Goerigk, J Comput Chem, (2011), 32, 1456–1465 
S.Grimme, J.Antony, S.Ehrlich and H.Krieg, J.Chem.Phys., 132, (2010), 154104 
   

----- Orbital basis set information -----
Your calculation utilizes the basis: def2-TZVP
   F. Weigend and R. Ahlrichs, Phys. Chem. Chem. Phys. 7, 3297 (2005).

----- AuxJ basis set information -----
Your calculation utilizes the auxiliary basis: def2/J
   F. Weigend, Phys. Chem. Chem. Phys. 8, 1057 (2006).

================================================================================
                                        WARNINGS
                       Please study these warnings very carefully!
================================================================================


WARNING: Geometry Optimization
  ===> : Switching off AutoStart
         For restart on a previous wavefunction, please use MOREAD

INFO   : the flag for use of LIBINT has been found!

================================================================================
                                       INPUT FILE
================================================================================
NAME = 27.inp
|  1> !RI BP86 def2-tzvp def2/J D3BJ TIGHTSCF TightOpt Grid5 FinalGrid6 freq
|  2> %maxcore 4000
|  3> %pal nprocs 24
|  4> end
|  5> * xyzfile 0 1 27.xyz 
|  6> 
|  7>                          ****END OF INPUT****
================================================================================

                       *****************************
                       * Geometry Optimization Run *
                       *****************************

Geometry optimization settings:
Update method            Update   .... BFGS
Choice of coordinates    CoordSys .... Z-matrix Internals
Initial Hessian          InHess   .... Almoef's Model

Convergence Tolerances:
Energy Change            TolE     ....  1.0000e-06 Eh
Max. Gradient            TolMAXG  ....  1.0000e-04 Eh/bohr
RMS Gradient             TolRMSG  ....  3.0000e-05 Eh/bohr
Max. Displacement        TolMAXD  ....  1.0000e-03 bohr
RMS Displacement         TolRMSD  ....  6.0000e-04 bohr
Strict Convergence                ....  False
------------------------------------------------------------------------------
                        ORCA OPTIMIZATION COORDINATE SETUP
------------------------------------------------------------------------------

The optimization will be done in new redundant internal coordinates
Making redundant internal coordinates   ...  (new redundants) done
Evaluating the initial hessian          ...  (Almloef) done
Evaluating the coordinates              ...  done
Calculating the B-matrix                .... done
Calculating the G-matrix                .... done
Diagonalizing the G-matrix              .... done
Small eigenvalue found = 2.342e-04
Small eigenvalue found = 1.625e-03
Small eigenvalue found = 2.682e-03
Small eigenvalue found = 3.072e-03
Small eigenvalue found = 3.628e-03
Small eigenvalue found = 4.359e-03
Small eigenvalue found = 5.591e-03
Small eigenvalue found = 7.521e-03
Small eigenvalue found = 9.518e-03
Small eigenvalue found = 1.032e-02
Small eigenvalue found = 1.157e-02
Small eigenvalue found = 1.551e-02
Small eigenvalue found = 1.608e-02
Small eigenvalue found = 1.864e-02
Small eigenvalue found = 1.956e-02
Small eigenvalue found = 2.126e-02
Small eigenvalue found = 2.307e-02
Small eigenvalue found = 2.324e-02
Small eigenvalue found = 2.416e-02
Small eigenvalue found = 2.683e-02
The first mode is                       ....  325
The number of degrees of freedom        ....  339

    -----------------------------------------------------------------
                    Redundant Internal Coordinates


    -----------------------------------------------------------------
         Definition                    Initial Value    Approx d2E/dq
    -----------------------------------------------------------------
      1. B(C   1,O   0)                  1.2270         1.018488   
      2. B(C   2,C   1)                  1.5288         0.375245   
      3. B(C   3,C   2)                  1.5445         0.354226   
      4. B(C   4,C   3)                  1.5341         0.367969   
      5. B(C   5,C   4)                  1.5298         0.373877   
      6. B(N   6,C   2)                  1.4791         0.403434   
      7. B(N   6,C   5)                  1.4740         0.411007   
      8. B(C   7,N   6)                  1.3603         0.624061   
      9. B(O   8,C   7)                  1.2413         0.966454   
     10. B(N   9,C   1)                  1.3634         0.616999   
     11. B(C  10,N   9)                  1.4554         0.440102   
     12. B(C  11,C  10)                  1.5420         0.357502   
     13. B(N  12,C  11)                  1.3615         0.621468   
     14. B(C  13,N  12)                  1.4606         0.431681   
     15. B(C  14,C  13)                  1.5240         0.381969   
     16. B(N  15,C  14)                  1.3451         0.659934   
     17. B(C  16,N  15)                  1.4535         0.443152   
     18. B(C  17,C  16)                  1.5472         0.350680   
     19. B(C  18,C  17)                  1.5556         0.340102   
     20. B(C  19,C  18)                  1.5320         0.370848   
     21. B(N  20,C  19)                  1.3585         0.628195   
     22. B(C  21,N  20)                  1.4557         0.439662   
     23. B(C  22,C  21)                  1.5401         0.359954   
     24. B(N  23,C  22)                  1.3609         0.622823   
     25. B(C  24,N  23)                  1.4485         0.451323   
     26. B(C  24,C   7)                  1.5321         0.370703   
     27. B(C  25,C  24)                  1.5429         0.356264   
     28. B(O  26,C  22)                  1.2326         0.997832   
     29. B(C  27,C  21)                  1.5386         0.361978   
     30. B(C  28,C  27)                  1.5360         0.365491   
     31. B(C  29,C  28)                  1.5327         0.369936   
     32. B(C  30,C  28)                  1.5324         0.370333   
     33. B(O  31,C  19)                  1.2350         0.988835   
     34. B(C  32,C  18)                  1.5400         0.360044   
     35. B(C  33,C  32)                  1.5109         0.400712   
     36. B(C  34,C  33)                  1.5291         0.374834   
     37. B(C  35,C  34)                  1.5325         0.370144   
     38. B(C  36,C  35)                  1.5293         0.374526   
     39. B(C  37,C  36)                  1.5307         0.372620   
     40. B(C  38,C  37)                  1.5297         0.374023   
     41. B(C  39,C  38)                  1.5293         0.374531   
     42. B(C  40,C  39)                  1.5300         0.373638   
     43. B(C  41,C  40)                  1.5298         0.373849   
     44. B(O  42,C  32)                  1.2291         1.010654   
     45. B(O  43,C  17)                  1.4232         0.495382   
     46. B(O  44,C  14)                  1.2451         0.952878   
     47. B(C  45,C  13)                  1.5361         0.365246   
     48. B(C  46,C  45)                  1.5279         0.376403   
     49. B(O  47,C  11)                  1.2297         1.008551   
     50. B(C  48,C  10)                  1.5492         0.348077   
     51. B(C  49,C  48)                  1.5347         0.367165   
     52. B(C  50,C  48)                  1.5310         0.372264   
     53. B(H  51,C   2)                  1.0987         0.348812   
     54. B(H  52,C   3)                  1.0952         0.353343   
     55. B(H  53,C   3)                  1.1005         0.346433   
     56. B(H  54,C   4)                  1.0972         0.350705   
     57. B(H  55,C   4)                  1.1007         0.346197   
     58. B(H  56,C   5)                  1.1038         0.342326   
     59. B(H  57,C   5)                  1.0940         0.354894   
     60. B(H  58,N   9)                  1.0166         0.422411   
     61. B(H  59,C  10)                  1.1002         0.346796   
     62. B(H  60,N  12)                  1.0199         0.417300   
     63. B(H  61,C  13)                  1.1040         0.342050   
     64. B(H  62,N  15)                  1.0139         0.426552   
     65. B(H  63,C  16)                  1.0956         0.352738   
     66. B(H  64,C  16)                  1.0999         0.347204   
     67. B(H  65,C  17)                  1.1005         0.346447   
     68. B(H  66,C  18)                  1.1018         0.344840   
     69. B(H  67,N  20)                  1.0292         0.403188   
     70. B(H  68,C  21)                  1.0975         0.350356   
     71. B(H  69,O  44)                  2.2392         0.004732   
     72. B(H  69,N  23)                  1.0213         0.415053   
     73. B(H  70,C  24)                  1.1026         0.343795   
     74. B(H  71,C  25)                  1.0966         0.351511   
     75. B(H  72,C  25)                  1.0980         0.349713   
     76. B(H  73,C  25)                  1.0972         0.350694   
     77. B(H  74,C  27)                  1.1018         0.344883   
     78. B(H  75,C  27)                  1.1027         0.343738   
     79. B(H  76,C  28)                  1.1043         0.341712   
     80. B(H  77,C  29)                  1.1002         0.346827   
     81. B(H  78,C  29)                  1.1016         0.345024   
     82. B(H  79,C  29)                  1.0997         0.347436   
     83. B(H  80,C  30)                  1.0989         0.348530   
     84. B(H  81,C  30)                  1.0998         0.347399   
     85. B(H  82,C  30)                  1.1019         0.344693   
     86. B(H  83,C  33)                  1.1006         0.346350   
     87. B(H  84,C  33)                  1.1045         0.341381   
     88. B(H  85,C  34)                  1.1018         0.344865   
     89. B(H  86,C  34)                  1.1001         0.347023   
     90. B(H  87,C  35)                  1.1013         0.345442   
     91. B(H  88,H  73)                  2.0324         0.002162   
     92. B(H  88,C  35)                  1.1041         0.341876   
     93. B(H  89,C  36)                  1.1044         0.341497   
     94. B(H  90,C  36)                  1.1033         0.342868   
     95. B(H  91,C  37)                  1.1035         0.342719   
     96. B(H  92,C  37)                  1.1053         0.340481   
     97. B(H  93,C  38)                  1.1044         0.341543   
     98. B(H  94,C  38)                  1.1036         0.342489   
     99. B(H  95,C  39)                  1.1045         0.341449   
    100. B(H  96,H  55)                  2.3326         0.000718   
    101. B(H  96,C  39)                  1.1051         0.340725   
    102. B(H  97,C  40)                  1.1033         0.342901   
    103. B(H  98,C  40)                  1.1028         0.343570   
    104. B(H  99,C  41)                  1.0992         0.348171   
    105. B(H 100,C  41)                  1.1014         0.345333   
    106. B(H 101,C  41)                  1.1006         0.346289   
    107. B(H 102,O  43)                  0.9836         0.476752   
    108. B(H 103,H  77)                  3.7009         0.000005   
    109. B(H 103,C  45)                  1.0999         0.347238   
    110. B(H 104,C  45)                  1.0982         0.349365   
    111. B(H 105,C  46)                  1.0981         0.349523   
    112. B(H 106,C  46)                  1.1004         0.346556   
    113. B(H 107,C  46)                  1.1004         0.346605   
    114. B(H 108,C  48)                  1.1072         0.338047   
    115. B(H 109,C  49)                  1.0988         0.348653   
    116. B(H 110,C  49)                  1.0989         0.348498   
    117. B(H 111,C  49)                  1.1007         0.346259   
    118. B(H 112,C  50)                  1.0958         0.352482   
    119. B(H 113,C  50)                  1.0996         0.347635   
    120. B(H 114,C  50)                  1.0993         0.347953   
    121. A(O   0,C   1,N   9)          123.7211         0.468349   
    122. A(C   2,C   1,N   9)          115.6022         0.394125   
    123. A(O   0,C   1,C   2)          120.5489         0.430779   
    124. A(C   1,C   2,H  51)          105.7790         0.322865   
    125. A(N   6,C   2,H  51)          108.6980         0.324774   
    126. A(C   1,C   2,N   6)          115.8579         0.366151   
    127. A(C   1,C   2,C   3)          111.1563         0.360342   
    128. A(C   3,C   2,H  51)          111.7058         0.319833   
    129. A(C   3,C   2,N   6)          103.7581         0.362558   
    130. A(C   4,C   3,H  53)          110.2128         0.321470   
    131. A(C   4,C   3,H  52)          113.7554         0.322512   
    132. A(C   2,C   3,C   4)          104.0902         0.359143   
    133. A(C   2,C   3,H  53)          109.8193         0.319476   
    134. A(C   2,C   3,H  52)          111.1243         0.320508   
    135. A(H  52,C   3,H  53)          107.8042         0.288224   
    136. A(H  54,C   4,H  55)          108.2030         0.287855   
    137. A(C   3,C   4,H  55)          110.3558         0.321434   
    138. A(C   3,C   4,C   5)          102.9111         0.362464   
    139. A(C   3,C   4,H  54)          113.1676         0.322116   
    140. A(C   5,C   4,H  55)          109.5471         0.322274   
    141. A(C   5,C   4,H  54)          112.5751         0.322958   
    142. A(H  56,C   5,H  57)          107.8994         0.287884   
    143. A(C   4,C   5,N   6)          102.7067         0.367090   
    144. A(C   4,C   5,H  56)          110.9244         0.321681   
    145. A(N   6,C   5,H  57)          111.6016         0.326697   
    146. A(N   6,C   5,H  56)          110.0826         0.324765   
    147. A(C   4,C   5,H  57)          113.5873         0.323587   
    148. A(C   5,N   6,C   7)          128.0313         0.398711   
    149. A(C   2,N   6,C   7)          118.9749         0.397410   
    150. A(C   2,N   6,C   5)          111.7563         0.369592   
    151. A(O   8,C   7,C  24)          120.9683         0.425817   
    152. A(N   6,C   7,O   8)          120.6968         0.464840   
    153. A(N   6,C   7,C  24)          118.3100         0.394070   
    154. A(C   1,N   9,C  10)          122.6580         0.402733   
    155. A(C  10,N   9,H  58)          118.9834         0.337185   
    156. A(C   1,N   9,H  58)          118.1892         0.356908   
    157. A(C  48,C  10,H  59)          109.8779         0.318619   
    158. A(C  11,C  10,H  59)          105.2412         0.320011   
    159. A(N   9,C  10,C  11)          112.6411         0.368580   
    160. A(N   9,C  10,C  48)          109.0090         0.366894   
    161. A(N   9,C  10,H  59)          108.0205         0.329147   
    162. A(C  11,C  10,C  48)          111.9112         0.356322   
    163. A(N  12,C  11,O  47)          123.5030         0.468127   
    164. A(C  10,C  11,O  47)          121.4562         0.426303   
    165. A(C  10,C  11,N  12)          114.9444         0.391291   
    166. A(C  13,N  12,H  60)          117.7926         0.335422   
    167. A(C  11,N  12,C  13)          121.2110         0.401875   
    168. A(C  11,N  12,H  60)          119.0519         0.356608   
    169. A(C  14,C  13,C  45)          110.5139         0.363331   
    170. A(N  12,C  13,H  61)          108.4540         0.327355   
    171. A(C  14,C  13,H  61)          110.9311         0.322768   
    172. A(N  12,C  13,C  14)          105.7465         0.371562   
    173. A(C  45,C  13,H  61)          108.9604         0.320412   
    174. A(N  12,C  13,C  45)          112.2030         0.368713   
    175. A(C  13,C  14,N  15)          117.6421         0.400054   
    176. A(N  15,C  14,O  44)          122.1235         0.468408   
    177. A(C  13,C  14,O  44)          120.1935         0.427022   
    178. A(C  14,N  15,H  62)          119.2249         0.361620   
    179. A(C  16,N  15,H  62)          120.1222         0.338123   
    180. A(C  14,N  15,C  16)          120.5025         0.408045   
    181. A(H  63,C  16,H  64)          107.4435         0.288247   
    182. A(C  17,C  16,H  64)          111.6447         0.319067   
    183. A(N  15,C  16,H  63)          108.1851         0.330450   
    184. A(C  17,C  16,H  63)          108.7472         0.319892   
    185. A(N  15,C  16,C  17)          113.1857         0.367799   
    186. A(N  15,C  16,H  64)          107.4276         0.329587   
    187. A(O  43,C  17,H  65)          105.7567         0.335609   
    188. A(C  18,C  17,H  65)          108.3007         0.317365   
    189. A(C  16,C  17,H  65)          108.8657         0.318954   
    190. A(C  16,C  17,C  18)          112.2198         0.353767   
    191. A(C  18,C  17,O  43)          111.0720         0.372944   
    192. A(C  16,C  17,O  43)          110.3725         0.374919   
    193. A(C  19,C  18,H  66)          105.1395         0.321638   
    194. A(C  17,C  18,H  66)          105.9852         0.317125   
    195. A(C  17,C  18,C  32)          107.8762         0.355350   
    196. A(C  17,C  18,C  19)          118.6823         0.357139   
    197. A(C  19,C  18,C  32)          112.3947         0.360619   
    198. A(C  32,C  18,H  66)          105.7928         0.320086   
    199. A(C  18,C  19,N  20)          117.1553         0.394553   
    200. A(N  20,C  19,O  31)          123.8336         0.467357   
    201. A(C  18,C  19,O  31)          118.9796         0.427596   
    202. A(C  19,N  20,H  67)          121.4403         0.355180   
    203. A(C  19,N  20,C  21)          122.4675         0.403942   
    204. A(C  21,N  20,H  67)          116.0883         0.334527   
    205. A(C  27,C  21,H  68)          110.5542         0.321199   
    206. A(C  22,C  21,H  68)          105.5111         0.320905   
    207. A(N  20,C  21,H  68)          106.7860         0.329649   
    208. A(N  20,C  21,C  22)          113.0534         0.368949   
    209. A(C  22,C  21,C  27)          109.2960         0.359120   
    210. A(N  20,C  21,C  27)          111.4494         0.369305   
    211. A(C  21,C  22,N  23)          116.0282         0.391909   
    212. A(C  21,C  22,O  26)          121.1449         0.426009   
    213. A(N  23,C  22,O  26)          122.8200         0.467397   
    214. A(C  22,N  23,C  24)          122.0348         0.405198   
    215. A(C  24,N  23,H  69)          115.9135         0.337612   
    216. A(C  22,N  23,H  69)          121.6500         0.356413   
    217. A(C  25,C  24,H  70)          108.9085         0.319377   
    218. A(N  23,C  24,H  70)          108.8502         0.330045   
    219. A(C   7,C  24,H  70)          110.7225         0.321458   
    220. A(N  23,C  24,C  25)          110.5383         0.369957   
    221. A(C   7,C  24,N  23)          106.9893         0.372495   
    222. A(C   7,C  24,C  25)          110.8066         0.359948   
    223. A(H  71,C  25,H  73)          109.1038         0.288541   
    224. A(C  24,C  25,H  73)          109.7490         0.320415   
    225. A(H  71,C  25,H  72)          108.6586         0.288414   
    226. A(C  24,C  25,H  72)          112.5941         0.320268   
    227. A(C  24,C  25,H  71)          108.4050         0.320537   
    228. A(H  72,C  25,H  73)          108.2751         0.288309   
    229. A(C  28,C  27,H  75)          109.2219         0.320705   
    230. A(C  21,C  27,C  28)          114.2764         0.360055   
    231. A(H  74,C  27,H  75)          107.1957         0.286784   
    232. A(C  21,C  27,H  75)          108.6018         0.320199   
    233. A(C  28,C  27,H  74)          109.8671         0.320879   
    234. A(C  21,C  27,H  74)          107.4320         0.320373   
    235. A(C  29,C  28,C  30)          111.2748         0.362205   
    236. A(C  27,C  28,C  30)          112.2344         0.361458   
    237. A(C  27,C  28,C  29)          109.6714         0.361392   
    238. A(C  30,C  28,H  76)          107.9806         0.321085   
    239. A(C  29,C  28,H  76)          107.8403         0.321029   
    240. A(C  27,C  28,H  76)          107.6608         0.320395   
    241. A(C  28,C  29,H  79)          111.1435         0.321903   
    242. A(H  78,C  29,H  79)          107.6652         0.287282   
    243. A(H  77,C  29,H  79)          107.9795         0.287516   
    244. A(H  77,C  29,H  78)          107.7827         0.287203   
    245. A(C  28,C  29,H  78)          110.7628         0.321536   
    246. A(C  28,C  29,H  77)          111.3502         0.321811   
    247. A(H  81,C  30,H  82)          107.7079         0.287234   
    248. A(H  80,C  30,H  82)          108.0184         0.287380   
    249. A(C  28,C  30,H  82)          110.6378         0.321542   
    250. A(H  80,C  30,H  81)          107.5621         0.287731   
    251. A(C  28,C  30,H  81)          110.6963         0.321954   
    252. A(C  28,C  30,H  80)          112.0502         0.322125   
    253. A(C  33,C  32,O  42)          121.7583         0.435291   
    254. A(C  18,C  32,O  42)          118.1221         0.427003   
    255. A(C  18,C  32,C  33)          120.0923         0.365423   
    256. A(C  32,C  33,C  34)          114.4163         0.367953   
    257. A(C  34,C  33,H  84)          111.8034         0.321670   
    258. A(H  83,C  33,H  84)          104.4006         0.286666   
    259. A(C  32,C  33,H  84)          105.5925         0.325212   
    260. A(C  34,C  33,H  83)          110.5418         0.322432   
    261. A(C  32,C  33,H  83)          109.5139         0.325986   
    262. A(C  33,C  34,C  35)          111.8504         0.362988   
    263. A(H  85,C  34,H  86)          106.9562         0.287208   
    264. A(C  35,C  34,H  86)          110.4758         0.321870   
    265. A(C  33,C  34,H  86)          110.0650         0.322535   
    266. A(C  35,C  34,H  85)          109.1993         0.321542   
    267. A(C  33,C  34,H  85)          108.1389         0.322205   
    268. A(C  34,C  35,C  36)          114.3813         0.362937   
    269. A(H  87,C  35,H  88)          105.4541         0.286613   
    270. A(C  36,C  35,H  88)          108.7632         0.321703   
    271. A(C  34,C  35,H  88)          108.7711         0.321084   
    272. A(C  36,C  35,H  87)          109.2725         0.322250   
    273. A(C  34,C  35,H  87)          109.8116         0.321630   
    274. A(C  35,C  36,C  37)          112.7047         0.363351   
    275. A(H  89,C  36,H  90)          105.9595         0.286230   
    276. A(C  37,C  36,H  90)          109.9039         0.321587   
    277. A(C  35,C  36,H  90)          109.8655         0.321856   
    278. A(C  37,C  36,H  89)          108.8734         0.321376   
    279. A(C  35,C  36,H  89)          109.3029         0.321645   
    280. A(C  36,C  37,C  38)          113.8013         0.363267   
    281. A(H  91,C  37,H  92)          105.6016         0.286077   
    282. A(C  38,C  37,H  92)          109.2826         0.321417   
    283. A(C  36,C  37,H  92)          108.4625         0.321219   
    284. A(C  38,C  37,H  91)          109.5677         0.321762   
    285. A(C  36,C  37,H  91)          109.7942         0.321564   
    286. A(C  37,C  38,C  39)          113.1405         0.363585   
    287. A(H  93,C  38,H  94)          105.9643         0.286186   
    288. A(C  39,C  38,H  94)          109.5487         0.321798   
    289. A(C  37,C  38,H  94)          109.3449         0.321726   
    290. A(C  39,C  38,H  93)          109.1691         0.321652   
    291. A(C  37,C  38,H  93)          109.4216         0.321581   
    292. A(C  38,C  39,C  40)          114.1965         0.363521   
    293. A(H  95,C  39,H  96)          106.0076         0.285944   
    294. A(C  40,C  39,H  96)          108.8524         0.321400   
    295. A(C  38,C  39,H  96)          108.6467         0.321526   
    296. A(C  40,C  39,H  95)          109.2174         0.321512   
    297. A(C  38,C  39,H  95)          109.5962         0.321638   
    298. A(C  39,C  40,C  41)          112.8370         0.363407   
    299. A(H  97,C  40,H  98)          106.0251         0.286504   
    300. A(C  41,C  40,H  98)          109.6839         0.321868   
    301. A(C  39,C  40,H  98)          109.0926         0.321838   
    302. A(C  41,C  40,H  97)          109.7065         0.321765   
    303. A(C  39,C  40,H  97)          109.2654         0.321735   
    304. A(H 100,C  41,H 101)          107.6236         0.287174   
    305. A(H  99,C  41,H 101)          107.6905         0.287541   
    306. A(C  40,C  41,H 101)          111.1011         0.322284   
    307. A(H  99,C  41,H 100)          107.4571         0.287417   
    308. A(C  40,C  41,H 100)          111.0287         0.322138   
    309. A(C  40,C  41,H  99)          111.7460         0.322570   
    310. A(C  17,O  43,H 102)          104.7154         0.351000   
    311. A(C  13,C  45,C  46)          112.1966         0.362421   
    312. A(C  46,C  45,H 104)          110.6333         0.323112   
    313. A(C  13,C  45,H 104)          107.2705         0.321523   
    314. A(C  46,C  45,H 103)          110.8297         0.322788   
    315. A(C  13,C  45,H 103)          107.6379         0.321202   
    316. A(H 103,C  45,H 104)          108.0954         0.287818   
    317. A(H 106,C  46,H 107)          107.8156         0.287373   
    318. A(H 105,C  46,H 107)          107.5942         0.287756   
    319. A(C  45,C  46,H 107)          111.2594         0.322692   
    320. A(H 105,C  46,H 106)          107.4340         0.287750   
    321. A(C  45,C  46,H 106)          111.6504         0.322684   
    322. A(C  45,C  46,H 105)          110.8965         0.323136   
    323. A(C  50,C  48,H 108)          107.9415         0.320792   
    324. A(C  49,C  48,H 108)          108.7063         0.320070   
    325. A(C  10,C  48,H 108)          106.6371         0.317295   
    326. A(C  49,C  48,C  50)          110.3151         0.362062   
    327. A(C  10,C  48,C  50)          112.8801         0.358782   
    328. A(C  10,C  48,C  49)          110.1902         0.357941   
    329. A(H 110,C  49,H 111)          107.8478         0.287579   
    330. A(H 109,C  49,H 111)          107.6751         0.287599   
    331. A(C  48,C  49,H 111)          110.2509         0.321329   
    332. A(H 109,C  49,H 110)          107.9378         0.287889   
    333. A(C  48,C  49,H 110)          110.4502         0.321668   
    334. A(C  48,C  49,H 109)          112.5158         0.321691   
    335. A(H 113,C  50,H 114)          108.1725         0.287687   
    336. A(H 112,C  50,H 114)          108.4776         0.288311   
    337. A(C  48,C  50,H 114)          109.6089         0.322313   
    338. A(H 112,C  50,H 113)          107.3104         0.288270   
    339. A(C  48,C  50,H 113)          110.8022         0.322264   
    340. A(C  48,C  50,H 112)          112.3409         0.322996   
    341. D(H  51,C   2,C   1,N   9)   -146.2431         0.010524   
    342. D(C   3,C   2,C   1,N   9)     92.3270         0.010524   
    343. D(N   6,C   2,C   1,N   9)    -25.7688         0.010524   
    344. D(N   6,C   2,C   1,O   0)    158.1913         0.010524   
    345. D(C   3,C   2,C   1,O   0)    -83.7129         0.010524   
    346. D(H  51,C   2,C   1,O   0)     37.7170         0.010524   
    347. D(C   4,C   3,C   2,N   6)    -23.3679         0.010090   
    348. D(H  53,C   3,C   2,H  51)   -148.4738         0.010090   
    349. D(H  53,C   3,C   2,C   1)    -30.5768         0.010090   
    350. D(C   4,C   3,C   2,H  51)     93.5493         0.010090   
    351. D(H  53,C   3,C   2,N   6)     94.6090         0.010090   
    352. D(H  52,C   3,C   2,H  51)    -29.2859         0.010090   
    353. D(C   4,C   3,C   2,C   1)   -148.5537         0.010090   
    354. D(H  52,C   3,C   2,C   1)     88.6111         0.010090   
    355. D(H  52,C   3,C   2,N   6)   -146.2031         0.010090   
    356. D(H  55,C   4,C   3,H  53)    162.5973         0.010831   
    357. D(H  55,C   4,C   3,H  52)     41.3966         0.010831   
    358. D(H  54,C   4,C   3,H  52)    -80.0155         0.010831   
    359. D(H  55,C   4,C   3,C   2)    -79.6972         0.010831   
    360. D(H  54,C   4,C   3,H  53)     41.1853         0.010831   
    361. D(C   5,C   4,C   3,C   2)     37.1218         0.010831   
    362. D(H  54,C   4,C   3,C   2)    158.8908         0.010831   
    363. D(C   5,C   4,C   3,H  53)    -80.5837         0.010831   
    364. D(C   5,C   4,C   3,H  52)    158.2156         0.010831   
    365. D(N   6,C   5,C   4,C   3)    -36.2075         0.011161   
    366. D(H  57,C   5,C   4,C   3)   -156.8880         0.011161   
    367. D(H  56,C   5,C   4,H  55)   -161.2302         0.011161   
    368. D(H  56,C   5,C   4,C   3)     81.3773         0.011161   
    369. D(H  57,C   5,C   4,H  54)     80.9426         0.011161   
    370. D(H  56,C   5,C   4,H  54)    -40.7922         0.011161   
    371. D(H  57,C   5,C   4,H  55)    -39.4954         0.011161   
    372. D(N   6,C   5,C   4,H  54)   -158.3769         0.011161   
    373. D(N   6,C   5,C   4,H  55)     81.1850         0.011161   
    374. D(C   5,N   6,C   2,C   3)      0.4347         0.013892   
    375. D(C   7,N   6,C   5,H  57)    -22.3496         0.014410   
    376. D(C   7,N   6,C   5,H  56)     97.4341         0.014410   
    377. D(C   7,N   6,C   5,C   4)   -144.3862         0.014410   
    378. D(C   2,N   6,C   5,H  57)    144.6395         0.014410   
    379. D(C   2,N   6,C   5,H  56)    -95.5768         0.014410   
    380. D(C   7,N   6,C   2,H  51)     49.7369         0.013892   
    381. D(C   2,N   6,C   5,C   4)     22.6029         0.014410   
    382. D(C   7,N   6,C   2,C   3)    168.7394         0.013892   
    383. D(C   5,N   6,C   2,C   1)    122.5473         0.013892   
    384. D(C   7,N   6,C   2,C   1)    -69.1480         0.013892   
    385. D(C   5,N   6,C   2,H  51)   -118.5679         0.013892   
    386. D(C  24,C   7,N   6,C   5)      0.9047         0.031568   
    387. D(C  24,C   7,N   6,C   2)   -165.2668         0.031568   
    388. D(O   8,C   7,N   6,C   5)    179.1062         0.031568   
    389. D(O   8,C   7,N   6,C   2)     12.9347         0.031568   
    390. D(H  58,N   9,C   1,O   0)   -177.2686         0.030803   
    391. D(C  10,N   9,C   1,C   2)   -177.9512         0.030803   
    392. D(H  58,N   9,C   1,C   2)      6.8320         0.030803   
    393. D(C  10,N   9,C   1,O   0)     -2.0518         0.030803   
    394. D(H  59,C  10,N   9,C   1)     37.8689         0.016516   
    395. D(C  48,C  10,N   9,H  58)    -27.5934         0.016516   
    396. D(C  48,C  10,N   9,C   1)    157.2261         0.016516   
    397. D(C  11,C  10,N   9,C   1)    -77.9301         0.016516   
    398. D(H  59,C  10,N   9,H  58)   -146.9506         0.016516   
    399. D(C  11,C  10,N   9,H  58)     97.2504         0.016516   
    400. D(O  47,C  11,C  10,N   9)    155.2216         0.009622   
    401. D(N  12,C  11,C  10,H  59)   -145.6834         0.009622   
    402. D(N  12,C  11,C  10,C  48)     95.0126         0.009622   
    403. D(N  12,C  11,C  10,N   9)    -28.2283         0.009622   
    404. D(O  47,C  11,C  10,H  59)     37.7665         0.009622   
    405. D(O  47,C  11,C  10,C  48)    -81.5375         0.009622   
    406. D(H  60,N  12,C  11,O  47)   -166.3139         0.031286   
    407. D(H  60,N  12,C  11,C  10)     17.2155         0.031286   
    408. D(C  13,N  12,C  11,O  47)     -2.5307         0.031286   
    409. D(C  13,N  12,C  11,C  10)   -179.0013         0.031286   
    410. D(H  61,C  13,N  12,C  11)    -44.5028         0.015888   
    411. D(H  61,C  13,N  12,H  60)    119.4774         0.015888   
    412. D(C  45,C  13,N  12,H  60)   -120.1141         0.015888   
    413. D(C  45,C  13,N  12,C  11)     75.9058         0.015888   
    414. D(C  14,C  13,N  12,C  11)   -163.5407         0.015888   
    415. D(C  14,C  13,N  12,H  60)      0.4395         0.015888   
    416. D(O  44,C  14,C  13,C  45)     54.6915         0.010880   
    417. D(O  44,C  14,C  13,N  12)    -66.9570         0.010880   
    418. D(N  15,C  14,C  13,H  61)     -6.6191         0.010880   
    419. D(N  15,C  14,C  13,C  45)   -127.5854         0.010880   
    420. D(O  44,C  14,C  13,H  61)    175.6579         0.010880   
    421. D(N  15,C  14,C  13,N  12)    110.7660         0.010880   
    422. D(H  62,N  15,C  14,O  44)   -179.6681         0.035638   
    423. D(H  62,N  15,C  14,C  13)      2.6558         0.035638   
    424. D(C  16,N  15,C  14,O  44)      4.7849         0.035638   
    425. D(C  16,N  15,C  14,C  13)   -172.8913         0.035638   
    426. D(H  64,C  16,N  15,H  62)   -133.0354         0.016748   
    427. D(H  64,C  16,N  15,C  14)     42.4717         0.016748   
    428. D(H  63,C  16,N  15,H  62)    -17.3248         0.016748   
    429. D(H  63,C  16,N  15,C  14)    158.1822         0.016748   
    430. D(C  17,C  16,N  15,C  14)    -81.2399         0.016748   
    431. D(C  17,C  16,N  15,H  62)    103.2531         0.016748   
    432. D(H  65,C  17,C  16,H  64)    -86.8456         0.009905   
    433. D(H  65,C  17,C  16,H  63)    154.7782         0.009905   
    434. D(H  65,C  17,C  16,N  15)     34.5200         0.009905   
    435. D(O  43,C  17,C  16,H  64)    157.4957         0.009905   
    436. D(O  43,C  17,C  16,H  63)     39.1195         0.009905   
    437. D(O  43,C  17,C  16,N  15)    -81.1387         0.009905   
    438. D(C  18,C  17,C  16,H  64)     33.0244         0.009905   
    439. D(C  18,C  17,C  16,H  63)    -85.3518         0.009905   
    440. D(C  18,C  17,C  16,N  15)    154.3900         0.009905   
    441. D(H  66,C  18,C  17,H  65)    -78.2634         0.009365   
    442. D(H  66,C  18,C  17,O  43)     37.4551         0.009365   
    443. D(H  66,C  18,C  17,C  16)    161.5380         0.009365   
    444. D(C  32,C  18,C  17,O  43)    -75.4909         0.009365   
    445. D(C  32,C  18,C  17,C  16)     48.5921         0.009365   
    446. D(C  32,C  18,C  17,H  65)    168.7907         0.009365   
    447. D(C  19,C  18,C  17,H  65)     39.5371         0.009365   
    448. D(C  19,C  18,C  17,O  43)    155.2555         0.009365   
    449. D(C  19,C  18,C  17,C  16)    -80.6615         0.009365   
    450. D(O  31,C  19,C  18,H  66)    -48.5347         0.010295   
    451. D(O  31,C  19,C  18,C  32)     66.0748         0.010295   
    452. D(O  31,C  19,C  18,C  17)   -166.7778         0.010295   
    453. D(N  20,C  19,C  18,H  66)    133.4297         0.010295   
    454. D(N  20,C  19,C  18,C  17)     15.1867         0.010295   
    455. D(N  20,C  19,C  18,C  32)   -111.9608         0.010295   
    456. D(H  67,N  20,C  19,O  31)    175.3348         0.032022   
    457. D(H  67,N  20,C  19,C  18)     -6.7341         0.032022   
    458. D(C  21,N  20,C  19,O  31)     -3.9183         0.032022   
    459. D(C  21,N  20,C  19,C  18)    174.0128         0.032022   
    460. D(H  68,C  21,N  20,H  67)   -171.0784         0.016483   
    461. D(H  68,C  21,N  20,C  19)      8.2120         0.016483   
    462. D(C  27,C  21,N  20,H  67)    -50.2464         0.016483   
    463. D(C  27,C  21,N  20,C  19)    129.0440         0.016483   
    464. D(C  22,C  21,N  20,H  67)     73.3305         0.016483   
    465. D(C  22,C  21,N  20,C  19)   -107.3790         0.016483   
    466. D(N  23,C  22,C  21,C  27)    101.0627         0.009743   
    467. D(N  23,C  22,C  21,N  20)    -23.6926         0.009743   
    468. D(O  26,C  22,C  21,H  68)     40.8850         0.009743   
    469. D(O  26,C  22,C  21,C  27)    -78.0108         0.009743   
    470. D(O  26,C  22,C  21,N  20)    157.2339         0.009743   
    471. D(N  23,C  22,C  21,H  68)   -140.0415         0.009743   
    472. D(H  69,N  23,C  22,O  26)    170.5736         0.031433   
    473. D(H  69,N  23,C  22,C  21)     -8.4828         0.031433   
    474. D(C  24,N  23,C  22,O  26)     -1.8524         0.031433   
    475. D(C  24,N  23,C  22,C  21)    179.0912         0.031433   
    476. D(H  70,C  24,N  23,H  69)   -127.9894         0.017378   
    477. D(H  70,C  24,N  23,C  22)     44.8445         0.017378   
    478. D(C  25,C  24,N  23,H  69)    112.4349         0.017378   
    479. D(C  25,C  24,N  23,C  22)    -74.7312         0.017378   
    480. D(C   7,C  24,N  23,H  69)     -8.3021         0.017378   
    481. D(C   7,C  24,N  23,C  22)    164.5317         0.017378   
    482. D(H  70,C  24,C   7,O   8)    137.5065         0.010288   
    483. D(H  70,C  24,C   7,N   6)    -44.2971         0.010288   
    484. D(C  25,C  24,C   7,O   8)   -101.5359         0.010288   
    485. D(C  25,C  24,C   7,N   6)     76.6605         0.010288   
    486. D(N  23,C  24,C   7,O   8)     19.0303         0.010288   
    487. D(N  23,C  24,C   7,N   6)   -162.7733         0.010288   
    488. D(H  73,C  25,C  24,H  70)   -178.7601         0.010198   
    489. D(H  73,C  25,C  24,N  23)    -59.2196         0.010198   
    490. D(H  73,C  25,C  24,C   7)     59.2152         0.010198   
    491. D(H  72,C  25,C  24,H  70)     60.5577         0.010198   
    492. D(H  72,C  25,C  24,N  23)   -179.9018         0.010198   
    493. D(H  72,C  25,C  24,C   7)    -61.4669         0.010198   
    494. D(H  71,C  25,C  24,H  70)    -59.6858         0.010198   
    495. D(H  71,C  25,C  24,N  23)     59.8547         0.010198   
    496. D(H  71,C  25,C  24,C   7)    178.2895         0.010198   
    497. D(H  75,C  27,C  21,H  68)   -177.0278         0.010504   
    498. D(H  75,C  27,C  21,C  22)    -61.3134         0.010504   
    499. D(H  75,C  27,C  21,N  20)     64.3716         0.010504   
    500. D(H  74,C  27,C  21,H  68)    -61.3932         0.010504   
    501. D(H  74,C  27,C  21,C  22)     54.3212         0.010504   
    502. D(H  74,C  27,C  21,N  20)   -179.9939         0.010504   
    503. D(C  28,C  27,C  21,H  68)     60.7724         0.010504   
    504. D(C  28,C  27,C  21,C  22)    176.4868         0.010504   
    505. D(C  28,C  27,C  21,N  20)    -57.8282         0.010504   
    506. D(H  76,C  28,C  27,H  75)    -62.0924         0.010695   
    507. D(H  76,C  28,C  27,H  74)   -179.4081         0.010695   
    508. D(H  76,C  28,C  27,C  21)     59.7678         0.010695   
    509. D(C  30,C  28,C  27,H  75)    179.2130         0.010695   
    510. D(C  30,C  28,C  27,H  74)     61.8973         0.010695   
    511. D(C  30,C  28,C  27,C  21)    -58.9268         0.010695   
    512. D(C  29,C  28,C  27,H  75)     54.9896         0.010695   
    513. D(C  29,C  28,C  27,H  74)    -62.3261         0.010695   
    514. D(C  29,C  28,C  27,C  21)    176.8498         0.010695   
    515. D(H  79,C  29,C  28,C  30)     58.2896         0.010940   
    516. D(H  79,C  29,C  28,C  27)   -176.9299         0.010940   
    517. D(H  78,C  29,C  28,H  76)   -179.6023         0.010940   
    518. D(H  78,C  29,C  28,C  30)    -61.3522         0.010940   
    519. D(H  78,C  29,C  28,C  27)     63.4283         0.010940   
    520. D(H  77,C  29,C  28,H  76)     60.4716         0.010940   
    521. D(H  77,C  29,C  28,C  30)    178.7217         0.010940   
    522. D(H  79,C  29,C  28,H  76)    -59.9605         0.010940   
    523. D(H  77,C  29,C  28,C  27)    -56.4978         0.010940   
    524. D(H  82,C  30,C  28,H  76)   -176.8087         0.010962   
    525. D(H  82,C  30,C  28,C  29)     65.0257         0.010962   
    526. D(H  82,C  30,C  28,C  27)    -58.3026         0.010962   
    527. D(H  81,C  30,C  28,H  76)     63.8683         0.010962   
    528. D(H  81,C  30,C  28,C  29)    -54.2973         0.010962   
    529. D(H  81,C  30,C  28,C  27)   -177.6256         0.010962   
    530. D(H  80,C  30,C  28,H  76)    -56.2001         0.010962   
    531. D(H  80,C  30,C  28,C  29)   -174.3657         0.010962   
    532. D(H  80,C  30,C  28,C  27)     62.3060         0.010962   
    533. D(O  42,C  32,C  18,H  66)    -62.8211         0.009748   
    534. D(O  42,C  32,C  18,C  19)   -177.0323         0.009748   
    535. D(O  42,C  32,C  18,C  17)     50.2538         0.009748   
    536. D(C  33,C  32,C  18,H  66)    119.0469         0.009748   
    537. D(C  33,C  32,C  18,C  19)      4.8358         0.009748   
    538. D(C  33,C  32,C  18,C  17)   -127.8782         0.009748   
    539. D(H  84,C  33,C  32,O  42)     95.6121         0.011915   
    540. D(H  84,C  33,C  32,C  18)    -86.3256         0.011915   
    541. D(H  83,C  33,C  32,O  42)   -152.4974         0.011915   
    542. D(H  83,C  33,C  32,C  18)     25.5649         0.011915   
    543. D(C  34,C  33,C  32,O  42)    -27.7668         0.011915   
    544. D(C  34,C  33,C  32,C  18)    150.2955         0.011915   
    545. D(H  86,C  34,C  33,H  84)    -68.3845         0.011215   
    546. D(H  86,C  34,C  33,H  83)    175.7697         0.011215   
    547. D(H  86,C  34,C  33,C  32)     51.5852         0.011215   
    548. D(H  85,C  34,C  33,H  84)     48.1273         0.011215   
    549. D(H  85,C  34,C  33,H  83)    -67.7186         0.011215   
    550. D(H  85,C  34,C  33,C  32)    168.0969         0.011215   
    551. D(C  35,C  34,C  33,H  84)    168.4058         0.011215   
    552. D(C  35,C  34,C  33,H  83)     52.5599         0.011215   
    553. D(C  35,C  34,C  33,C  32)    -71.6246         0.011215   
    554. D(H  88,C  35,C  34,H  86)   -166.5423         0.010952   
    555. D(H  88,C  35,C  34,H  85)     76.0918         0.010952   
    556. D(H  88,C  35,C  34,C  33)    -43.5653         0.010952   
    557. D(H  87,C  35,C  34,H  86)    -51.6080         0.010952   
    558. D(H  87,C  35,C  34,H  85)   -168.9740         0.010952   
    559. D(H  87,C  35,C  34,C  33)     71.3689         0.010952   
    560. D(C  36,C  35,C  34,H  86)     71.6528         0.010952   
    561. D(C  36,C  35,C  34,H  85)    -45.7131         0.010952   
    562. D(C  36,C  35,C  34,C  33)   -165.3702         0.010952   
    563. D(H  90,C  36,C  35,H  87)     53.7227         0.011197   
    564. D(H  90,C  36,C  35,C  34)    -69.8283         0.011197   
    565. D(H  89,C  36,C  35,H  88)    -75.7682         0.011197   
    566. D(H  89,C  36,C  35,H  87)    169.5920         0.011197   
    567. D(H  89,C  36,C  35,C  34)     46.0410         0.011197   
    568. D(C  37,C  36,C  35,H  88)     45.4356         0.011197   
    569. D(C  37,C  36,C  35,H  87)    -69.2042         0.011197   
    570. D(H  90,C  36,C  35,H  88)    168.3624         0.011197   
    571. D(C  37,C  36,C  35,C  34)    167.2448         0.011197   
    572. D(H  92,C  37,C  36,H  90)    174.9908         0.011090   
    573. D(H  92,C  37,C  36,H  89)     59.3442         0.011090   
    574. D(H  92,C  37,C  36,C  35)    -62.1039         0.011090   
    575. D(H  91,C  37,C  36,H  90)    -70.0795         0.011090   
    576. D(H  91,C  37,C  36,H  89)    174.2739         0.011090   
    577. D(H  91,C  37,C  36,C  35)     52.8258         0.011090   
    578. D(C  38,C  37,C  36,H  90)     53.1358         0.011090   
    579. D(C  38,C  37,C  36,H  89)    -62.5108         0.011090   
    580. D(C  38,C  37,C  36,C  35)    176.0412         0.011090   
    581. D(H  94,C  38,C  37,H  92)    173.5661         0.011169   
    582. D(H  94,C  38,C  37,H  91)     58.3046         0.011169   
    583. D(H  94,C  38,C  37,C  36)    -65.0342         0.011169   
    584. D(H  93,C  38,C  37,H  92)    -70.7844         0.011169   
    585. D(H  93,C  38,C  37,H  91)    173.9541         0.011169   
    586. D(H  93,C  38,C  37,C  36)     50.6154         0.011169   
    587. D(C  39,C  38,C  37,H  92)     51.1748         0.011169   
    588. D(C  39,C  38,C  37,H  91)    -64.0867         0.011169   
    589. D(C  39,C  38,C  37,C  36)    172.5746         0.011169   
    590. D(H  95,C  39,C  38,H  94)    -67.9609         0.011197   
    591. D(H  95,C  39,C  38,H  93)    176.4172         0.011197   
    592. D(H  95,C  39,C  38,C  37)     54.3167         0.011197   
    593. D(C  40,C  39,C  38,H  94)     54.9281         0.011197   
    594. D(C  40,C  39,C  38,H  93)    -60.6938         0.011197   
    595. D(C  40,C  39,C  38,C  37)    177.2057         0.011197   
    596. D(H  96,C  39,C  38,H  94)    176.6306         0.011197   
    597. D(H  96,C  39,C  38,H  93)     61.0087         0.011197   
    598. D(H  96,C  39,C  38,C  37)    -61.0919         0.011197   
    599. D(H  98,C  40,C  39,H  95)     62.6082         0.011147   
    600. D(H  98,C  40,C  39,C  38)    -60.4863         0.011147   
    601. D(H  97,C  40,C  39,H  96)    -66.5801         0.011147   
    602. D(H  97,C  40,C  39,H  95)    178.1036         0.011147   
    603. D(H  97,C  40,C  39,C  38)     55.0091         0.011147   
    604. D(C  41,C  40,C  39,H  96)     55.7487         0.011147   
    605. D(C  41,C  40,C  39,H  95)    -59.5676         0.011147   
    606. D(H  98,C  40,C  39,H  96)    177.9245         0.011147   
    607. D(C  41,C  40,C  39,C  38)    177.3378         0.011147   
    608. D(H 101,C  41,C  40,H  98)    -63.3642         0.011159   
    609. D(H 101,C  41,C  40,H  97)   -179.4403         0.011159   
    610. D(H 101,C  41,C  40,C  39)     58.4787         0.011159   
    611. D(H 100,C  41,C  40,H  98)    176.8982         0.011159   
    612. D(H 100,C  41,C  40,H  97)     60.8221         0.011159   
    613. D(H 100,C  41,C  40,C  39)    -61.2588         0.011159   
    614. D(H  99,C  41,C  40,H  98)     56.9403         0.011159   
    615. D(H  99,C  41,C  40,H  97)    -59.1358         0.011159   
    616. D(H  99,C  41,C  40,C  39)    178.7832         0.011159   
    617. D(H 102,O  43,C  17,H  65)    166.8352         0.019390   
    618. D(H 102,O  43,C  17,C  18)     49.5538         0.019390   
    619. D(H 102,O  43,C  17,C  16)    -75.5729         0.019390   
    620. D(H 104,C  45,C  13,H  61)     64.7650         0.010682   
    621. D(H 104,C  45,C  13,C  14)   -173.1038         0.010682   
    622. D(H 104,C  45,C  13,N  12)    -55.3497         0.010682   
    623. D(H 103,C  45,C  13,H  61)   -179.1210         0.010682   
    624. D(H 103,C  45,C  13,C  14)    -56.9897         0.010682   
    625. D(H 103,C  45,C  13,N  12)     60.7644         0.010682   
    626. D(C  46,C  45,C  13,H  61)    -56.9311         0.010682   
    627. D(C  46,C  45,C  13,C  14)     65.2002         0.010682   
    628. D(C  46,C  45,C  13,N  12)   -177.0458         0.010682   
    629. D(H 107,C  46,C  45,H 104)    -60.4413         0.011303   
    630. D(H 107,C  46,C  45,H 103)    179.6675         0.011303   
    631. D(H 107,C  46,C  45,C  13)     59.3115         0.011303   
    632. D(H 106,C  46,C  45,H 104)    179.0511         0.011303   
    633. D(H 106,C  46,C  45,H 103)     59.1599         0.011303   
    634. D(H 106,C  46,C  45,C  13)    -61.1961         0.011303   
    635. D(H 105,C  46,C  45,H 104)     59.2762         0.011303   
    636. D(H 105,C  46,C  45,H 103)    -60.6150         0.011303   
    637. D(H 105,C  46,C  45,C  13)    179.0291         0.011303   
    638. D(H 108,C  48,C  10,H  59)    173.9298         0.009770   
    639. D(H 108,C  48,C  10,C  11)    -69.5361         0.009770   
    640. D(H 108,C  48,C  10,N   9)     55.7339         0.009770   
    641. D(C  50,C  48,C  10,H  59)    -67.7066         0.009770   
    642. D(C  50,C  48,C  10,C  11)     48.8275         0.009770   
    643. D(C  50,C  48,C  10,N   9)    174.0974         0.009770   
    644. D(C  49,C  48,C  10,H  59)     56.1205         0.009770   
    645. D(C  49,C  48,C  10,C  11)    172.6547         0.009770   
    646. D(C  49,C  48,C  10,N   9)    -62.0754         0.009770   
    647. D(H 111,C  49,C  48,C  50)     60.6980         0.010787   
    648. D(H 111,C  49,C  48,C  10)    -64.6033         0.010787   
    649. D(H 110,C  49,C  48,H 108)     59.7790         0.010787   
    650. D(H 110,C  49,C  48,C  50)    -58.3952         0.010787   
    651. D(H 110,C  49,C  48,C  10)    176.3036         0.010787   
    652. D(H 109,C  49,C  48,H 108)    -60.9116         0.010787   
    653. D(H 109,C  49,C  48,C  50)   -179.0857         0.010787   
    654. D(H 111,C  49,C  48,H 108)    178.8721         0.010787   
    655. D(H 109,C  49,C  48,C  10)     55.6131         0.010787   
    656. D(H 114,C  50,C  48,H 108)    -63.8213         0.011070   
    657. D(H 114,C  50,C  48,C  49)     54.8211         0.011070   
    658. D(H 114,C  50,C  48,C  10)    178.5794         0.011070   
    659. D(H 113,C  50,C  48,H 108)    176.8702         0.011070   
    660. D(H 113,C  50,C  48,C  49)    -64.4874         0.011070   
    661. D(H 113,C  50,C  48,C  10)     59.2709         0.011070   
    662. D(H 112,C  50,C  48,H 108)     56.8532         0.011070   
    663. D(H 112,C  50,C  48,C  49)    175.4955         0.011070   
    664. D(H 112,C  50,C  48,C  10)    -60.7462         0.011070   
    -----------------------------------------------------------------

Number of atoms                         .... 115
Number of degrees of freedom            .... 664

         *************************************************************
         *                GEOMETRY OPTIMIZATION CYCLE   1            *
         *************************************************************
---------------------------------
CARTESIAN COORDINATES (ANGSTROEM)
---------------------------------
  O      4.216797   -1.424130   -2.065629
  C      4.108352   -0.531520   -1.230777
  C      3.710980    0.883094   -1.652857
  C      4.938674    1.686369   -2.135481
  C      4.612401    3.134901   -1.749720
  C      3.896935    2.978088   -0.406685
  N      3.129240    1.733452   -0.591672
  C      1.895038    1.430102   -0.106703
  O      1.364862    0.337225   -0.362165
  N      4.405661   -0.690545    0.090294
  C      4.843896   -1.960831    0.649292
  C      3.679085   -2.948013    0.864615
  N      2.469351   -2.367307    1.094579
  C      1.276449   -3.174271    1.338056
  C      0.093423   -2.235326    1.134935
  N     -0.690688   -2.442536    0.061834
  C     -1.740782   -1.496844   -0.278245
  C     -3.032124   -1.696545    0.550265
  C     -3.864005   -0.387379    0.667761
  C     -3.448657    0.656759    1.709042
  N     -2.208520    0.533801    2.249901
  C     -1.647020    1.529173    3.151509
  C     -0.534049    2.372157    2.501423
  N      0.107631    1.801731    1.445580
  C      1.161596    2.486727    0.725727
  C      0.571288    3.586349   -0.181441
  O     -0.243196    3.488180    2.936289
  C     -1.108159    0.881758    4.439035
  C     -2.153873    0.079877    5.228103
  C     -1.489783   -0.580574    6.441301
  C     -3.348878    0.941814    5.649045
  O     -4.230185    1.573230    1.982150
  C     -4.001315    0.213728   -0.743461
  C     -3.628685    1.656760   -0.991775
  C     -3.123535    1.944762   -2.405980
  C     -1.725701    1.362553   -2.641956
  C     -1.018933    1.902008   -3.886242
  C      0.469235    1.545452   -3.921685
  C      1.180213    1.989889   -5.201095
  C      2.695454    1.790164   -5.147001
  C      3.423764    2.163955   -6.439519
  C      4.942260    2.014057   -6.330027
  O     -4.384642   -0.520845   -1.651269
  O     -3.813896   -2.752141    0.002554
  O     -0.097539   -1.289383    1.921717
  C      1.255992   -3.767233    2.754988
  C      0.044784   -4.669670    2.985646
  O      3.864210   -4.163403    0.889208
  C      5.624382   -1.692735    1.960444
  C      6.877277   -0.855570    1.669329
  C      6.004064   -2.977995    2.700565
  H      2.967155    0.758639   -2.451800
  H      5.107534    1.542789   -3.207973
  H      5.840125    1.345239   -1.604267
  H      5.501546    3.774092   -1.681194
  H      3.924077    3.580865   -2.483823
  H      4.623576    2.856588    0.415238
  H      3.244775    3.820219   -0.157165
  H      4.244758    0.093880    0.716531
  H      5.502850   -2.446868   -0.085617
  H      2.338015   -1.384796    0.854670
  H      1.256324   -3.998568    0.603929
  H     -0.498244   -3.229926   -0.547245
  H     -1.981095   -1.619989   -1.340071
  H     -1.327983   -0.485576   -0.148736
  H     -2.757206   -2.023484    1.564503
  H     -4.879399   -0.698410    0.961309
  H     -1.614347   -0.282583    2.050400
  H     -2.453104    2.236654    3.384175
  H     -0.047360    0.825640    1.187978
  H      1.845407    2.953315    1.454049
  H      0.031083    4.302479    0.449277
  H      1.342692    4.127083   -0.745423
  H     -0.129055    3.139367   -0.898091
  H     -0.701665    1.688927    5.069195
  H     -0.266973    0.219759    4.174424
  H     -2.528076   -0.722847    4.568549
  H     -0.645549   -1.217738    6.138344
  H     -1.103775    0.180682    7.137793
  H     -2.205905   -1.206026    6.993949
  H     -3.894598    1.341571    4.783052
  H     -4.060429    0.354157    6.247258
  H     -3.016130    1.792917    6.264750
  H     -2.888204    1.979145   -0.244064
  H     -4.533902    2.242587   -0.752239
  H     -3.088532    3.037566   -2.541795
  H     -3.834335    1.551858   -3.147966
  H     -1.784348    0.264585   -2.704521
  H     -1.098931    1.573807   -1.757846
  H     -1.123853    3.000990   -3.918093
  H     -1.517694    1.523184   -4.794596
  H      0.596153    0.457592   -3.787187
  H      0.961881    2.012295   -3.049369
  H      0.961469    3.055527   -5.391541
  H      0.765245    1.436433   -6.061054
  H      2.921750    0.739371   -4.893047
  H      3.102649    2.398266   -4.319021
  H      3.171168    3.202743   -6.712348
  H      3.046531    1.532981   -7.261539
  H      5.445503    2.266332   -7.274103
  H      5.349721    2.677378   -5.550886
  H      5.220681    0.981949   -6.068007
  H     -4.227645   -2.365329   -0.801612
  H      1.260475   -2.929019    3.467138
  H      2.189272   -4.331113    2.885968
  H      0.060449   -5.095138    3.997866
  H     -0.900299   -4.116931    2.874929
  H      0.030140   -5.507779    2.272741
  H      4.950918   -1.107745    2.616287
  H      6.643848    0.085170    1.151772
  H      7.398822   -0.607165    2.604154
  H      7.574997   -1.422255    1.034091
  H      5.126124   -3.563890    2.995131
  H      6.630302   -3.622853    2.067256
  H      6.575434   -2.727433    3.605720

----------------------------
CARTESIAN COORDINATES (A.U.)
----------------------------
  NO LB      ZA    FRAG     MASS         X           Y           Z
   0 O     8.0000    0    15.999    7.968592   -2.691216   -3.903473
   1 C     6.0000    0    12.011    7.763661   -1.004426   -2.325831
   2 C     6.0000    0    12.011    7.012736    1.668805   -3.123447
   3 C     6.0000    0    12.011    9.332742    3.186776   -4.035474
   4 C     6.0000    0    12.011    8.716174    5.924104   -3.306492
   5 C     6.0000    0    12.011    7.364139    5.627770   -0.768522
   6 N     7.0000    0    14.007    5.913407    3.275750   -1.118099
   7 C     6.0000    0    12.011    3.581102    2.702501   -0.201639
   8 O     8.0000    0    15.999    2.579216    0.637264   -0.684392
   9 N     7.0000    0    14.007    8.325493   -1.304942    0.170631
  10 C     6.0000    0    12.011    9.153636   -3.705434    1.226984
  11 C     6.0000    0    12.011    6.952462   -5.570937    1.633886
  12 N     7.0000    0    14.007    4.666398   -4.473562    2.068455
  13 C     6.0000    0    12.011    2.412138   -5.998504    2.528560
  14 C     6.0000    0    12.011    0.176544   -4.224153    2.144715
  15 N     7.0000    0    14.007   -1.305211   -4.615725    0.116850
  16 C     6.0000    0    12.011   -3.289601   -2.828626   -0.525807
  17 C     6.0000    0    12.011   -5.729885   -3.206005    1.039851
  18 C     6.0000    0    12.011   -7.301912   -0.732040    1.261885
  19 C     6.0000    0    12.011   -6.517017    1.241095    3.229621
  20 N     7.0000    0    14.007   -4.173498    1.008737    4.251696
  21 C     6.0000    0    12.011   -3.112416    2.889718    5.955488
  22 C     6.0000    0    12.011   -1.009206    4.482728    4.727004
  23 N     7.0000    0    14.007    0.203393    3.404778    2.731750
  24 C     6.0000    0    12.011    2.195099    4.699233    1.371425
  25 C     6.0000    0    12.011    1.079577    6.777218   -0.342874
  26 O     8.0000    0    15.999   -0.459575    6.591705    5.548782
  27 C     6.0000    0    12.011   -2.094117    1.666282    8.388561
  28 C     6.0000    0    12.011   -4.070230    0.150946    9.879682
  29 C     6.0000    0    12.011   -2.815281   -1.097126   12.172294
  30 C     6.0000    0    12.011   -6.328463    1.779771   10.675148
  31 O     8.0000    0    15.999   -7.993891    2.972974    3.745720
  32 C     6.0000    0    12.011   -7.561389    0.403888   -1.404938
  33 C     6.0000    0    12.011   -6.857220    3.130823   -1.874184
  34 C     6.0000    0    12.011   -5.902626    3.675068   -4.546644
  35 C     6.0000    0    12.011   -3.261103    2.574852   -4.992572
  36 C     6.0000    0    12.011   -1.925505    3.594274   -7.343933
  37 C     6.0000    0    12.011    0.886725    2.920482   -7.410911
  38 C     6.0000    0    12.011    2.230279    3.760345   -9.828644
  39 C     6.0000    0    12.011    5.093669    3.382920   -9.726422
  40 C     6.0000    0    12.011    6.469976    4.089283  -12.168928
  41 C     6.0000    0    12.011    9.339518    3.806016  -11.962017
  42 O     8.0000    0    15.999   -8.285773   -0.984254   -3.120447
  43 O     8.0000    0    15.999   -7.207219   -5.200793    0.004827
  44 O     8.0000    0    15.999   -0.184323   -2.436581    3.631519
  45 C     6.0000    0    12.011    2.373481   -7.119039    5.206173
  46 C     6.0000    0    12.011    0.084629   -8.824398    5.642053
  47 O     8.0000    0    15.999    7.302299   -7.867691    1.680359
  48 C     6.0000    0    12.011   10.628543   -3.198806    3.704703
  49 C     6.0000    0    12.011   12.996170   -1.616794    3.154575
  50 C     6.0000    0    12.011   11.346037   -5.627595    5.103328
  51 H     1.0000    0     1.008    5.607110    1.433620   -4.633230
  52 H     1.0000    0     1.008    9.651841    2.915450   -6.062190
  53 H     1.0000    0     1.008   11.036237    2.542133   -3.031626
  54 H     1.0000    0     1.008   10.396415    7.132001   -3.176997
  55 H     1.0000    0     1.008    7.415430    6.766853   -4.693745
  56 H     1.0000    0     1.008    8.737293    5.398168    0.784686
  57 H     1.0000    0     1.008    6.131736    7.219167   -0.296998
  58 H     1.0000    0     1.008    8.021430    0.177408    1.354047
  59 H     1.0000    0     1.008   10.398880   -4.623910   -0.161793
  60 H     1.0000    0     1.008    4.418208   -2.616884    1.615093
  61 H     1.0000    0     1.008    2.374108   -7.556198    1.141261
  62 H     1.0000    0     1.008   -0.941546   -6.103676   -1.034143
  63 H     1.0000    0     1.008   -3.743727   -3.061336   -2.532367
  64 H     1.0000    0     1.008   -2.509524   -0.917605   -0.281071
  65 H     1.0000    0     1.008   -5.210364   -3.823831    2.956483
  66 H     1.0000    0     1.008   -9.220729   -1.319803    1.816610
  67 H     1.0000    0     1.008   -3.050673   -0.534004    3.874694
  68 H     1.0000    0     1.008   -4.635694    4.226663    6.395164
  69 H     1.0000    0     1.008   -0.089498    1.560234    2.244953
  70 H     1.0000    0     1.008    3.487315    5.580956    2.747755
  71 H     1.0000    0     1.008    0.058739    8.130507    0.849010
  72 H     1.0000    0     1.008    2.537319    7.799057   -1.408645
  73 H     1.0000    0     1.008   -0.243878    5.932544   -1.697145
  74 H     1.0000    0     1.008   -1.325954    3.191610    9.579391
  75 H     1.0000    0     1.008   -0.504506    0.415284    7.888518
  76 H     1.0000    0     1.008   -4.777372   -1.365984    8.633306
  77 H     1.0000    0     1.008   -1.219911   -2.301191   11.599789
  78 H     1.0000    0     1.008   -2.085832    0.341440   13.488474
  79 H     1.0000    0     1.008   -4.168555   -2.279058   13.216648
  80 H     1.0000    0     1.008   -7.359723    2.535202    9.038658
  81 H     1.0000    0     1.008   -7.673099    0.669261   11.805606
  82 H     1.0000    0     1.008   -5.699659    3.388122   11.838663
  83 H     1.0000    0     1.008   -5.457915    3.740041   -0.461215
  84 H     1.0000    0     1.008   -8.567833    4.237875   -1.421525
  85 H     1.0000    0     1.008   -5.836479    5.740167   -4.803297
  86 H     1.0000    0     1.008   -7.245843    2.932586   -5.948794
  87 H     1.0000    0     1.008   -3.371928    0.499992   -5.110805
  88 H     1.0000    0     1.008   -2.076678    2.974064   -3.321848
  89 H     1.0000    0     1.008   -2.123775    5.671049   -7.404122
  90 H     1.0000    0     1.008   -2.868026    2.878401   -9.060473
  91 H     1.0000    0     1.008    1.126566    0.864723   -7.156746
  92 H     1.0000    0     1.008    1.817691    3.802686   -5.762472
  93 H     1.0000    0     1.008    1.816913    5.774110  -10.188535
  94 H     1.0000    0     1.008    1.446103    2.714465  -11.453732
  95 H     1.0000    0     1.008    5.521307    1.397209   -9.246519
  96 H     1.0000    0     1.008    5.863157    4.532065   -8.161767
  97 H     1.0000    0     1.008    5.992639    6.052307  -12.684499
  98 H     1.0000    0     1.008    5.757110    2.896914  -13.722320
  99 H     1.0000    0     1.008   10.290510    4.282746  -13.746062
 100 H     1.0000    0     1.008   10.109508    5.059511  -10.489655
 101 H     1.0000    0     1.008    9.865658    1.855615  -11.466871
 102 H     1.0000    0     1.008   -7.989092   -4.469823   -1.514827
 103 H     1.0000    0     1.008    2.381953   -5.535043    6.551942
 104 H     1.0000    0     1.008    4.137124   -8.184617    5.453688
 105 H     1.0000    0     1.008    0.114232   -9.628415    7.554871
 106 H     1.0000    0     1.008   -1.701319   -7.779873    5.432829
 107 H     1.0000    0     1.008    0.056956  -10.408194    4.294859
 108 H     1.0000    0     1.008    9.355878   -2.093335    4.944066
 109 H     1.0000    0     1.008   12.555053    0.160948    2.176533
 110 H     1.0000    0     1.008   13.981748   -1.147375    4.921139
 111 H     1.0000    0     1.008   14.314670   -2.687673    1.954149
 112 H     1.0000    0     1.008    9.686970   -6.734777    5.659978
 113 H     1.0000    0     1.008   12.529456   -6.846201    3.906547
 114 H     1.0000    0     1.008   12.425769   -5.154102    6.813823

--------------------------------
INTERNAL COORDINATES (ANGSTROEM)
--------------------------------
 O      0   0   0     0.000000000000     0.00000000     0.00000000
 C      1   0   0     1.226984673083     0.00000000     0.00000000
 C      2   1   0     1.528785966828   120.54888668     0.00000000
 C      3   2   1     1.544477324430   111.15626151   276.28713473
 C      4   3   2     1.534115331607   104.09016710   211.44629921
 C      5   4   3     1.529780138327   102.91107703    37.12184345
 N      6   5   4     1.474005722235   102.70670468   323.79250205
 C      7   6   5     1.360320696219   128.03125119   215.61380674
 O      8   7   6     1.241259773896   120.69678953   179.10615514
 N      2   1   3     1.363418704953   123.72110833   184.29437575
 C     10   2   1     1.455388127969   122.65797620   357.94821133
 C     11  10   2     1.541971384205   112.64106462   282.06989327
 N     12  11  10     1.361454075785   114.94438727   331.77168890
 C     13  12  11     1.460646754857   121.21098157   180.99869951
 C     14  13  12     1.523951314161   105.74650038   196.45931957
 N     15  14  13     1.345106157513   117.64208875   110.76603111
 C     16  15  14     1.453507652987   120.50246008   187.10869114
 C     17  16  15     1.547215454142   113.18570450   278.76014324
 C     18  17  16     1.555553156550   112.21981675   154.39001121
 C     19  18  17     1.531993958435   118.68233338   279.33852461
 N     20  19  18     1.358523159104   117.15526053    15.18665354
 C     21  20  19     1.455660099207   122.46751226   174.01283560
 C     22  21  20     1.540110087546   113.05341620   252.62101062
 N     23  22  21     1.360861203410   116.02819510   336.30741738
 C     24  23  22     1.448534503012   122.03476418   179.09121029
 C     25  24  23     1.542914974399   110.53826767   285.26879219
 O     23  22  21     1.232562284977   121.14490798   157.23393946
 C     22  21  20     1.538584336156   111.44940590   129.04403945
 C     28  22  21     1.535955092046   114.27637014   302.17176831
 C     29  28  22     1.532664732500   109.67138141   176.84977226
 C     29  28  22     1.532372619563   112.23437448   301.07316268
 O     20  19  18     1.235027843945   118.97960414   193.22222383
 C     19  18  17     1.540042685952   107.87619514    48.59209964
 C     33  19  18     1.510911330107   120.09228362   232.12184393
 C     34  33  19     1.529083759092   114.41628211   150.29551069
 C     35  34  33     1.532511287487   111.85042905   288.37540844
 C     36  35  34     1.529307453706   114.38133192   194.62979378
 C     37  36  35     1.530696674483   112.70467132   167.24482489
 C     38  37  36     1.529673749264   113.80125803   176.04115235
 C     39  38  37     1.529304311548   113.14051671   172.57457481
 C     40  39  38     1.529953858441   114.19648937   177.20566330
 C     41  40  39     1.529800516573   112.83703560   177.33784279
 O     33  19  18     1.229086522302   118.12208332    50.25377445
 O     18  17  16     1.423179019758   110.37253535   278.86125975
 O     15  14  13     1.245110553818   120.19353952   293.04298975
 C     14  13  12     1.536137359838   112.20304612    75.90576828
 C     46  14  13     1.527946620154   112.19657605   182.95424252
 O     12  11  10     1.229653748548   121.45621814   155.22158536
 C     11  10   2     1.549243395856   109.00897972   157.22605884
 C     49  11  10     1.534711027985   110.19017696   297.92461855
 C     49  11  10     1.530957000224   112.88008245   174.09744164
 H      3   2   1     1.098669288760   105.77901959    37.71702606
 H      4   3   2     1.095156511313   111.12433378    88.61105785
 H      4   3   2     1.100532127848   109.81932882   329.42320892
 H      5   4   3     1.097196501483   113.16762994   158.89077368
 H      5   4   3     1.100718246926   110.35577195   280.30284593
 H      6   5   4     1.103778612908   110.92436311    81.37725241
 H      6   5   4     1.093964007643   113.58733817   203.11202948
 H     10   2   1     1.016556075511   118.18922262   182.73136847
 H     11  10   2     1.100247325008   108.02047626    37.86892463
 H     13  12  11     1.019869856625   119.05194343    17.21550300
 H     14  13  12     1.103998308847   108.45398444   315.49723274
 H     16  15  14     1.013900781722   119.22485742     2.65576282
 H     17  16  15     1.095622675916   108.18513048   158.18222564
 H     17  16  15     1.099927243361   107.42763056    42.47170802
 H     18  17  16     1.100521675467   108.86566115    34.51999115
 H     19  18  17     1.101787352702   105.98523850   161.53804806
 H     21  20  19     1.029234719330   121.44030643   353.26594484
 H     22  21  20     1.097467117774   106.78595008     8.21203168
 H     24  23  22     1.021339208626   121.64997710   351.51715023
 H     25  24  23     1.102612924601   108.85021648    44.84446555
 H     26  25  24     1.096571131737   108.40502798    59.85471666
 H     26  25  24     1.097967280079   112.59410881   180.09824174
 H     26  25  24     1.097204785749   109.74896771   300.78036500
 H     28  22  21     1.101753489352   107.43197518   180.00608385
 H     28  22  21     1.102658652286   108.60181683    64.37155920
 H     29  28  22     1.104267539312   107.66081885    59.76776975
 H     30  29  28     1.100223085254   111.35017749   303.50221114
 H     30  29  28     1.101641784723   110.76277764    63.42834339
 H     30  29  28     1.099745488596   111.14347090   183.07012973
 H     31  29  28     1.098889589144   112.05016342    62.30601180
 H     31  29  28     1.099774273886   110.69630137   182.37441083
 H     31  29  28     1.101903333336   110.63781599   301.69740573
 H     34  33  19     1.100597326179   109.51389416    25.56493579
 H     34  33  19     1.104531009459   105.59246696   273.67441232
 H     35  34  33     1.101767082140   108.13890062   168.09690494
 H     35  34  33     1.100069602813   110.06495806    51.58518820
 H     36  35  34     1.101312169820   109.81157435    71.36893636
 H     36  35  34     1.104137203669   108.77113685   316.43470284
 H     37  36  35     1.104438435725   109.30292282    46.04100332
 H     37  36  35     1.103347831237   109.86547732   290.17167974
 H     38  37  36     1.103466442952   109.79417922    52.82581803
 H     38  37  36     1.105250031405   108.46249809   297.89611852
 H     39  38  37     1.104401952243   109.42160262    50.61535205
 H     39  38  37     1.103649191881   109.34490184   294.96581293
 H     40  39  38     1.104476900565   109.59621948    54.31667436
 H     40  39  38     1.105054696623   108.64669362   298.90813871
 H     41  40  39     1.103322361512   109.26541595    55.00907600
 H     41  40  39     1.102791521411   109.09255598   299.51367156
 H     42  41  40     1.099170563755   111.74601601   178.78318092
 H     42  41  40     1.101398404292   111.02865044   298.74116073
 H     42  41  40     1.100645249868   111.10113426    58.47872342
 H     44  18  17     0.983613616810   104.71543973   284.42711961
 H     46  14  13     1.099900846391   107.63785177    60.76441052
 H     46  14  13     1.098238078479   107.27052963   304.65032620
 H     47  46  14     1.098115473364   110.89646368   179.02906582
 H     47  46  14     1.100436098325   111.65041402   298.80394452
 H     47  46  14     1.100396983458   111.25936339    59.31153654
 H     49  11  10     1.107202763398   106.63709092    55.73388847
 H     50  49  11     1.098793748667   112.51584464    55.61306964
 H     50  49  11     1.098914360938   110.45015970   176.30360578
 H     50  49  11     1.100668848526   110.25086294   295.39674794
 H     51  49  11     1.095820373430   112.34092501   299.25384015
 H     51  49  11     1.099589755373   110.80221388    59.27085669
 H     51  49  11     1.099340630496   109.60891294   178.57941430

---------------------------
INTERNAL COORDINATES (A.U.)
---------------------------
 O      0   0   0     0.000000000000     0.00000000     0.00000000
 C      1   0   0     2.318665002645     0.00000000     0.00000000
 C      2   1   0     2.888986794687   120.54888668     0.00000000
 C      3   2   1     2.918639163223   111.15626151   276.28713473
 C      4   3   2     2.899057834586   104.09016710   211.44629921
 C      5   4   3     2.890865506549   102.91107703    37.12184345
 N      6   5   4     2.785467134857   102.70670468   323.79250205
 C      7   6   5     2.570633570158   128.03125119   215.61380674
 O      8   7   6     2.345641033716   120.69678953   179.10615514
 N      2   1   3     2.576487958226   123.72110833   184.29437575
 C     10   2   1     2.750284980422   122.65797620   357.94821133
 C     11  10   2     2.913903622490   112.64106462   282.06989327
 N     12  11  10     2.572775347145   114.94438727   331.77168890
 C     13  12  11     2.760222345081   121.21098157   180.99869951
 C     14  13  12     2.879850625193   105.74650038   196.45931957
 N     15  14  13     2.541882258750   117.64208875   110.76603111
 C     16  15  14     2.746731397704   120.50246008   187.10869114
 C     17  16  15     2.923813478498   113.18570450   278.76014324
 C     18  17  16     2.939569452636   112.21981675   154.39001121
 C     19  18  17     2.895049020265   118.68233338   279.33852461
 N     20  19  18     2.567236717297   117.15526053    15.18665354
 C     21  20  19     2.750798931577   122.46751226   174.01283560
 C     22  21  20     2.910386281551   113.05341620   252.62101062
 N     23  22  21     2.571654980723   116.02819510   336.30741738
 C     24  23  22     2.737333506228   122.03476418   179.09121029
 C     25  24  23     2.915686749539   110.53826767   285.26879219
 O     23  22  21     2.329205161607   121.14490798   157.23393946
 C     22  21  20     2.907503029275   111.44940590   129.04403945
 C     28  22  21     2.902534477968   114.27637014   302.17176831
 C     29  28  22     2.896316599544   109.67138141   176.84977226
 C     29  28  22     2.895764586093   112.23437448   301.07316268
 O     20  19  18     2.333864392823   118.97960414   193.22222383
 C     19  18  17     2.910258910997   107.87619514    48.59209964
 C     33  19  18     2.855208626541   120.09228362   232.12184393
 C     34  33  19     2.889549540510   114.41628211   150.29551069
 C     35  34  33     2.896026630493   111.85042905   288.37540844
 C     36  35  34     2.889972262069   114.38133192   194.62979378
 C     37  36  35     2.892597508877   112.70467132   167.24482489
 C     38  37  36     2.890664460358   113.80125803   176.04115235
 C     39  38  37     2.889966324250   113.14051671   172.57457481
 C     40  39  38     2.891193789989   114.19648937   177.20566330
 C     41  40  39     2.890904015854   112.83703560   177.33784279
 O     33  19  18     2.322636922045   118.12208332    50.25377445
 O     18  17  16     2.689418586885   110.37253535   278.86125975
 O     15  14  13     2.352917953171   120.19353952   293.04298975
 C     14  13  12     2.902878914178   112.20304612    75.90576828
 C     46  14  13     2.887400659341   112.19657605   182.95424252
 O     12  11  10     2.323708824305   121.45621814   155.22158536
 C     11  10   2     2.927645732953   109.00897972   157.22605884
 C     49  11  10     2.900183537600   110.19017696   297.92461855
 C     49  11  10     2.893089453233   112.88008245   174.09744164
 H      3   2   1     2.076184067507   105.77901959    37.71702606
 H      4   3   2     2.069545880162   111.12433378    88.61105785
 H      4   3   2     2.079704323215   109.81932882   329.42320892
 H      5   4   3     2.073400902899   113.16762994   158.89077368
 H      5   4   3     2.080056037300   110.35577195   280.30284593
 H      6   5   4     2.085839290875   110.92436311    81.37725241
 H      6   5   4     2.067292374812   113.58733817   203.11202948
 H     10   2   1     1.921012582489   118.18922262   182.73136847
[...]
freq.      77.91  E(vib)   ...       0.49 
freq.      82.25  E(vib)   ...       0.48 
freq.      86.94  E(vib)   ...       0.48 
freq.      93.92  E(vib)   ...       0.47 
freq.     100.84  E(vib)   ...       0.46 
freq.     103.80  E(vib)   ...       0.46 
freq.     109.11  E(vib)   ...       0.45 
freq.     120.46  E(vib)   ...       0.44 
freq.     122.67  E(vib)   ...       0.43 
freq.     127.54  E(vib)   ...       0.43 
freq.     135.73  E(vib)   ...       0.42 
freq.     140.57  E(vib)   ...       0.41 
freq.     145.73  E(vib)   ...       0.41 
freq.     150.06  E(vib)   ...       0.40 
freq.     150.16  E(vib)   ...       0.40 
freq.     155.05  E(vib)   ...       0.40 
freq.     163.86  E(vib)   ...       0.39 
freq.     163.96  E(vib)   ...       0.39 
freq.     172.01  E(vib)   ...       0.38 
freq.     178.43  E(vib)   ...       0.37 
freq.     188.42  E(vib)   ...       0.36 
freq.     192.32  E(vib)   ...       0.36 
freq.     199.89  E(vib)   ...       0.35 
freq.     203.57  E(vib)   ...       0.35 
freq.     210.72  E(vib)   ...       0.34 
freq.     219.05  E(vib)   ...       0.33 
freq.     222.94  E(vib)   ...       0.33 
freq.     224.85  E(vib)   ...       0.33 
freq.     227.93  E(vib)   ...       0.33 
freq.     232.21  E(vib)   ...       0.32 
freq.     242.35  E(vib)   ...       0.31 
freq.     243.95  E(vib)   ...       0.31 
freq.     244.37  E(vib)   ...       0.31 
freq.     246.99  E(vib)   ...       0.31 
freq.     251.30  E(vib)   ...       0.30 
freq.     261.55  E(vib)   ...       0.30 
freq.     269.98  E(vib)   ...       0.29 
freq.     273.55  E(vib)   ...       0.29 
freq.     283.07  E(vib)   ...       0.28 
freq.     286.70  E(vib)   ...       0.27 
freq.     298.10  E(vib)   ...       0.27 
freq.     308.10  E(vib)   ...       0.26 
freq.     310.71  E(vib)   ...       0.26 
freq.     318.36  E(vib)   ...       0.25 
freq.     320.99  E(vib)   ...       0.25 
freq.     339.30  E(vib)   ...       0.23 
freq.     350.32  E(vib)   ...       0.23 
freq.     353.60  E(vib)   ...       0.22 
freq.     357.73  E(vib)   ...       0.22 
freq.     373.43  E(vib)   ...       0.21 
freq.     385.30  E(vib)   ...       0.20 
freq.     390.12  E(vib)   ...       0.20 
freq.     401.56  E(vib)   ...       0.19 
freq.     410.27  E(vib)   ...       0.19 
freq.     412.12  E(vib)   ...       0.19 
freq.     413.97  E(vib)   ...       0.19 
freq.     420.67  E(vib)   ...       0.18 
freq.     440.24  E(vib)   ...       0.17 
freq.     449.95  E(vib)   ...       0.17 
freq.     467.04  E(vib)   ...       0.16 
freq.     469.35  E(vib)   ...       0.16 
freq.     475.69  E(vib)   ...       0.15 
freq.     479.49  E(vib)   ...       0.15 
freq.     481.94  E(vib)   ...       0.15 
freq.     491.57  E(vib)   ...       0.14 
freq.     507.59  E(vib)   ...       0.14 
freq.     515.98  E(vib)   ...       0.13 
freq.     525.55  E(vib)   ...       0.13 
freq.     540.04  E(vib)   ...       0.12 
freq.     541.88  E(vib)   ...       0.12 
freq.     552.54  E(vib)   ...       0.12 
freq.     557.47  E(vib)   ...       0.12 
freq.     585.95  E(vib)   ...       0.11 
freq.     608.40  E(vib)   ...       0.10 
freq.     634.21  E(vib)   ...       0.09 
freq.     646.27  E(vib)   ...       0.09 
freq.     658.66  E(vib)   ...       0.08 
freq.     666.89  E(vib)   ...       0.08 
freq.     668.34  E(vib)   ...       0.08 
freq.     684.31  E(vib)   ...       0.07 
freq.     688.05  E(vib)   ...       0.07 
freq.     710.53  E(vib)   ...       0.07 
freq.     713.50  E(vib)   ...       0.07 
freq.     717.81  E(vib)   ...       0.07 
freq.     725.78  E(vib)   ...       0.06 
freq.     726.87  E(vib)   ...       0.06 
freq.     735.00  E(vib)   ...       0.06 
freq.     745.85  E(vib)   ...       0.06 
freq.     746.36  E(vib)   ...       0.06 
freq.     752.56  E(vib)   ...       0.06 
freq.     763.65  E(vib)   ...       0.06 
freq.     778.44  E(vib)   ...       0.05 
freq.     783.14  E(vib)   ...       0.05 
freq.     798.28  E(vib)   ...       0.05 
freq.     801.37  E(vib)   ...       0.05 
freq.     823.65  E(vib)   ...       0.05 
freq.     835.38  E(vib)   ...       0.04 
freq.     840.20  E(vib)   ...       0.04 
freq.     844.39  E(vib)   ...       0.04 
freq.     855.72  E(vib)   ...       0.04 
freq.     856.99  E(vib)   ...       0.04 
freq.     858.39  E(vib)   ...       0.04 
freq.     869.83  E(vib)   ...       0.04 
freq.     878.33  E(vib)   ...       0.04 
freq.     878.80  E(vib)   ...       0.04 
freq.     885.03  E(vib)   ...       0.04 
freq.     896.79  E(vib)   ...       0.03 
freq.     899.53  E(vib)   ...       0.03 
freq.     905.00  E(vib)   ...       0.03 
freq.     907.98  E(vib)   ...       0.03 
freq.     917.58  E(vib)   ...       0.03 
freq.     919.47  E(vib)   ...       0.03 
freq.     928.46  E(vib)   ...       0.03 
freq.     937.00  E(vib)   ...       0.03 
freq.     940.41  E(vib)   ...       0.03 
freq.     941.75  E(vib)   ...       0.03 
freq.     948.32  E(vib)   ...       0.03 
freq.     959.78  E(vib)   ...       0.03 
freq.     962.27  E(vib)   ...       0.03 
freq.     971.59  E(vib)   ...       0.03 
freq.     976.28  E(vib)   ...       0.03 
freq.     981.05  E(vib)   ...       0.02 
freq.     983.09  E(vib)   ...       0.02 
freq.     983.60  E(vib)   ...       0.02 
freq.     995.20  E(vib)   ...       0.02 
freq.     999.33  E(vib)   ...       0.02 
freq.    1013.35  E(vib)   ...       0.02 
freq.    1015.21  E(vib)   ...       0.02 
freq.    1019.73  E(vib)   ...       0.02 
freq.    1025.52  E(vib)   ...       0.02 
freq.    1034.15  E(vib)   ...       0.02 
freq.    1036.52  E(vib)   ...       0.02 
freq.    1046.48  E(vib)   ...       0.02 
freq.    1051.33  E(vib)   ...       0.02 
freq.    1054.57  E(vib)   ...       0.02 
freq.    1056.65  E(vib)   ...       0.02 
freq.    1062.48  E(vib)   ...       0.02 
freq.    1062.97  E(vib)   ...       0.02 
freq.    1075.36  E(vib)   ...       0.02 
freq.    1077.55  E(vib)   ...       0.02 
freq.    1081.88  E(vib)   ...       0.02 
freq.    1084.02  E(vib)   ...       0.02 
freq.    1090.80  E(vib)   ...       0.02 
freq.    1096.92  E(vib)   ...       0.02 
freq.    1104.75  E(vib)   ...       0.02 
freq.    1108.51  E(vib)   ...       0.02 
freq.    1108.99  E(vib)   ...       0.02 
freq.    1117.66  E(vib)   ...       0.01 
freq.    1123.57  E(vib)   ...       0.01 
freq.    1128.03  E(vib)   ...       0.01 
freq.    1138.93  E(vib)   ...       0.01 
freq.    1141.81  E(vib)   ...       0.01 
freq.    1141.99  E(vib)   ...       0.01 
freq.    1148.77  E(vib)   ...       0.01 
freq.    1154.50  E(vib)   ...       0.01 
freq.    1159.54  E(vib)   ...       0.01 
freq.    1164.76  E(vib)   ...       0.01 
freq.    1174.14  E(vib)   ...       0.01 
freq.    1179.51  E(vib)   ...       0.01 
freq.    1190.01  E(vib)   ...       0.01 
freq.    1194.66  E(vib)   ...       0.01 
freq.    1196.61  E(vib)   ...       0.01 
freq.    1199.53  E(vib)   ...       0.01 
freq.    1208.37  E(vib)   ...       0.01 
freq.    1213.88  E(vib)   ...       0.01 
freq.    1216.21  E(vib)   ...       0.01 
freq.    1219.24  E(vib)   ...       0.01 
freq.    1223.53  E(vib)   ...       0.01 
freq.    1225.83  E(vib)   ...       0.01 
freq.    1238.07  E(vib)   ...       0.01 
freq.    1242.25  E(vib)   ...       0.01 
freq.    1245.65  E(vib)   ...       0.01 
freq.    1249.14  E(vib)   ...       0.01 
freq.    1250.76  E(vib)   ...       0.01 
freq.    1251.90  E(vib)   ...       0.01 
freq.    1252.97  E(vib)   ...       0.01 
freq.    1264.61  E(vib)   ...       0.01 
freq.    1270.50  E(vib)   ...       0.01 
freq.    1275.02  E(vib)   ...       0.01 
freq.    1278.89  E(vib)   ...       0.01 
freq.    1280.42  E(vib)   ...       0.01 
freq.    1284.92  E(vib)   ...       0.01 
freq.    1289.05  E(vib)   ...       0.01 
freq.    1291.13  E(vib)   ...       0.01 
freq.    1294.51  E(vib)   ...       0.01 
freq.    1296.47  E(vib)   ...       0.01 
freq.    1296.75  E(vib)   ...       0.01 
freq.    1299.33  E(vib)   ...       0.01 
freq.    1299.84  E(vib)   ...       0.01 
freq.    1301.43  E(vib)   ...       0.01 
freq.    1305.55  E(vib)   ...       0.01 
freq.    1309.70  E(vib)   ...       0.01 
freq.    1310.13  E(vib)   ...       0.01 
freq.    1312.90  E(vib)   ...       0.01 
freq.    1320.10  E(vib)   ...       0.01 
freq.    1321.24  E(vib)   ...       0.01 
freq.    1322.67  E(vib)   ...       0.01 
freq.    1326.33  E(vib)   ...       0.01 
freq.    1329.63  E(vib)   ...       0.01 
freq.    1336.81  E(vib)   ...       0.01 
freq.    1340.80  E(vib)   ...       0.01 
freq.    1341.28  E(vib)   ...       0.01 
freq.    1345.04  E(vib)   ...       0.01 
freq.    1349.00  E(vib)   ...       0.01 
freq.    1349.91  E(vib)   ...       0.01 
freq.    1351.72  E(vib)   ...       0.01 
freq.    1351.84  E(vib)   ...       0.01 
freq.    1354.28  E(vib)   ...       0.01 
freq.    1354.78  E(vib)   ...       0.01 
freq.    1363.21  E(vib)   ...       0.01 
freq.    1367.36  E(vib)   ...       0.01 
freq.    1373.36  E(vib)   ...       0.01 
freq.    1378.53  E(vib)   ...       0.01 
freq.    1381.23  E(vib)   ...       0.01 
freq.    1409.26  E(vib)   ...       0.00 
freq.    1410.70  E(vib)   ...       0.00 
freq.    1423.34  E(vib)   ...       0.00 
freq.    1427.20  E(vib)   ...       0.00 
freq.    1429.92  E(vib)   ...       0.00 
freq.    1432.99  E(vib)   ...       0.00 
freq.    1433.78  E(vib)   ...       0.00 
freq.    1434.07  E(vib)   ...       0.00 
freq.    1434.88  E(vib)   ...       0.00 
freq.    1436.30  E(vib)   ...       0.00 
freq.    1438.02  E(vib)   ...       0.00 
freq.    1439.16  E(vib)   ...       0.00 
freq.    1441.87  E(vib)   ...       0.00 
freq.    1442.39  E(vib)   ...       0.00 
freq.    1443.31  E(vib)   ...       0.00 
freq.    1446.47  E(vib)   ...       0.00 
freq.    1446.81  E(vib)   ...       0.00 
freq.    1450.86  E(vib)   ...       0.00 
freq.    1451.86  E(vib)   ...       0.00 
freq.    1452.18  E(vib)   ...       0.00 
freq.    1452.95  E(vib)   ...       0.00 
freq.    1453.54  E(vib)   ...       0.00 
freq.    1454.92  E(vib)   ...       0.00 
freq.    1456.74  E(vib)   ...       0.00 
freq.    1458.71  E(vib)   ...       0.00 
freq.    1460.12  E(vib)   ...       0.00 
freq.    1462.01  E(vib)   ...       0.00 
freq.    1465.04  E(vib)   ...       0.00 
freq.    1466.38  E(vib)   ...       0.00 
freq.    1472.12  E(vib)   ...       0.00 
freq.    1475.58  E(vib)   ...       0.00 
freq.    1486.77  E(vib)   ...       0.00 
freq.    1510.36  E(vib)   ...       0.00 
freq.    1536.64  E(vib)   ...       0.00 
freq.    1624.34  E(vib)   ...       0.00 
freq.    1641.30  E(vib)   ...       0.00 
freq.    1660.40  E(vib)   ...       0.00 
freq.    1668.87  E(vib)   ...       0.00 
freq.    1672.62  E(vib)   ...       0.00 
freq.    1684.61  E(vib)   ...       0.00 
freq.    1698.83  E(vib)   ...       0.00 
freq.    2907.42  E(vib)   ...       0.00 
freq.    2922.84  E(vib)   ...       0.00 
freq.    2925.09  E(vib)   ...       0.00 
freq.    2931.10  E(vib)   ...       0.00 
freq.    2934.49  E(vib)   ...       0.00 
freq.    2935.54  E(vib)   ...       0.00 
freq.    2937.38  E(vib)   ...       0.00 
freq.    2942.03  E(vib)   ...       0.00 
freq.    2943.77  E(vib)   ...       0.00 
freq.    2945.64  E(vib)   ...       0.00 
freq.    2949.68  E(vib)   ...       0.00 
freq.    2950.81  E(vib)   ...       0.00 
freq.    2953.15  E(vib)   ...       0.00 
freq.    2954.74  E(vib)   ...       0.00 
freq.    2955.29  E(vib)   ...       0.00 
freq.    2957.06  E(vib)   ...       0.00 
freq.    2957.33  E(vib)   ...       0.00 
freq.    2960.27  E(vib)   ...       0.00 
freq.    2962.44  E(vib)   ...       0.00 
freq.    2963.06  E(vib)   ...       0.00 
freq.    2964.69  E(vib)   ...       0.00 
freq.    2967.84  E(vib)   ...       0.00 
freq.    2973.02  E(vib)   ...       0.00 
freq.    2975.65  E(vib)   ...       0.00 
freq.    2976.93  E(vib)   ...       0.00 
freq.    2983.27  E(vib)   ...       0.00 
freq.    2983.83  E(vib)   ...       0.00 
freq.    2985.04  E(vib)   ...       0.00 
freq.    2986.23  E(vib)   ...       0.00 
freq.    2987.38  E(vib)   ...       0.00 
freq.    2987.52  E(vib)   ...       0.00 
freq.    2989.71  E(vib)   ...       0.00 
freq.    2992.29  E(vib)   ...       0.00 
freq.    2999.14  E(vib)   ...       0.00 
freq.    2999.15  E(vib)   ...       0.00 
freq.    3001.04  E(vib)   ...       0.00 
freq.    3013.38  E(vib)   ...       0.00 
freq.    3015.32  E(vib)   ...       0.00 
freq.    3015.92  E(vib)   ...       0.00 
freq.    3017.41  E(vib)   ...       0.00 
freq.    3017.60  E(vib)   ...       0.00 
freq.    3020.60  E(vib)   ...       0.00 
freq.    3026.47  E(vib)   ...       0.00 
freq.    3029.27  E(vib)   ...       0.00 
freq.    3029.72  E(vib)   ...       0.00 
freq.    3032.57  E(vib)   ...       0.00 
freq.    3035.00  E(vib)   ...       0.00 
freq.    3037.59  E(vib)   ...       0.00 
freq.    3038.03  E(vib)   ...       0.00 
freq.    3040.81  E(vib)   ...       0.00 
freq.    3043.10  E(vib)   ...       0.00 
freq.    3043.26  E(vib)   ...       0.00 
freq.    3055.92  E(vib)   ...       0.00 
freq.    3059.68  E(vib)   ...       0.00 
freq.    3063.66  E(vib)   ...       0.00 
freq.    3065.39  E(vib)   ...       0.00 
freq.    3067.95  E(vib)   ...       0.00 
freq.    3071.41  E(vib)   ...       0.00 
freq.    3254.39  E(vib)   ...       0.00 
freq.    3423.83  E(vib)   ...       0.00 
freq.    3446.42  E(vib)   ...       0.00 
freq.    3492.52  E(vib)   ...       0.00 
freq.    3502.85  E(vib)   ...       0.00 
freq.    3541.28  E(vib)   ...       0.00 

------------
INNER ENERGY
------------

The inner energy is: U= E(el) + E(ZPE) + E(vib) + E(rot) + E(trans)
    E(el)   - is the total energy from the electronic structure calculation
              = E(kin-el) + E(nuc-el) + E(el-el) + E(nuc-nuc)
    E(ZPE)  - the the zero temperature vibrational energy from the frequency calculation
    E(vib)  - the the finite temperature correction to E(ZPE) due to population
              of excited vibrational states
    E(rot)  - is the rotational thermal energy
    E(trans)- is the translational thermal energy

Summary of contributions to the inner energy U:
Electronic energy                ...  -2380.08359899 Eh
Zero point energy                ...      0.97686917 Eh     612.99 kcal/mol
Thermal vibrational correction   ...      0.05602756 Eh      35.16 kcal/mol
Thermal rotational correction    ...      0.00141627 Eh       0.89 kcal/mol
Thermal translational correction ...      0.00141627 Eh       0.89 kcal/mol
-----------------------------------------------------------------------
Total thermal energy                  -2379.04786972 Eh


Summary of corrections to the electronic energy:
(perhaps to be used in another calculation)
Total thermal correction                  0.05886010 Eh      36.94 kcal/mol
Non-thermal (ZPE) correction              0.97686917 Eh     612.99 kcal/mol
-----------------------------------------------------------------------
Total correction                          1.03572927 Eh     649.93 kcal/mol


--------
ENTHALPY
--------

The enthalpy is H = U + kB*T
                kB is Boltzmann's constant
Total free energy                 ...  -2379.04786972 Eh 
Thermal Enthalpy correction       ...      0.00094421 Eh       0.59 kcal/mol
-----------------------------------------------------------------------
Total Enthalpy                    ...  -2379.04692551 Eh


Note: Only C1 symmetry has been detected, increase convergence thresholds 
      if your molecule has a higher symmetry. Symmetry factor of 1.0 is   
      used for the rotational entropy correction. 
 

Note: Rotational entropy computed according to Herzberg 
Infrared and Raman Spectra, Chapter V,1, Van Nostrand Reinhold, 1945 
Point Group:  C1, Symmetry Number:   1  
Rotational constants in cm-1:     0.002092     0.001572     0.001208 

Vibrational entropy computed according to the QRRHO of S. Grimme
Chem.Eur.J. 2012 18 9955


-------
ENTROPY
-------

The entropy contributions are T*S = T*(S(el)+S(vib)+S(rot)+S(trans))
     S(el)   - electronic entropy
     S(vib)  - vibrational entropy
     S(rot)  - rotational entropy
     S(trans)- translational entropy
The entropies will be listed as mutliplied by the temperature to get
units of energy

Electronic entropy                ...      0.00000000 Eh      0.00 kcal/mol
Vibrational entropy               ...      0.10303333 Eh     64.65 kcal/mol
Rotational entropy                ...      0.01864271 Eh     11.70 kcal/mol
Translational entropy             ...      0.02166895 Eh     13.60 kcal/mol
-----------------------------------------------------------------------
Final entropy term                ...      0.14334499 Eh     89.95 kcal/mol

In case the symmetry of your molecule has not been determined correctly
or in case you have a reason to use a different symmetry number we print 
out the resulting rotational entropy values for sn=1,12 :
 --------------------------------------------------------
|  sn= 1 | S(rot)=       0.01864271 Eh     11.70 kcal/mol|
|  sn= 2 | S(rot)=       0.01798825 Eh     11.29 kcal/mol|
|  sn= 3 | S(rot)=       0.01760542 Eh     11.05 kcal/mol|
|  sn= 4 | S(rot)=       0.01733380 Eh     10.88 kcal/mol|
|  sn= 5 | S(rot)=       0.01712311 Eh     10.74 kcal/mol|
|  sn= 6 | S(rot)=       0.01695097 Eh     10.64 kcal/mol|
|  sn= 7 | S(rot)=       0.01680542 Eh     10.55 kcal/mol|
|  sn= 8 | S(rot)=       0.01667934 Eh     10.47 kcal/mol|
|  sn= 9 | S(rot)=       0.01656813 Eh     10.40 kcal/mol|
|  sn=10 | S(rot)=       0.01646865 Eh     10.33 kcal/mol|
|  sn=11 | S(rot)=       0.01637866 Eh     10.28 kcal/mol|
|  sn=12 | S(rot)=       0.01629651 Eh     10.23 kcal/mol|
 --------------------------------------------------------


-------------------
GIBBS FREE ENERGY
-------------------

The Gibbs free energy is G = H - T*S

Total enthalpy                    ...  -2379.04692551 Eh 
Total entropy correction          ...     -0.14334499 Eh    -89.95 kcal/mol
-----------------------------------------------------------------------
Final Gibbs free energy         ...  -2379.19027050 Eh

For completeness - the Gibbs free energy minus the electronic energy
G-E(el)                           ...      0.89332849 Eh    560.57 kcal/mol

--------------------------------------------------------------------------
WARNING: No preset parameters were found for the device that Open MPI
detected:

  Local host:            eu-g1-019-3
  Device name:           mlx5_0
  Device vendor ID:      0x02c9
  Device vendor part ID: 4123

Default device parameters will be used, which may result in lower
performance.  You can edit any of the files specified by the
btl_openib_device_param_files MCA parameter to set values for your
device.

NOTE: You can turn off this warning by setting the MCA parameter
      btl_openib_warn_no_device_params_found to 0.
--------------------------------------------------------------------------
--------------------------------------------------------------------------
WARNING: There was an error initializing an OpenFabrics device.

  Local host:   eu-g1-019-3
  Local device: mlx5_0
--------------------------------------------------------------------------

Timings for individual modules:

Sum of individual times         ...    41086.255 sec (= 684.771 min)
GTO integral calculation        ...       14.339 sec (=   0.239 min)   0.0 %
SCF iterations                  ...      410.597 sec (=   6.843 min)   1.0 %
SCF Gradient evaluation         ...       75.840 sec (=   1.264 min)   0.2 %
Geometry relaxation             ...        4.104 sec (=   0.068 min)   0.0 %
Analytical frequency calculation...    40581.375 sec (= 676.356 min)  98.8 %
                             ****ORCA TERMINATED NORMALLY****
TOTAL RUN TIME: 0 days 11 hours 25 minutes 4 seconds 443 msec
