
                                 *****************
                                 * O   R   C   A *
                                 *****************

           --- An Ab Initio, DFT and Semiempirical electronic structure package ---

                  #######################################################
                  #                        -***-                        #
                  #          Department of theory and spectroscopy      #
                  #               Directorship: Frank Neese             #
                  #        Max Planck Institute fuer Kohlenforschung    #
                  #                Kaiser Wilhelm Platz 1               #
                  #                 D-45470 Muelheim/Ruhr               #
                  #                      Germany                        #
                  #                                                     #
                  #                  All rights reserved                #
                  #                        -***-                        #
                  #######################################################


                         Program Version 4.2.0 -  RELEASE  -


 With contributions from (in alphabetic order):
   Daniel Aravena         : Magnetic Suceptibility
   Michael Atanasov       : Ab Initio Ligand Field Theory (pilot matlab implementation)
   Alexander A. Auer      : GIAO ZORA, VPT2
   Ute Becker             : Parallelization
   Giovanni Bistoni       : ED, misc. LED, open-shell LED, HFLED
   Martin Brehm           : Molecular dynamics
   Dmytro Bykov           : SCF Hessian
   Vijay G. Chilkuri      : MRCI spin determinant printing, contributions to CSF-ICE
   Dipayan Datta          : RHF DLPNO-CCSD density
   Achintya Kumar Dutta   : EOM-CC, STEOM-CC
   Dmitry Ganyushin       : Spin-Orbit,Spin-Spin,Magnetic field MRCI
   Miquel Garcia          : C-PCM Hessian, Gaussian charge scheme
   Yang Guo               : DLPNO-NEVPT2, CIM, IAO-localization
   Andreas Hansen         : Spin unrestricted coupled pair/coupled cluster methods
   Benjamin Helmich-Paris : CASSCF linear response (MC-RPA)
   Lee Huntington         : MR-EOM, pCC
   Robert Izsak           : Overlap fitted RIJCOSX, COSX-SCS-MP3, EOM
   Christian Kollmar      : KDIIS, OOCD, Brueckner-CCSD(T), CCSD density
   Simone Kossmann        : Meta GGA functionals, TD-DFT gradient, OOMP2, MP2 Hessian
   Martin Krupicka        : AUTO-CI
   Lucas Lang             : DCDCAS
   Dagmar Lenk            : GEPOL surface, SMD
   Dimitrios Liakos       : Extrapolation schemes; Compound Job, initial MDCI parallelization
   Dimitrios Manganas     : Further ROCIS development; embedding schemes
   Dimitrios Pantazis     : SARC Basis sets
   Taras Petrenko         : DFT Hessian,TD-DFT gradient, ASA, ECA, R-Raman, ABS, FL, XAS/XES, NRVS
   Peter Pinski           : DLPNO-MP2, DLPNO-MP2 Gradient
   Christoph Reimann      : Effective Core Potentials
   Marius Retegan         : Local ZFS, SOC
   Christoph Riplinger    : Optimizer, TS searches, QM/MM, DLPNO-CCSD(T), (RO)-DLPNO pert. Triples
   Tobias Risthaus        : Range-separated hybrids, TD-DFT gradient, RPA, STAB
   Michael Roemelt        : Original ROCIS implementation
   Masaaki Saitow         : Open-shell DLPNO-CCSD energy and density
   Barbara Sandhoefer     : DKH picture change effects
   Avijit Sen             : IP-ROCIS
   Kantharuban Sivalingam : CASSCF convergence, NEVPT2, FIC-MRCI
   Bernardo de Souza      : ESD, SOC TD-DFT
   Georgi Stoychev        : AutoAux, RI-MP2 NMR
   Willem Van den Heuvel  : Paramagnetic NMR
   Boris Wezisla          : Elementary symmetry handling
   Frank Wennmohs         : Technical directorship


 We gratefully acknowledge several colleagues who have allowed us to
 interface, adapt or use parts of their codes:
   Stefan Grimme, W. Hujo, H. Kruse,             : VdW corrections, initial TS optimization,
                  C. Bannwarth                     DFT functionals, gCP, sTDA/sTD-DF
   Ed Valeev, F. Pavosevic, A. Kumar             : LibInt (2-el integral package), F12 methods
   Garnet Chan, S. Sharma, J. Yang, R. Olivares  : DMRG
   Ulf Ekstrom                                   : XCFun DFT Library
   Mihaly Kallay                                 : mrcc  (arbitrary order and MRCC methods)
   Andreas Klamt, Michael Diedenhofen            : otool_cosmo (COSMO solvation model)
   Jiri Pittner, Ondrej Demel                    : Mk-CCSD
   Frank Weinhold                                : gennbo (NPA and NBO analysis)
   Christopher J. Cramer and Donald G. Truhlar   : smd solvation model
   Lars Goerigk                                  : TD-DFT with DH, B97 family of functionals
   V. Asgeirsson, H. Jonsson                     : NEB implementation
   FAccTs GmbH                                   : IRC, NEB, NEB-TS, Multilevel, MM, QM/MM, CI optimization
   S Lehtola, MJT Oliveira, MAL Marques          : LibXC Library


 Your calculation uses the libint2 library for the computation of 2-el integrals
 For citations please refer to: http://libint.valeyev.net

 Your ORCA version has been built with support for libXC version: 4.2.3
 For citations please refer to: https://tddft.org/programs/libxc/

 This ORCA versions uses:
   CBLAS   interface :  Fast vector & matrix operations
   LAPACKE interface :  Fast linear algebra routines
   SCALAPACK package :  Parallel linear algebra routines




***************************************
The coordinates will be read from file: 29.xyz
***************************************


Your calculation utilizes the atom-pairwise dispersion correction
with the Becke-Johnson damping scheme (D3BJ)
Cite in your paper:
S.Grimme, S.Ehrlich, L.Goerigk, J Comput Chem, (2011), 32, 1456–1465 
S.Grimme, J.Antony, S.Ehrlich and H.Krieg, J.Chem.Phys., 132, (2010), 154104 
   

----- Orbital basis set information -----
Your calculation utilizes the basis: def2-TZVP
   F. Weigend and R. Ahlrichs, Phys. Chem. Chem. Phys. 7, 3297 (2005).

----- AuxJ basis set information -----
Your calculation utilizes the auxiliary basis: def2/J
   F. Weigend, Phys. Chem. Chem. Phys. 8, 1057 (2006).

================================================================================
                                        WARNINGS
                       Please study these warnings very carefully!
================================================================================


WARNING: Geometry Optimization
  ===> : Switching off AutoStart
         For restart on a previous wavefunction, please use MOREAD

INFO   : the flag for use of LIBINT has been found!

================================================================================
                                       INPUT FILE
================================================================================
NAME = 29.inp
|  1> !RI BP86 def2-tzvp def2/J D3BJ VeryTightSCF VeryTightOpt Grid5 FinalGrid6 freq
|  2> %maxcore 4000
|  3> %pal nprocs 24
|  4> end
|  5> * xyzfile 0 1 29.xyz 
|  6> 
|  7>                          ****END OF INPUT****
================================================================================

                       *****************************
                       * Geometry Optimization Run *
                       *****************************

Geometry optimization settings:
Update method            Update   .... BFGS
Choice of coordinates    CoordSys .... Z-matrix Internals
Initial Hessian          InHess   .... Almoef's Model

Convergence Tolerances:
Energy Change            TolE     ....  2.0000e-07 Eh
Max. Gradient            TolMAXG  ....  3.0000e-05 Eh/bohr
RMS Gradient             TolRMSG  ....  8.0000e-06 Eh/bohr
Max. Displacement        TolMAXD  ....  2.0000e-04 bohr
RMS Displacement         TolRMSD  ....  1.0000e-04 bohr
Strict Convergence                ....  False
------------------------------------------------------------------------------
                        ORCA OPTIMIZATION COORDINATE SETUP
------------------------------------------------------------------------------

The optimization will be done in new redundant internal coordinates
Making redundant internal coordinates   ...  (new redundants) done
Evaluating the initial hessian          ...  (Almloef) done
Evaluating the coordinates              ...  done
Calculating the B-matrix                .... done
Calculating the G-matrix                .... done
Diagonalizing the G-matrix              .... done
Small eigenvalue found = 2.298e-04
Small eigenvalue found = 1.772e-03
Small eigenvalue found = 2.419e-03
Small eigenvalue found = 3.306e-03
Small eigenvalue found = 4.286e-03
Small eigenvalue found = 6.313e-03
Small eigenvalue found = 7.492e-03
Small eigenvalue found = 7.945e-03
Small eigenvalue found = 9.876e-03
Small eigenvalue found = 1.153e-02
Small eigenvalue found = 1.175e-02
Small eigenvalue found = 1.390e-02
Small eigenvalue found = 1.558e-02
Small eigenvalue found = 1.795e-02
Small eigenvalue found = 2.032e-02
Small eigenvalue found = 2.542e-02
Small eigenvalue found = 2.722e-02
Small eigenvalue found = 2.848e-02
The first mode is                       ....  327
The number of degrees of freedom        ....  339

    -----------------------------------------------------------------
                    Redundant Internal Coordinates


    -----------------------------------------------------------------
         Definition                    Initial Value    Approx d2E/dq
    -----------------------------------------------------------------
      1. B(C   1,O   0)                  1.2304         1.005851   
      2. B(C   2,C   1)                  1.5522         0.344281   
      3. B(C   3,C   2)                  1.5306         0.372726   
      4. B(C   4,C   3)                  1.5360         0.365367   
      5. B(C   5,C   4)                  1.5322         0.370510   
      6. B(N   6,C   5)                  1.4780         0.405077   
      7. B(N   6,C   2)                  1.4833         0.397169   
      8. B(C   7,N   6)                  1.3467         0.656197   
      9. B(O   8,C   7)                  1.2498         0.936479   
     10. B(N   9,C   1)                  1.3577         0.629987   
     11. B(C  10,N   9)                  1.4638         0.426735   
     12. B(C  11,C  10)                  1.5515         0.345142   
     13. B(N  12,C  11)                  1.3701         0.602014   
     14. B(C  13,N  12)                  1.4509         0.447474   
     15. B(C  14,C  13)                  1.5414         0.358286   
     16. B(N  15,C  14)                  1.3659         0.611324   
     17. B(C  16,N  15)                  1.4531         0.443866   
     18. B(C  17,C  16)                  1.5275         0.376989   
     19. B(C  18,C  17)                  1.5579         0.337130   
     20. B(C  19,C  18)                  1.5543         0.341665   
     21. B(N  20,C  19)                  1.3630         0.618060   
     22. B(C  21,N  20)                  1.4592         0.434021   
     23. B(C  22,C  21)                  1.5406         0.359265   
     24. B(N  23,C  22)                  1.3603         0.624088   
     25. B(C  24,C   7)                  1.5272         0.377505   
     26. B(C  24,N  23)                  1.4493         0.450023   
     27. B(C  25,C  24)                  1.5384         0.362242   
     28. B(O  26,C  22)                  1.2309         1.003924   
     29. B(C  27,C  21)                  1.5349         0.366960   
     30. B(C  28,C  27)                  1.5345         0.367389   
     31. B(C  29,C  28)                  1.5319         0.370953   
     32. B(C  30,C  28)                  1.5326         0.369974   
     33. B(O  31,C  19)                  1.2277         1.015634   
     34. B(C  32,C  18)                  1.5371         0.363963   
     35. B(C  33,C  32)                  1.5130         0.397667   
     36. B(C  34,C  33)                  1.5261         0.378975   
     37. B(C  35,C  34)                  1.5345         0.367404   
     38. B(C  36,C  35)                  1.5322         0.370535   
     39. B(C  37,C  36)                  1.5292         0.374707   
     40. B(C  38,C  37)                  1.5302         0.373309   
     41. B(C  39,C  38)                  1.5297         0.373933   
     42. B(C  40,C  39)                  1.5310         0.372204   
     43. B(C  41,C  40)                  1.5297         0.373930   
     44. B(O  42,C  32)                  1.2244         1.028122   
     45. B(O  43,C  17)                  1.4345         0.475254   
     46. B(O  44,C  14)                  1.2322         0.999265   
     47. B(C  45,C  13)                  1.5441         0.354728   
     48. B(C  46,C  45)                  1.5269         0.377802   
     49. B(O  47,C  11)                  1.2256         1.023822   
     50. B(C  48,C  10)                  1.5456         0.352829   
     51. B(C  49,C  48)                  1.5310         0.372158   
     52. B(C  50,C  48)                  1.5341         0.367966   
     53. B(H  51,C   2)                  1.0994         0.347863   
     54. B(H  52,C   3)                  1.0999         0.347183   
     55. B(H  53,C   3)                  1.0955         0.352955   
     56. B(H  54,C   4)                  1.0974         0.350443   
     57. B(H  55,C   4)                  1.0969         0.351104   
     58. B(H  56,C   5)                  1.0980         0.349675   
     59. B(H  57,C   5)                  1.1018         0.344826   
     60. B(H  58,N   9)                  1.0220         0.414036   
     61. B(H  59,C  10)                  1.1029         0.343394   
     62. B(H  59,O  42)                  2.5871         0.001318   
     63. B(H  60,N  12)                  1.0174         0.421043   
     64. B(H  61,C  13)                  1.1015         0.345243   
     65. B(H  62,N  15)                  1.0247         0.409951   
     66. B(H  63,C  16)                  1.0987         0.348805   
     67. B(H  64,C  16)                  1.1018         0.344810   
     68. B(H  65,C  17)                  1.1063         0.339195   
     69. B(H  66,C  18)                  1.1004         0.346566   
     70. B(H  67,N  20)                  1.0272         0.406154   
     71. B(H  68,C  21)                  1.1012         0.345560   
     72. B(H  69,H  60)                  3.1015         0.000043   
     73. B(H  69,N  23)                  1.0182         0.419806   
     74. B(H  70,C  24)                  1.0991         0.348316   
     75. B(H  71,C  25)                  1.0968         0.351160   
     76. B(H  72,C  25)                  1.0993         0.348015   
     77. B(H  73,C  25)                  1.0980         0.349692   
     78. B(H  74,C  27)                  1.1000         0.347147   
     79. B(H  75,C  27)                  1.1027         0.343692   
     80. B(H  76,C  28)                  1.1055         0.340216   
     81. B(H  77,C  29)                  1.0989         0.348463   
     82. B(H  78,C  29)                  1.0997         0.347492   
     83. B(H  79,C  29)                  1.1015         0.345181   
     84. B(H  80,C  30)                  1.0995         0.347722   
     85. B(H  81,C  30)                  1.1015         0.345217   
     86. B(H  82,C  30)                  1.0998         0.347354   
     87. B(H  83,C  33)                  1.1057         0.339880   
     88. B(H  84,C  33)                  1.1043         0.341611   
     89. B(H  85,C  34)                  1.1006         0.346345   
     90. B(H  86,O   8)                  2.3534         0.003111   
     91. B(H  86,C  34)                  1.0983         0.349337   
     92. B(H  87,C  35)                  1.1045         0.341370   
     93. B(H  88,C  35)                  1.1024         0.344022   
     94. B(H  89,C  36)                  1.1029         0.343465   
     95. B(H  90,C  36)                  1.1043         0.341709   
     96. B(H  91,C  37)                  1.1042         0.341809   
     97. B(H  92,C  37)                  1.1044         0.341605   
     98. B(H  93,H  73)                  2.4605         0.000449   
     99. B(H  93,C  38)                  1.1048         0.341078   
    100. B(H  94,C  38)                  1.1044         0.341495   
    101. B(H  95,C  39)                  1.1044         0.341606   
    102. B(H  96,C  39)                  1.1045         0.341389   
    103. B(H  97,C  40)                  1.1036         0.342560   
    104. B(H  98,C  40)                  1.1033         0.342877   
    105. B(H  99,C  41)                  1.0994         0.347935   
    106. B(H 100,C  41)                  1.1007         0.346180   
    107. B(H 101,C  41)                  1.1006         0.346299   
    108. B(H 102,O  43)                  0.9728         0.495982   
    109. B(H 103,C  45)                  1.1029         0.343461   
    110. B(H 104,H  56)                  2.4741         0.000427   
    111. B(H 104,C  45)                  1.1020         0.344544   
    112. B(H 105,C  46)                  1.0991         0.348318   
    113. B(H 106,H  75)                  2.7722         0.000143   
    114. B(H 106,C  46)                  1.0955         0.352907   
    115. B(H 107,C  46)                  1.0998         0.347337   
    116. B(H 108,C  48)                  1.0995         0.347689   
    117. B(H 109,C  49)                  1.0976         0.350240   
    118. B(H 110,C  49)                  1.0993         0.347961   
    119. B(H 111,C  49)                  1.1020         0.344533   
    120. B(H 112,C  50)                  1.0961         0.352166   
    121. B(H 113,C  50)                  1.1027         0.343636   
    122. B(H 114,C  50)                  1.0995         0.347791   
    123. A(O   0,C   1,N   9)          124.1289         0.469066   
    124. A(C   2,C   1,N   9)          113.7862         0.389649   
    125. A(O   0,C   1,C   2)          122.0839         0.423235   
    126. A(C   1,C   2,H  51)          109.3837         0.318209   
    127. A(N   6,C   2,H  51)          108.3240         0.323795   
    128. A(C   1,C   2,N   6)          110.5396         0.359840   
    129. A(C   1,C   2,C   3)          111.9045         0.358189   
    130. A(C   3,C   2,H  51)          113.4214         0.322364   
    131. A(C   3,C   2,N   6)          103.0596         0.364750   
    132. A(C   4,C   3,H  53)          112.3308         0.322079   
    133. A(C   4,C   3,H  52)          110.9993         0.321211   
    134. A(C   2,C   3,C   4)          103.5436         0.361835   
    135. A(C   2,C   3,H  53)          111.2727         0.323133   
    136. A(C   2,C   3,H  52)          109.5768         0.322261   
    137. A(H  52,C   3,H  53)          109.0214         0.288272   
    138. A(H  54,C   4,H  55)          108.7530         0.288456   
    139. A(C   3,C   4,H  55)          113.2435         0.321802   
    140. A(C   3,C   4,C   5)          103.7727         0.361467   
    141. A(C   3,C   4,H  54)          109.0369         0.321702   
    142. A(C   5,C   4,H  55)          111.8354         0.322539   
    143. A(C   5,C   4,H  54)          110.0951         0.322440   
    144. A(H  56,C   5,H  57)          108.3523         0.287545   
    145. A(C   4,C   5,N   6)          103.4732         0.365610   
    146. A(C   4,C   5,H  56)          112.7268         0.322324   
    147. A(N   6,C   5,H  57)          109.9535         0.324378   
    148. A(N   6,C   5,H  56)          110.6272         0.325123   
    149. A(C   4,C   5,H  57)          111.6537         0.321588   
    150. A(C   5,N   6,C   7)          126.4017         0.401222   
    151. A(C   2,N   6,C   7)          121.2840         0.399832   
    152. A(C   2,N   6,C   5)          112.1528         0.367682   
    153. A(O   8,C   7,C  24)          119.2935         0.424802   
    154. A(N   6,C   7,O   8)          122.3669         0.466434   
    155. A(N   6,C   7,C  24)          118.3096         0.398829   
    156. A(C   1,N   9,C  10)          122.4026         0.402023   
    157. A(C  10,N   9,H  58)          118.7933         0.334344   
    158. A(C   1,N   9,H  58)          115.9786         0.356957   
    159. A(C  48,C  10,H  59)          108.2808         0.318811   
    160. A(C  11,C  10,H  59)          105.8475         0.317668   
    161. A(N   9,C  10,C  11)          110.3712         0.364433   
    162. A(N   9,C  10,C  48)          114.7290         0.365809   
    163. A(N   9,C  10,H  59)          104.7617         0.326945   
    164. A(C  11,C  10,C  48)          112.1697         0.355017   
    165. A(N  12,C  11,O  47)          122.7525         0.466690   
    166. A(C  10,C  11,O  47)          123.7687         0.424768   
    167. A(C  10,C  11,N  12)          113.4122         0.386743   
    168. A(C  13,N  12,H  60)          118.5356         0.337937   
    169. A(C  11,N  12,C  13)          122.8180         0.402168   
    170. A(C  11,N  12,H  60)          118.1616         0.355226   
    171. A(C  14,C  13,C  45)          111.8315         0.357603   
    172. A(N  12,C  13,H  61)          106.5415         0.329807   
    173. A(C  14,C  13,H  61)          106.1396         0.319891   
    174. A(N  12,C  13,C  14)          112.7007         0.369772   
    175. A(C  45,C  13,H  61)          109.9344         0.319370   
    176. A(N  12,C  13,C  45)          109.4894         0.369139   
    177. A(C  13,C  14,N  15)          115.4186         0.390317   
    178. A(N  15,C  14,O  44)          122.4224         0.465927   
    179. A(C  13,C  14,O  44)          122.0917         0.425764   
    180. A(C  14,N  15,H  62)          120.3965         0.354543   
    181. A(C  16,N  15,H  62)          118.0234         0.335984   
    182. A(C  14,N  15,C  16)          120.8508         0.402682   
    183. A(H  63,C  16,H  64)          106.5921         0.287431   
    184. A(C  17,C  16,H  64)          106.8961         0.322500   
    185. A(N  15,C  16,H  63)          108.1238         0.329925   
    186. A(C  17,C  16,H  63)          109.8811         0.323109   
    187. A(N  15,C  16,C  17)          114.2842         0.372505   
    188. A(N  15,C  16,H  64)          110.8009         0.329298   
    189. A(O  43,C  17,H  65)          109.5647         0.332138   
    190. A(C  18,C  17,H  65)          105.4056         0.315823   
    191. A(C  16,C  17,H  65)          104.7638         0.321633   
    192. A(C  16,C  17,C  18)          119.2483         0.357603   
    193. A(C  18,C  17,O  43)          110.2939         0.369732   
    194. A(C  16,C  17,O  43)          107.1786         0.376923   
    195. A(C  19,C  18,H  66)          102.3670         0.317620   
    196. A(C  17,C  18,H  66)          106.2293         0.316930   
    197. A(C  17,C  18,C  32)          117.0066         0.355474   
    198. A(C  17,C  18,C  19)          115.1187         0.351688   
    199. A(C  19,C  18,C  32)          108.6632         0.356281   
    200. A(C  32,C  18,H  66)          105.9627         0.320915   
    201. A(C  18,C  19,N  20)          113.7905         0.387835   
    202. A(N  20,C  19,O  31)          124.5819         0.468255   
    203. A(C  18,C  19,O  31)          121.5531         0.423391   
    204. A(C  19,N  20,H  67)          116.2896         0.354642   
    205. A(C  19,N  20,C  21)          123.3766         0.401869   
    206. A(C  21,N  20,H  67)          117.1203         0.334217   
    207. A(C  27,C  21,H  68)          110.2570         0.321193   
    208. A(C  22,C  21,H  68)          107.3169         0.320082   
    209. A(N  20,C  21,H  68)          106.0815         0.328199   
    210. A(N  20,C  21,C  22)          111.2242         0.368011   
    211. A(C  22,C  21,C  27)          110.0943         0.359839   
    212. A(N  20,C  21,C  27)          111.7028         0.369353   
    213. A(C  21,C  22,N  23)          115.2799         0.391917   
    214. A(C  21,C  22,O  26)          121.9923         0.426327   
    215. A(N  23,C  22,O  26)          122.7252         0.468093   
    216. A(C  22,N  23,C  24)          121.8721         0.405137   
    217. A(C  24,N  23,H  69)          116.8525         0.338091   
    218. A(C  22,N  23,H  69)          121.0292         0.357226   
    219. A(C  25,C  24,H  70)          109.0326         0.320930   
    220. A(N  23,C  24,H  70)          107.0552         0.330601   
    221. A(C   7,C  24,H  70)          111.6694         0.323107   
    222. A(N  23,C  24,C  25)          112.4018         0.370833   
    223. A(C   7,C  24,N  23)          106.7041         0.373478   
    224. A(C   7,C  24,C  25)          109.9619         0.362091   
    225. A(H  71,C  25,H  73)          109.1351         0.288366   
    226. A(C  24,C  25,H  73)          110.1221         0.321138   
    227. A(H  71,C  25,H  72)          108.5736         0.288150   
    228. A(C  24,C  25,H  72)          111.2327         0.320885   
    229. A(C  24,C  25,H  71)          109.0038         0.321358   
    230. A(H  72,C  25,H  73)          108.7339         0.287961   
    231. A(C  28,C  27,H  75)          109.2848         0.320970   
    232. A(C  21,C  27,C  28)          114.5439         0.361214   
    233. A(H  74,C  27,H  75)          106.5431         0.287071   
    234. A(C  21,C  27,H  75)          108.5024         0.320908   
    235. A(C  28,C  27,H  74)          110.1567         0.321495   
    236. A(C  21,C  27,H  74)          107.4921         0.321434   
    237. A(C  29,C  28,C  30)          111.6322         0.362315   
    238. A(C  27,C  28,C  30)          109.4507         0.361718   
    239. A(C  27,C  28,C  29)          112.2110         0.361881   
    240. A(C  30,C  28,H  76)          107.5824         0.320804   
    241. A(C  29,C  28,H  76)          107.5132         0.320943   
    242. A(C  27,C  28,H  76)          108.2701         0.320436   
    243. A(C  28,C  29,H  79)          110.5731         0.321705   
    244. A(H  78,C  29,H  79)          107.7670         0.287310   
    245. A(H  77,C  29,H  79)          108.4555         0.287435   
    246. A(H  77,C  29,H  78)          107.2530         0.287735   
    247. A(C  28,C  29,H  78)          110.7338         0.322056   
    248. A(C  28,C  29,H  77)          111.9003         0.322204   
    249. A(H  81,C  30,H  82)          107.6654         0.287296   
    250. A(H  80,C  30,H  82)          108.4323         0.287621   
    251. A(C  28,C  30,H  82)          111.1383         0.321896   
    252. A(H  80,C  30,H  81)          107.9046         0.287344   
    253. A(C  28,C  30,H  81)          110.5820         0.321571   
    254. A(C  28,C  30,H  80)          110.9890         0.321952   
    255. A(C  33,C  32,O  42)          121.9860         0.436037   
    256. A(C  18,C  32,O  42)          123.9264         0.429150   
    257. A(C  18,C  32,C  33)          114.0537         0.365623   
    258. A(C  32,C  33,C  34)          115.0684         0.368165   
    259. A(C  34,C  33,H  84)          111.4758         0.322285   
    260. A(H  83,C  33,H  84)          103.7935         0.285854   
    261. A(C  32,C  33,H  84)          108.0771         0.324841   
    262. A(C  34,C  33,H  83)          111.4515         0.322017   
    263. A(C  32,C  33,H  83)          106.2353         0.324570   
    264. A(C  33,C  34,C  35)          112.9605         0.363209   
    265. A(H  85,C  34,H  86)          106.6510         0.287699   
    266. A(C  35,C  34,H  86)          109.0076         0.321829   
    267. A(C  33,C  34,H  86)          108.6030         0.323469   
    268. A(C  35,C  34,H  85)          110.3407         0.321376   
    269. A(C  33,C  34,H  85)          109.0679         0.323013   
    270. A(C  34,C  35,C  36)          113.1671         0.361814   
    271. A(H  87,C  35,H  88)          105.9647         0.286363   
    272. A(C  36,C  35,H  88)          108.6454         0.321468   
    273. A(C  34,C  35,H  88)          108.7444         0.321022   
    274. A(C  36,C  35,H  87)          109.8159         0.321062   
    275. A(C  34,C  35,H  87)          110.2301         0.320616   
    276. A(C  35,C  36,C  37)          113.6851         0.363032   
    277. A(H  89,C  36,H  90)          105.6660         0.286335   
    278. A(C  37,C  36,H  90)          108.6058         0.321703   
    279. A(C  35,C  36,H  90)          110.1989         0.321114   
    280. A(C  37,C  36,H  89)          109.8923         0.321973   
    281. A(C  35,C  36,H  89)          108.4887         0.321383   
    282. A(C  36,C  37,C  38)          113.0967         0.363495   
    283. A(H  91,C  37,H  92)          105.9392         0.286106   
    284. A(C  38,C  37,H  92)          109.3054         0.321490   
    285. A(C  36,C  37,H  92)          109.3708         0.321686   
    286. A(C  38,C  37,H  91)          109.3564         0.321521   
    287. A(C  36,C  37,H  91)          109.5217         0.321718   
    288. A(C  37,C  38,C  39)          113.8105         0.363367   
    289. A(H  93,C  38,H  94)          105.9204         0.285996   
    290. A(C  39,C  38,H  94)          109.2830         0.321561   
    291. A(C  37,C  38,H  94)          109.2810         0.321473   
    292. A(C  39,C  38,H  93)          109.1249         0.321496   
    293. A(C  37,C  38,H  93)          109.1210         0.321408   
    294. A(C  38,C  39,C  40)          113.4904         0.363183   
    295. A(H  95,C  39,H  96)          105.8886         0.286051   
    296. A(C  40,C  39,H  96)          109.2845         0.321300   
    297. A(C  38,C  39,H  96)          109.3433         0.321544   
    298. A(C  40,C  39,H  95)          109.2682         0.321334   
    299. A(C  38,C  39,H  95)          109.2857         0.321578   
    300. A(C  39,C  40,C  41)          113.1530         0.363182   
    301. A(H  97,C  40,H  98)          105.9311         0.286369   
    302. A(C  41,C  40,H  98)          109.6429         0.321773   
    303. A(C  39,C  40,H  98)          109.1118         0.321529   
    304. A(C  41,C  40,H  97)          109.6313         0.321724   
    305. A(C  39,C  40,H  97)          109.1139         0.321481   
    306. A(H 100,C  41,H 101)          107.4509         0.287285   
    307. A(H  99,C  41,H 101)          107.6787         0.287512   
    308. A(C  40,C  41,H 101)          111.0716         0.322297   
    309. A(H  99,C  41,H 100)          107.7020         0.287496   
    310. A(C  40,C  41,H 100)          111.1055         0.322279   
    311. A(C  40,C  41,H  99)          111.6409         0.322546   
    312. A(C  17,O  43,H 102)          108.4532         0.350885   
    313. A(C  13,C  45,C  46)          115.4471         0.360847   
    314. A(C  46,C  45,H 104)          109.8403         0.322573   
    315. A(C  13,C  45,H 104)          105.7713         0.319265   
    316. A(C  46,C  45,H 103)          109.8704         0.322406   
    317. A(C  13,C  45,H 103)          108.8753         0.319101   
    318. A(H 103,C  45,H 104)          106.6182         0.286704   
    319. A(H 106,C  46,H 107)          107.8304         0.288285   
    320. A(H 105,C  46,H 107)          108.2011         0.287696   
    321. A(C  45,C  46,H 107)          110.6987         0.323000   
    322. A(H 105,C  46,H 106)          108.6359         0.288413   
    323. A(C  45,C  46,H 106)          111.2166         0.323844   
    324. A(C  45,C  46,H 105)          110.1628         0.323149   
    325. A(C  50,C  48,H 108)          108.7796         0.321660   
    326. A(C  49,C  48,H 108)          108.9629         0.322257   
    327. A(C  10,C  48,H 108)          107.3596         0.319458   
    328. A(C  49,C  48,C  50)          110.4653         0.362179   
    329. A(C  10,C  48,C  50)          109.5684         0.358901   
    330. A(C  10,C  48,C  49)          111.6121         0.359594   
    331. A(H 110,C  49,H 111)          107.6091         0.287286   
    332. A(H 109,C  49,H 111)          108.0439         0.287579   
    333. A(C  48,C  49,H 111)          111.3004         0.321776   
    334. A(H 109,C  49,H 110)          107.7983         0.288024   
    335. A(C  48,C  49,H 110)          109.7871         0.322299   
    336. A(C  48,C  49,H 109)          112.1318         0.322644   
    337. A(H 113,C  50,H 114)          107.6525         0.287147   
    338. A(H 112,C  50,H 114)          108.2117         0.288249   
    339. A(C  48,C  50,H 114)          110.3273         0.321676   
    340. A(H 112,C  50,H 113)          108.7433         0.287708   
    341. A(C  48,C  50,H 113)          110.5788         0.321044   
    342. A(C  48,C  50,H 112)          111.2202         0.322335   
    343. D(H  51,C   2,C   1,N   9)    -35.1232         0.008984   
    344. D(C   3,C   2,C   1,N   9)   -161.6809         0.008984   
    345. D(N   6,C   2,C   1,N   9)     84.0682         0.008984   
    346. D(N   6,C   2,C   1,O   0)    -95.5890         0.008984   
    347. D(C   3,C   2,C   1,O   0)     18.6618         0.008984   
    348. D(H  51,C   2,C   1,O   0)    145.2195         0.008984   
    349. D(C   4,C   3,C   2,N   6)     31.4028         0.011096   
    350. D(H  53,C   3,C   2,H  51)    -90.8364         0.011096   
    351. D(H  53,C   3,C   2,C   1)     33.4975         0.011096   
    352. D(C   4,C   3,C   2,H  51)    148.2876         0.011096   
    353. D(H  53,C   3,C   2,N   6)    152.2788         0.011096   
    354. D(H  52,C   3,C   2,H  51)     29.8054         0.011096   
    355. D(C   4,C   3,C   2,C   1)    -87.3785         0.011096   
    356. D(H  52,C   3,C   2,C   1)    154.1393         0.011096   
    357. D(H  52,C   3,C   2,N   6)    -87.0795         0.011096   
    358. D(H  55,C   4,C   3,H  53)     80.4821         0.010688   
    359. D(H  55,C   4,C   3,H  52)    -41.8672         0.010688   
    360. D(H  54,C   4,C   3,H  52)   -163.0874         0.010688   
    361. D(H  55,C   4,C   3,C   2)   -159.3599         0.010688   
    362. D(H  54,C   4,C   3,H  53)    -40.7381         0.010688   
    363. D(C   5,C   4,C   3,C   2)    -37.8895         0.010688   
    364. D(H  54,C   4,C   3,C   2)     79.4199         0.010688   
    365. D(C   5,C   4,C   3,H  53)   -158.0475         0.010688   
    366. D(C   5,C   4,C   3,H  52)     79.6032         0.010688   
    367. D(N   6,C   5,C   4,C   3)     29.0174         0.010972   
    368. D(H  57,C   5,C   4,C   3)    -89.1909         0.010972   
    369. D(H  56,C   5,C   4,H  55)    -89.0302         0.010972   
    370. D(H  56,C   5,C   4,C   3)    148.5619         0.010972   
    371. D(H  57,C   5,C   4,H  54)    154.2399         0.010972   
    372. D(H  56,C   5,C   4,H  54)     31.9927         0.010972   
    373. D(H  57,C   5,C   4,H  55)     33.2170         0.010972   
    374. D(N   6,C   5,C   4,H  54)    -87.5519         0.010972   
    375. D(N   6,C   5,C   4,H  55)    151.4253         0.010972   
    376. D(C   5,N   6,C   2,C   3)    -13.7825         0.013472   
    377. D(C   7,N   6,C   5,H  57)    -65.6069         0.014003   
    378. D(C   7,N   6,C   5,H  56)     54.0345         0.014003   
    379. D(C   7,N   6,C   5,C   4)    175.0097         0.014003   
    380. D(C   2,N   6,C   5,H  57)    109.7879         0.014003   
    381. D(C   2,N   6,C   5,H  56)   -130.5707         0.014003   
    382. D(C   7,N   6,C   2,H  51)     41.4390         0.013472   
    383. D(C   2,N   6,C   5,C   4)     -9.5955         0.014003   
    384. D(C   7,N   6,C   2,C   3)    161.8808         0.013472   
    385. D(C   5,N   6,C   2,C   1)    105.9450         0.013472   
    386. D(C   7,N   6,C   2,C   1)    -78.3917         0.013472   
    387. D(C   5,N   6,C   2,H  51)   -134.2243         0.013472   
    388. D(C  24,C   7,N   6,C   5)      3.4162         0.035199   
    389. D(C  24,C   7,N   6,C   2)   -171.5919         0.035199   
    390. D(O   8,C   7,N   6,C   5)   -178.5928         0.035199   
    391. D(O   8,C   7,N   6,C   2)      6.3991         0.035199   
    392. D(H  58,N   9,C   1,O   0)    168.4294         0.032220   
    393. D(C  10,N   9,C   1,C   2)   -171.9294         0.032220   
    394. D(H  58,N   9,C   1,C   2)    -11.2198         0.032220   
    395. D(C  10,N   9,C   1,O   0)      7.7197         0.032220   
    396. D(H  59,C  10,N   9,C   1)    172.1935         0.015526   
    397. D(C  48,C  10,N   9,H  58)    130.5884         0.015526   
    398. D(C  48,C  10,N   9,C   1)    -69.2199         0.015526   
    399. D(C  11,C  10,N   9,C   1)     58.6727         0.015526   
    400. D(H  59,C  10,N   9,H  58)     12.0017         0.015526   
    401. D(C  11,C  10,N   9,H  58)   -101.5190         0.015526   
    402. D(O  47,C  11,C  10,N   9)   -144.4670         0.009025   
    403. D(N  12,C  11,C  10,H  59)    -74.3934         0.009025   
    404. D(N  12,C  11,C  10,C  48)    167.7171         0.009025   
    405. D(N  12,C  11,C  10,N   9)     38.4332         0.009025   
    406. D(O  47,C  11,C  10,H  59)    102.7064         0.009025   
    407. D(O  47,C  11,C  10,C  48)    -15.1831         0.009025   
    408. D(H  60,N  12,C  11,O  47)    177.6494         0.029217   
    409. D(H  60,N  12,C  11,C  10)     -5.2172         0.029217   
    410. D(C  13,N  12,C  11,O  47)      5.7622         0.029217   
    411. D(C  13,N  12,C  11,C  10)   -177.1044         0.029217   
    412. D(H  61,C  13,N  12,C  11)     15.4227         0.017079   
    413. D(H  61,C  13,N  12,H  60)   -156.4357         0.017079   
    414. D(C  45,C  13,N  12,H  60)    -37.5939         0.017079   
    415. D(C  45,C  13,N  12,C  11)    134.2645         0.017079   
    416. D(C  14,C  13,N  12,C  11)   -100.5900         0.017079   
    417. D(C  14,C  13,N  12,H  60)     87.5516         0.017079   
    418. D(O  44,C  14,C  13,C  45)    -55.5053         0.009660   
    419. D(O  44,C  14,C  13,N  12)   -179.3658         0.009660   
    420. D(N  15,C  14,C  13,H  61)   -118.5359         0.009660   
    421. D(N  15,C  14,C  13,C  45)    121.5775         0.009660   
    422. D(O  44,C  14,C  13,H  61)     64.3812         0.009660   
    423. D(N  15,C  14,C  13,N  12)     -2.2830         0.009660   
    424. D(H  62,N  15,C  14,O  44)   -173.9544         0.030196   
    425. D(H  62,N  15,C  14,C  13)      8.9734         0.030196   
    426. D(C  16,N  15,C  14,O  44)     -3.9307         0.030196   
    427. D(C  16,N  15,C  14,C  13)    178.9972         0.030196   
    428. D(H  64,C  16,N  15,H  62)     96.5225         0.016802   
    429. D(H  64,C  16,N  15,C  14)    -73.7319         0.016802   
    430. D(H  63,C  16,N  15,H  62)   -147.0060         0.016802   
    431. D(H  63,C  16,N  15,C  14)     42.7396         0.016802   
    432. D(C  17,C  16,N  15,C  14)    165.4391         0.016802   
    433. D(C  17,C  16,N  15,H  62)    -24.3065         0.016802   
    434. D(H  65,C  17,C  16,H  64)     71.0987         0.011337   
    435. D(H  65,C  17,C  16,H  63)    -44.1909         0.011337   
    436. D(H  65,C  17,C  16,N  15)   -165.9301         0.011337   
    437. D(O  43,C  17,C  16,H  64)    -45.2571         0.011337   
    438. D(O  43,C  17,C  16,H  63)   -160.5467         0.011337   
    439. D(O  43,C  17,C  16,N  15)     77.7141         0.011337   
    440. D(C  18,C  17,C  16,H  64)   -171.3568         0.011337   
    441. D(C  18,C  17,C  16,H  63)     73.3536         0.011337   
    442. D(C  18,C  17,C  16,N  15)    -48.3856         0.011337   
    443. D(H  66,C  18,C  17,H  65)    -44.6163         0.009217   
    444. D(H  66,C  18,C  17,O  43)     73.5632         0.009217   
    445. D(H  66,C  18,C  17,C  16)   -161.8268         0.009217   
    446. D(C  32,C  18,C  17,O  43)    -44.4605         0.009217   
    447. D(C  32,C  18,C  17,C  16)     80.1495         0.009217   
    448. D(C  32,C  18,C  17,H  65)   -162.6400         0.009217   
    449. D(C  19,C  18,C  17,H  65)     67.8927         0.009217   
    450. D(C  19,C  18,C  17,O  43)   -173.9277         0.009217   
    451. D(C  19,C  18,C  17,C  16)    -49.3177         0.009217   
    452. D(O  31,C  19,C  18,H  66)      3.6868         0.008861   
    453. D(O  31,C  19,C  18,C  32)    115.4783         0.008861   
    454. D(O  31,C  19,C  18,C  17)   -111.0722         0.008861   
    455. D(N  20,C  19,C  18,H  66)   -173.3105         0.008861   
    456. D(N  20,C  19,C  18,C  17)     71.9305         0.008861   
    457. D(N  20,C  19,C  18,C  32)    -61.5190         0.008861   
    458. D(H  67,N  20,C  19,O  31)    169.3634         0.030917   
    459. D(H  67,N  20,C  19,C  18)    -13.7446         0.030917   
    460. D(C  21,N  20,C  19,O  31)     10.2450         0.030917   
    461. D(C  21,N  20,C  19,C  18)   -172.8630         0.030917   
    462. D(H  68,C  21,N  20,H  67)   -176.5082         0.016061   
    463. D(H  68,C  21,N  20,C  19)    -17.5500         0.016061   
    464. D(C  27,C  21,N  20,H  67)    -56.3386         0.016061   
    465. D(C  27,C  21,N  20,C  19)    102.6197         0.016061   
    466. D(C  22,C  21,N  20,H  67)     67.1146         0.016061   
    467. D(C  22,C  21,N  20,C  19)   -133.9271         0.016061   
    468. D(N  23,C  22,C  21,C  27)    142.8321         0.009709   
    469. D(N  23,C  22,C  21,N  20)     18.4652         0.009709   
    470. D(O  26,C  22,C  21,H  68)     83.4142         0.009709   
    471. D(O  26,C  22,C  21,C  27)    -36.6018         0.009709   
    472. D(O  26,C  22,C  21,N  20)   -160.9686         0.009709   
    473. D(N  23,C  22,C  21,H  68)    -97.1519         0.009709   
    474. D(H  69,N  23,C  22,O  26)   -179.7401         0.031571   
    475. D(H  69,N  23,C  22,C  21)      0.8306         0.031571   
    476. D(C  24,N  23,C  22,O  26)      6.1408         0.031571   
    477. D(C  24,N  23,C  22,C  21)   -173.2885         0.031571   
    478. D(H  70,C  24,N  23,H  69)   -144.4006         0.017276   
    479. D(H  70,C  24,N  23,C  22)     29.9517         0.017276   
    480. D(C  25,C  24,N  23,H  69)     95.9026         0.017276   
    481. D(C  25,C  24,N  23,C  22)    -89.7450         0.017276   
    482. D(C   7,C  24,N  23,H  69)    -24.7100         0.017276   
    483. D(C   7,C  24,N  23,C  22)    149.6423         0.017276   
    484. D(H  70,C  24,C   7,O   8)    150.4932         0.010643   
    485. D(H  70,C  24,C   7,N   6)    -31.4524         0.010643   
    486. D(C  25,C  24,C   7,O   8)    -88.3319         0.010643   
    487. D(C  25,C  24,C   7,N   6)     89.7224         0.010643   
    488. D(N  23,C  24,C   7,O   8)     33.8306         0.010643   
    489. D(N  23,C  24,C   7,N   6)   -148.1151         0.010643   
    490. D(H  73,C  25,C  24,H  70)   -178.3272         0.010518   
    491. D(H  73,C  25,C  24,N  23)    -59.7871         0.010518   
    492. D(H  73,C  25,C  24,C   7)     58.9300         0.010518   
    493. D(H  72,C  25,C  24,H  70)     61.0546         0.010518   
    494. D(H  72,C  25,C  24,N  23)    179.5948         0.010518   
    495. D(H  72,C  25,C  24,C   7)    -61.6882         0.010518   
    496. D(H  71,C  25,C  24,H  70)    -58.6302         0.010518   
    497. D(H  71,C  25,C  24,N  23)     59.9100         0.010518   
    498. D(H  71,C  25,C  24,C   7)    178.6270         0.010518   
    499. D(H  75,C  27,C  21,H  68)    174.0793         0.010776   
    500. D(H  75,C  27,C  21,C  22)    -67.7005         0.010776   
    501. D(H  75,C  27,C  21,N  20)     56.3897         0.010776   
    502. D(H  74,C  27,C  21,H  68)    -71.0687         0.010776   
    503. D(H  74,C  27,C  21,C  22)     47.1515         0.010776   
    504. D(H  74,C  27,C  21,N  20)    171.2418         0.010776   
    505. D(C  28,C  27,C  21,H  68)     51.6897         0.010776   
    506. D(C  28,C  27,C  21,C  22)    169.9099         0.010776   
    507. D(C  28,C  27,C  21,N  20)    -65.9999         0.010776   
    508. D(H  76,C  28,C  27,H  75)    -70.1712         0.010799   
    509. D(H  76,C  28,C  27,H  74)    173.0991         0.010799   
    510. D(H  76,C  28,C  27,C  21)     51.7928         0.010799   
    511. D(C  30,C  28,C  27,H  75)     46.8266         0.010799   
    512. D(C  30,C  28,C  27,H  74)    -69.9031         0.010799   
    513. D(C  30,C  28,C  27,C  21)    168.7906         0.010799   
    514. D(C  29,C  28,C  27,H  75)    171.3325         0.010799   
    515. D(C  29,C  28,C  27,H  74)     54.6029         0.010799   
    516. D(C  29,C  28,C  27,C  21)    -66.7034         0.010799   
    517. D(H  79,C  29,C  28,C  30)     64.3767         0.010997   
    518. D(H  79,C  29,C  28,C  27)    -58.9126         0.010997   
    519. D(H  78,C  29,C  28,H  76)     62.7660         0.010997   
    520. D(H  78,C  29,C  28,C  30)    -55.0025         0.010997   
    521. D(H  78,C  29,C  28,C  27)   -178.2918         0.010997   
    522. D(H  77,C  29,C  28,H  76)    -56.8359         0.010997   
    523. D(H  77,C  29,C  28,C  30)   -174.6044         0.010997   
    524. D(H  79,C  29,C  28,H  76)   -177.8548         0.010997   
    525. D(H  77,C  29,C  28,C  27)     62.1063         0.010997   
    526. D(H  82,C  30,C  28,H  76)    -60.6779         0.010942   
    527. D(H  82,C  30,C  28,C  29)     57.0490         0.010942   
    528. D(H  82,C  30,C  28,C  27)   -178.1083         0.010942   
    529. D(H  81,C  30,C  28,H  76)    179.8026         0.010942   
    530. D(H  81,C  30,C  28,C  29)    -62.4705         0.010942   
    531. D(H  81,C  30,C  28,C  27)     62.3721         0.010942   
    532. D(H  80,C  30,C  28,H  76)     60.0802         0.010942   
    533. D(H  80,C  30,C  28,C  29)    177.8071         0.010942   
    534. D(H  80,C  30,C  28,C  27)    -57.3502         0.010942   
    535. D(O  42,C  32,C  18,H  66)   -144.3532         0.009944   
    536. D(O  42,C  32,C  18,C  19)    106.2723         0.009944   
    537. D(O  42,C  32,C  18,C  17)    -26.1853         0.009944   
    538. D(C  33,C  32,C  18,H  66)     37.7326         0.009944   
    539. D(C  33,C  32,C  18,C  19)    -71.6419         0.009944   
    540. D(C  33,C  32,C  18,C  17)    155.9005         0.009944   
    541. D(H  84,C  33,C  32,O  42)    125.3275         0.011742   
    542. D(H  84,C  33,C  32,C  18)    -56.7130         0.011742   
    543. D(H  83,C  33,C  32,O  42)   -123.8014         0.011742   
    544. D(H  83,C  33,C  32,C  18)     54.1581         0.011742   
    545. D(C  34,C  33,C  32,O  42)      0.0281         0.011742   
    546. D(C  34,C  33,C  32,C  18)    177.9876         0.011742   
    547. D(H  86,C  34,C  33,H  84)   -164.4737         0.011450   
    548. D(H  86,C  34,C  33,H  83)     80.0671         0.011450   
    549. D(H  86,C  34,C  33,C  32)    -40.9590         0.011450   
    550. D(H  85,C  34,C  33,H  84)    -48.6098         0.011450   
    551. D(H  85,C  34,C  33,H  83)   -164.0690         0.011450   
    552. D(H  85,C  34,C  33,C  32)     74.9050         0.011450   
    553. D(C  35,C  34,C  33,H  84)     74.4741         0.011450   
    554. D(C  35,C  34,C  33,H  83)    -40.9851         0.011450   
    555. D(C  35,C  34,C  33,C  32)   -162.0112         0.011450   
    556. D(H  88,C  35,C  34,H  86)     70.6070         0.010800   
    557. D(H  88,C  35,C  34,H  85)    -46.1961         0.010800   
    558. D(H  88,C  35,C  34,C  33)   -168.5707         0.010800   
    559. D(H  87,C  35,C  34,H  86)   -173.6330         0.010800   
    560. D(H  87,C  35,C  34,H  85)     69.5639         0.010800   
    561. D(H  87,C  35,C  34,C  33)    -52.8107         0.010800   
    562. D(C  36,C  35,C  34,H  86)    -50.2197         0.010800   
    563. D(C  36,C  35,C  34,H  85)   -167.0227         0.010800   
    564. D(C  36,C  35,C  34,C  33)     70.6026         0.010800   
    565. D(H  90,C  36,C  35,H  87)     64.1698         0.010974   
    566. D(H  90,C  36,C  35,C  34)    -59.4713         0.010974   
    567. D(H  89,C  36,C  35,H  88)    -65.1146         0.010974   
    568. D(H  89,C  36,C  35,H  87)    179.4092         0.010974   
    569. D(H  89,C  36,C  35,C  34)     55.7681         0.010974   
    570. D(C  37,C  36,C  35,H  88)     57.4634         0.010974   
    571. D(C  37,C  36,C  35,H  87)    -58.0128         0.010974   
    572. D(H  90,C  36,C  35,H  88)    179.6460         0.010974   
    573. D(C  37,C  36,C  35,C  34)    178.3461         0.010974   
    574. D(H  92,C  37,C  36,H  90)   -178.9331         0.011207   
    575. D(H  92,C  37,C  36,H  89)     65.9281         0.011207   
    576. D(H  92,C  37,C  36,C  35)    -55.8738         0.011207   
    577. D(H  91,C  37,C  36,H  90)    -63.2431         0.011207   
    578. D(H  91,C  37,C  36,H  89)   -178.3819         0.011207   
    579. D(H  91,C  37,C  36,C  35)     59.8163         0.011207   
    580. D(C  38,C  37,C  36,H  90)     58.9994         0.011207   
    581. D(C  38,C  37,C  36,H  89)    -56.1394         0.011207   
    582. D(C  38,C  37,C  36,C  35)   -177.9412         0.011207   
    583. D(H  94,C  38,C  37,H  92)   -178.5272         0.011129   
    584. D(H  94,C  38,C  37,H  91)     65.9117         0.011129   
    585. D(H  94,C  38,C  37,C  36)    -56.4232         0.011129   
    586. D(H  93,C  38,C  37,H  92)    -63.1325         0.011129   
    587. D(H  93,C  38,C  37,H  91)   -178.6935         0.011129   
    588. D(H  93,C  38,C  37,C  36)     58.9716         0.011129   
    589. D(C  39,C  38,C  37,H  92)     59.0086         0.011129   
    590. D(C  39,C  38,C  37,H  91)    -56.5525         0.011129   
    591. D(C  39,C  38,C  37,C  36)   -178.8874         0.011129   
    592. D(H  95,C  39,C  38,H  94)    -64.2627         0.011164   
    593. D(H  95,C  39,C  38,H  93)   -179.6607         0.011164   
    594. D(H  95,C  39,C  38,C  37)     58.2005         0.011164   
    595. D(C  40,C  39,C  38,H  94)     57.9646         0.011164   
    596. D(C  40,C  39,C  38,H  93)    -57.4334         0.011164   
    597. D(C  40,C  39,C  38,C  37)   -179.5723         0.011164   
    598. D(H  96,C  39,C  38,H  94)   -179.7449         0.011164   
    599. D(H  96,C  39,C  38,H  93)     64.8571         0.011164   
    600. D(H  96,C  39,C  38,C  37)    -57.2818         0.011164   
    601. D(H  98,C  40,C  39,H  95)     64.7064         0.011067   
    602. D(H  98,C  40,C  39,C  38)    -57.5305         0.011067   
    603. D(H  97,C  40,C  39,H  96)    -64.5429         0.011067   
    604. D(H  97,C  40,C  39,H  95)   -179.9829         0.011067   
    605. D(H  97,C  40,C  39,C  38)     57.7801         0.011067   
    606. D(C  41,C  40,C  39,H  96)     57.7951         0.011067   
    607. D(C  41,C  40,C  39,H  95)    -57.6449         0.011067   
    608. D(H  98,C  40,C  39,H  96)   -179.8536         0.011067   
    609. D(C  41,C  40,C  39,C  38)   -179.8818         0.011067   
    610. D(H 101,C  41,C  40,H  98)    -62.2466         0.011164   
    611. D(H 101,C  41,C  40,H  97)   -178.1429         0.011164   
    612. D(H 101,C  41,C  40,C  39)     59.8081         0.011164   
    613. D(H 100,C  41,C  40,H  98)    178.2019         0.011164   
    614. D(H 100,C  41,C  40,H  97)     62.3056         0.011164   
    615. D(H 100,C  41,C  40,C  39)    -59.7434         0.011164   
    616. D(H  99,C  41,C  40,H  98)     57.9513         0.011164   
    617. D(H  99,C  41,C  40,H  97)    -57.9450         0.011164   
    618. D(H  99,C  41,C  40,C  39)   -179.9940         0.011164   
    619. D(H 102,O  43,C  17,H  65)     54.5647         0.017811   
    620. D(H 102,O  43,C  17,C  18)    -61.0303         0.017811   
    621. D(H 102,O  43,C  17,C  16)    167.7024         0.017811   
    622. D(H 104,C  45,C  13,H  61)     73.4785         0.010117   
    623. D(H 104,C  45,C  13,C  14)   -168.8869         0.010117   
    624. D(H 104,C  45,C  13,N  12)    -43.2406         0.010117   
    625. D(H 103,C  45,C  13,H  61)   -172.2770         0.010117   
    626. D(H 103,C  45,C  13,C  14)    -54.6424         0.010117   
    627. D(H 103,C  45,C  13,N  12)     71.0039         0.010117   
    628. D(C  46,C  45,C  13,H  61)    -48.1871         0.010117   
    629. D(C  46,C  45,C  13,C  14)     69.4475         0.010117   
    630. D(C  46,C  45,C  13,N  12)   -164.9062         0.010117   
    631. D(H 107,C  46,C  45,H 104)    -59.4542         0.011383   
    632. D(H 107,C  46,C  45,H 103)   -176.4350         0.011383   
    633. D(H 107,C  46,C  45,C  13)     59.9972         0.011383   
    634. D(H 106,C  46,C  45,H 104)   -179.3095         0.011383   
    635. D(H 106,C  46,C  45,H 103)     63.7098         0.011383   
    636. D(H 106,C  46,C  45,C  13)    -59.8580         0.011383   
    637. D(H 105,C  46,C  45,H 104)     60.1789         0.011383   
    638. D(H 105,C  46,C  45,H 103)    -56.8018         0.011383   
    639. D(H 105,C  46,C  45,C  13)    179.6304         0.011383   
    640. D(H 108,C  48,C  10,H  59)   -159.5926         0.010017   
    641. D(H 108,C  48,C  10,C  11)    -43.1591         0.010017   
    642. D(H 108,C  48,C  10,N   9)     83.8189         0.010017   
    643. D(C  50,C  48,C  10,H  59)    -41.6175         0.010017   
    644. D(C  50,C  48,C  10,C  11)     74.8160         0.010017   
    645. D(C  50,C  48,C  10,N   9)   -158.2060         0.010017   
    646. D(C  49,C  48,C  10,H  59)     81.0631         0.010017   
    647. D(C  49,C  48,C  10,C  11)   -162.5034         0.010017   
    648. D(C  49,C  48,C  10,N   9)    -35.5254         0.010017   
    649. D(H 111,C  49,C  48,C  50)     64.8440         0.011064   
    650. D(H 111,C  49,C  48,C  10)    -57.3222         0.011064   
    651. D(H 110,C  49,C  48,H 108)     65.2523         0.011064   
    652. D(H 110,C  49,C  48,C  50)    -54.1913         0.011064   
    653. D(H 110,C  49,C  48,C  10)   -176.3575         0.011064   
    654. D(H 109,C  49,C  48,H 108)    -54.5497         0.011064   
    655. D(H 109,C  49,C  48,C  50)   -173.9933         0.011064   
    656. D(H 111,C  49,C  48,H 108)   -175.7124         0.011064   
    657. D(H 109,C  49,C  48,C  10)     63.8405         0.011064   
    658. D(H 114,C  50,C  48,H 108)    -60.1323         0.010831   
    659. D(H 114,C  50,C  48,C  49)     59.4221         0.010831   
    660. D(H 114,C  50,C  48,C  10)   -177.2185         0.010831   
    661. D(H 113,C  50,C  48,H 108)   -179.1128         0.010831   
    662. D(H 113,C  50,C  48,C  49)    -59.5585         0.010831   
    663. D(H 113,C  50,C  48,C  10)     63.8009         0.010831   
    664. D(H 112,C  50,C  48,H 108)     59.9582         0.010831   
    665. D(H 112,C  50,C  48,C  49)    179.5125         0.010831   
    666. D(H 112,C  50,C  48,C  10)    -57.1281         0.010831   
    -----------------------------------------------------------------

Number of atoms                         .... 115
Number of degrees of freedom            .... 666

         *************************************************************
         *                GEOMETRY OPTIMIZATION CYCLE   1            *
         *************************************************************
---------------------------------
CARTESIAN COORDINATES (ANGSTROEM)
---------------------------------
  O      5.438857    1.268293    0.046505
  C      4.358693    1.607102   -0.435469
  C      3.585926    2.855195    0.069017
  C      4.492763    3.812879    0.845730
  C      4.429725    3.280147    2.285058
  C      2.970790    2.841130    2.447964
  N      2.568934    2.465688    1.076130
  C      1.393170    1.921774    0.708422
  O      1.141695    1.609023   -0.475232
  N      3.728206    0.940096   -1.436004
  C      4.198065   -0.353685   -1.934024
  C      4.228906   -1.395846   -0.785001
  N      3.173550   -1.282395    0.081345
  C      3.033007   -2.113144    1.262495
  C      2.037893   -3.272580    1.059288
  N      1.419252   -3.307701   -0.158015
  C      0.474805   -4.362855   -0.483719
  C     -0.382776   -4.080069   -1.715756
  C     -1.094347   -2.700402   -1.847551
  C     -1.894547   -2.248319   -0.594090
  N     -1.108448   -1.874645    0.454743
  C     -1.633603   -1.558871    1.779012
  C     -1.011908   -0.261733    2.330803
  N     -0.431156    0.544932    1.402116
  C      0.319836    1.726438    1.777060
  C     -0.566547    2.980608    1.866572
  O     -1.033696    0.012938    3.530474
  C     -1.411685   -2.711991    2.767381
  C     -2.193991   -3.991076    2.440625
  C     -3.706650   -3.797992    2.586750
  C     -1.683660   -5.139582    3.317820
  O     -3.120835   -2.188942   -0.601693
  C     -0.241960   -1.519570   -2.339215
  C     -1.041176   -0.408273   -2.983734
  C     -0.222971    0.797495   -3.437192
  C     -1.079778    2.049174   -3.669523
  C     -1.622309    2.657626   -2.372158
  C     -2.444838    3.928753   -2.586782
  C     -2.937754    4.552670   -1.279398
  C     -3.785380    5.810752   -1.476538
  C     -4.265927    6.434734   -0.163647
  C     -5.115020    7.690380   -0.369810
  O      0.971895   -1.446684   -2.196200
  O      0.434823   -4.330231   -2.867562
  O      1.778955   -4.077665    1.955410
  C      2.648071   -1.231011    2.469925
  C      2.812836   -1.885476    3.839621
  O      5.077961   -2.273897   -0.684317
  C      5.533673   -0.301435   -2.710010
  C      5.658092    0.983921   -3.532474
  C      5.648835   -1.532551   -3.618090
  H      3.069925    3.331448   -0.776933
  H      4.088275    4.833962    0.785284
  H      5.512080    3.808308    0.444490
  H      5.096641    2.413349    2.375442
  H      4.717502    4.026297    3.035794
  H      2.858006    1.988861    3.130983
  H      2.336747    3.664801    2.813360
  H      2.761016    1.215760   -1.617806
  H      3.408780   -0.691827   -2.626229
  H      2.529597   -0.504951   -0.045493
  H      4.015468   -2.579796    1.436391
  H      1.722366   -2.683315   -0.911863
  H     -0.169908   -4.526366    0.390749
  H      0.999368   -5.313694   -0.670065
  H     -1.197063   -4.827534   -1.670052
  H     -1.887858   -2.834072   -2.598161
  H     -0.115871   -2.132122    0.393775
  H     -2.710835   -1.374439    1.643962
  H     -0.431525    0.294158    0.415240
  H      0.761066    1.528210    2.763949
  H     -1.345896    2.814122    2.620205
  H      0.020420    3.862921    2.158870
  H     -1.040640    3.178136    0.896114
  H     -1.684004   -2.346431    3.768454
  H     -0.333854   -2.942570    2.799784
  H     -1.993232   -4.260602    1.387488
  H     -4.092314   -3.040305    1.890441
  H     -4.240940   -4.735964    2.376786
  H     -3.960089   -3.489342    3.613319
  H     -0.604385   -5.294169    3.175634
  H     -1.856790   -4.919590    4.383141
  H     -2.203598   -6.079697    3.082383
  H     -1.815555   -0.118502   -2.249561
  H     -1.619229   -0.841817   -3.818885
  H      0.326913    0.534769   -4.353667
  H      0.531268    1.017693   -2.669851
  H     -1.916053    1.818094   -4.353083
  H     -0.467285    2.807062   -4.185098
  H     -0.771773    2.869574   -1.702830
  H     -2.246351    1.920324   -1.837025
  H     -3.310628    3.703139   -3.233885
  H     -1.838445    4.668628   -3.138568
  H     -2.067347    4.798407   -0.644946
  H     -3.521929    3.803967   -0.715506
  H     -4.659684    5.566640   -2.105501
  H     -3.203700    6.558517   -2.044403
  H     -3.390402    6.677906    0.462644
  H     -4.844257    5.684733    0.402388
  H     -5.446256    8.117500    0.587495
  H     -4.549170    8.467974   -0.905319
  H     -6.013563    7.467151   -0.964952
  H     -0.137897   -4.347926   -3.653766
  H      1.608582   -0.885322    2.342249
  H      3.288139   -0.336393    2.403430
  H      2.522162   -1.182446    4.632829
  H      2.194514   -2.785669    3.925839
  H      3.859579   -2.178599    4.007009
  H      6.345187   -0.331233   -1.968685
  H      5.685402    1.879456   -2.898515
  H      6.586153    0.960610   -4.121284
  H      4.818246    1.090617   -4.237984
  H      5.569982   -2.460549   -3.040198
  H      4.856307   -1.524153   -4.384811
  H      6.616931   -1.533512   -4.139259

----------------------------
CARTESIAN COORDINATES (A.U.)
----------------------------
  NO LB      ZA    FRAG     MASS         X           Y           Z
   0 O     8.0000    0    15.999   10.277950    2.396727    0.087882
   1 C     6.0000    0    12.011    8.236737    3.036982   -0.822917
   2 C     6.0000    0    12.011    6.776418    5.395536    0.130424
   3 C     6.0000    0    12.011    8.490091    7.205296    1.598199
   4 C     6.0000    0    12.011    8.370967    6.198580    4.318134
   5 C     6.0000    0    12.011    5.613979    5.368957    4.625981
   6 N     7.0000    0    14.007    4.854581    4.659475    2.033592
   7 C     6.0000    0    12.011    2.632710    3.631626    1.338723
   8 O     8.0000    0    15.999    2.157490    3.040613   -0.898059
   9 N     7.0000    0    14.007    7.045289    1.776525   -2.713654
  10 C     6.0000    0    12.011    7.933193   -0.668369   -3.654776
  11 C     6.0000    0    12.011    7.991475   -2.637767   -1.483438
  12 N     7.0000    0    14.007    5.997140   -2.423376    0.153719
  13 C     6.0000    0    12.011    5.731552   -3.993263    2.385771
  14 C     6.0000    0    12.011    3.851059   -6.184279    2.001763
  15 N     7.0000    0    14.007    2.681998   -6.250650   -0.298605
  16 C     6.0000    0    12.011    0.897252   -8.244600   -0.914096
  17 C     6.0000    0    12.011   -0.723342   -7.710213   -3.242309
  18 C     6.0000    0    12.011   -2.068015   -5.103020   -3.491365
  19 C     6.0000    0    12.011   -3.580175   -4.248707   -1.122667
  20 N     7.0000    0    14.007   -2.094663   -3.542565    0.859339
  21 C     6.0000    0    12.011   -3.087063   -2.945839    3.361846
  22 C     6.0000    0    12.011   -1.912229   -0.494603    4.404580
  23 N     7.0000    0    14.007   -0.814767    1.029773    2.649616
  24 C     6.0000    0    12.011    0.604402    3.262494    3.358157
  25 C     6.0000    0    12.011   -1.070619    5.632533    3.527309
  26 O     8.0000    0    15.999   -1.953402    0.024449    6.671628
  27 C     6.0000    0    12.011   -2.667698   -5.124920    5.229592
  28 C     6.0000    0    12.011   -4.146042   -7.542040    4.612114
  29 C     6.0000    0    12.011   -7.004553   -7.177164    4.888248
  30 C     6.0000    0    12.011   -3.181656   -9.712403    6.269770
  31 O     8.0000    0    15.999   -5.897524   -4.136502   -1.137036
  32 C     6.0000    0    12.011   -0.457238   -2.871571   -4.420476
  33 C     6.0000    0    12.011   -1.967537   -0.771524   -5.638441
  34 C     6.0000    0    12.011   -0.421354    1.507048   -6.495351
  35 C     6.0000    0    12.011   -2.040484    3.872377   -6.934393
  36 C     6.0000    0    12.011   -3.065719    5.022186   -4.482729
  37 C     6.0000    0    12.011   -4.620074    7.424267   -4.888310
  38 C     6.0000    0    12.011   -5.551551    8.603299   -2.417711
  39 C     6.0000    0    12.011   -7.153331   10.980729   -2.790252
  40 C     6.0000    0    12.011   -8.061434   12.159886   -0.309247
  41 C     6.0000    0    12.011   -9.665988   14.532711   -0.698839
  42 O     8.0000    0    15.999    1.836616   -2.733836   -4.150217
  43 O     8.0000    0    15.999    0.821696   -8.182950   -5.418907
  44 O     8.0000    0    15.999    3.361737   -7.705670    3.695190
  45 C     6.0000    0    12.011    5.004129   -2.326274    4.667482
  46 C     6.0000    0    12.011    5.315490   -3.563033    7.255832
  47 O     8.0000    0    15.999    9.595955   -4.297042   -1.293172
  48 C     6.0000    0    12.011   10.457127   -0.569629   -5.121177
  49 C     6.0000    0    12.011   10.692245    1.859341   -6.675409
  50 C     6.0000    0    12.011   10.674751   -2.896101   -6.837198
  51 H     1.0000    0     1.008    5.801317    6.295524   -1.468191
  52 H     1.0000    0     1.008    7.725721    9.134865    1.483972
  53 H     1.0000    0     1.008   10.416322    7.196658    0.839964
  54 H     1.0000    0     1.008    9.631256    4.560569    4.488935
  55 H     1.0000    0     1.008    8.914786    7.608599    5.736820
  56 H     1.0000    0     1.008    5.400849    3.758403    5.916700
  57 H     1.0000    0     1.008    4.415812    6.925469    5.316481
  58 H     1.0000    0     1.008    5.217565    2.297454   -3.057210
  59 H     1.0000    0     1.008    6.441662   -1.307364   -4.962854
  60 H     1.0000    0     1.008    4.780246   -0.954219   -0.085970
  61 H     1.0000    0     1.008    7.588135   -4.875107    2.714386
  62 H     1.0000    0     1.008    3.254800   -5.070731   -1.723172
  63 H     1.0000    0     1.008   -0.321080   -8.553592    0.738409
  64 H     1.0000    0     1.008    1.888532  -10.041426   -1.266239
  65 H     1.0000    0     1.008   -2.262122   -9.122717   -3.155941
  66 H     1.0000    0     1.008   -3.567534   -5.355620   -4.909813
  67 H     1.0000    0     1.008   -0.218964   -4.029127    0.744126
  68 H     1.0000    0     1.008   -5.122737   -2.597314    3.106638
  69 H     1.0000    0     1.008   -0.815464    0.555878    0.784690
  70 H     1.0000    0     1.008    1.438206    2.887899    5.223106
  71 H     1.0000    0     1.008   -2.543374    5.317919    4.951470
  72 H     1.0000    0     1.008    0.038588    7.299862    4.079673
  73 H     1.0000    0     1.008   -1.966524    6.005807    1.693410
  74 H     1.0000    0     1.008   -3.182307   -4.434112    7.121346
  75 H     1.0000    0     1.008   -0.630893   -5.560651    5.290824
  76 H     1.0000    0     1.008   -3.766662   -8.051370    2.621973
  77 H     1.0000    0     1.008   -7.733353   -5.745344    3.572415
  78 H     1.0000    0     1.008   -8.014215   -8.949675    4.491474
  79 H     1.0000    0     1.008   -7.483484   -6.593900    6.828184
  80 H     1.0000    0     1.008   -1.142122  -10.004530    6.001078
  81 H     1.0000    0     1.008   -3.508824   -9.296678    8.282935
  82 H     1.0000    0     1.008   -4.164196  -11.488963    5.824859
  83 H     1.0000    0     1.008   -3.430902   -0.223937   -4.251055
  84 H     1.0000    0     1.008   -3.059900   -1.590804   -7.216647
  85 H     1.0000    0     1.008    0.617776    1.010566   -8.227238
  86 H     1.0000    0     1.008    1.003951    1.923161   -5.045287
  87 H     1.0000    0     1.008   -3.620815    3.435700   -8.226135
  88 H     1.0000    0     1.008   -0.883041    5.304578   -7.908690
  89 H     1.0000    0     1.008   -1.458439    5.422708   -3.217883
  90 H     1.0000    0     1.008   -4.244988    3.628886   -3.471474
  91 H     1.0000    0     1.008   -6.256180    6.997918   -6.111157
  92 H     1.0000    0     1.008   -3.474157    8.822429   -5.931034
  93 H     1.0000    0     1.008   -3.906720    9.067674   -1.218772
  94 H     1.0000    0     1.008   -6.655481    7.188457   -1.352111
  95 H     1.0000    0     1.008   -8.805527   10.519424   -3.978821
  96 H     1.0000    0     1.008   -6.054115   12.393802   -3.863361
  97 H     1.0000    0     1.008   -6.406931   12.619414    0.874270
  98 H     1.0000    0     1.008   -9.154319   10.742589    0.760403
  99 H     1.0000    0     1.008  -10.291932   15.339852    1.110204
 100 H     1.0000    0     1.008   -8.596686   16.002152   -1.710805
 101 H     1.0000    0     1.008  -11.363987   14.110870   -1.823496
 102 H     1.0000    0     1.008   -0.260587   -8.216390   -6.904617
 103 H     1.0000    0     1.008    3.039779   -1.673017    4.426208
 104 H     1.0000    0     1.008    6.213682   -0.635691    4.541824
 105 H     1.0000    0     1.008    4.766195   -2.234500    8.754779
 106 H     1.0000    0     1.008    4.147030   -5.264152    7.418761
 107 H     1.0000    0     1.008    7.293548   -4.116955    7.572150
 108 H     1.0000    0     1.008   11.990665   -0.625939   -3.720276
 109 H     1.0000    0     1.008   10.743852    3.551656   -5.477400
 110 H     1.0000    0     1.008   12.446025    1.815289   -7.788098
 111 H     1.0000    0     1.008    9.105165    2.060967   -8.008629
 112 H     1.0000    0     1.008   10.525740   -4.649765   -5.745142
 113 H     1.0000    0     1.008    9.177089   -2.880232   -8.286092
 114 H     1.0000    0     1.008   12.504188   -2.897918   -7.822066

--------------------------------
INTERNAL COORDINATES (ANGSTROEM)
--------------------------------
 O      0   0   0     0.000000000000     0.00000000     0.00000000
 C      1   0   0     1.230383321583     0.00000000     0.00000000
 C      2   1   0     1.552228355559   122.08392386     0.00000000
 C      3   2   1     1.530619157650   111.90454086    18.66181581
 C      4   3   2     1.536047010389   103.54355232   272.62154855
 C      5   4   3     1.532242345366   103.77267211   322.11048329
 N      6   5   4     1.477962116489   103.47315919    29.01735237
 C      7   6   5     1.346652306548   126.40174186   175.00968301
 O      8   7   6     1.249836000022   122.36685957   181.40721075
 N      2   1   3     1.357748023509   124.12892960   180.37889711
 C     10   2   1     1.463783721168   122.40264878     7.71974033
 C     11  10   2     1.551548651916   110.37120141    58.67271885
 N     12  11  10     1.370111117803   113.41217860    38.43317656
 C     13  12  11     1.450865817649   122.81803963   182.89561623
 C     14  13  12     1.541375076886   112.70065695   259.40996221
 N     15  14  13     1.365933907376   115.41862035   357.71702593
 C     16  15  14     1.453069427034   120.85080872   178.99716089
 C     17  16  15     1.527523769007   114.28416182   165.43906635
 C     18  17  16     1.557942566425   119.24828894   311.61443463
 C     19  18  17     1.554305013442   115.11872300   310.68227376
 N     20  19  18     1.362950716018   113.79050039    71.93050251
 C     21  20  19     1.459174986006   123.37662630   187.13699754
 C     22  21  20     1.540631783459   111.22419050   226.07286315
 N     23  22  21     1.360308736798   115.27994250    18.46522640
 C     24  23  22     1.449319605329   121.87210932   186.71154825
 C     25  24  23     1.538385858923   112.40180505   270.25495286
 O     23  22  21     1.230905312827   121.99228905   199.03136498
 C     22  21  20     1.534863333316   111.70281442   102.61971806
 C     28  22  21     1.534545327636   114.54389172   294.00007393
 C     29  28  22     1.531917421083   112.21098714   293.29660675
 C     29  28  22     1.532636252335   109.45074921   168.79063959
 O     20  19  18     1.227748634814   121.55309534   248.92778813
 C     19  18  17     1.537095047821   117.00663678    80.14947827
 C     33  19  18     1.512987625262   114.05372044   155.90050354
 C     34  33  19     1.526092829771   115.06840522   177.98761799
 C     35  34  33     1.534534004965   112.96048271   197.98880849
 C     36  35  34     1.532223772336   113.16705970    70.60264110
 C     37  36  35     1.529176389926   113.68510458   178.34605751
 C     38  37  36     1.530193928363   113.09668042   182.05877871
 C     39  38  37     1.529739314101   113.81045301   181.11260569
 C     40  39  38     1.531000932973   113.49036447   180.42771942
 C     41  40  39     1.529740987216   113.15304426   180.11815853
 O     33  19  18     1.224421976117   123.92636082   333.81466847
 O     18  17  16     1.434470667119   107.17855729    77.71411249
 O     15  14  13     1.232171613531   122.09167011   180.63420874
 C     14  13  12     1.544091611702   109.48939286   134.26447187
 C     46  14  13     1.526937356628   115.44706285   195.09384099
 O     12  11  10     1.225562777057   123.76871029   215.53297570
 C     11  10   2     1.545552731313   114.72896240   290.78012119
 C     49  11  10     1.531034476392   111.61212216   324.47461621
 C     49  11  10     1.534117562306   109.56835213   201.79396616
 H      3   2   1     1.099411509900   109.38365326   145.21952913
 H      4   3   2     1.099943491946   109.57678684   154.13928575
 H      4   3   2     1.095455729425   111.27271195    33.49753785
 H      5   4   3     1.097399446390   109.03687228    79.41985427
 H      5   4   3     1.096886467076   113.24354064   200.64005554
 H      6   5   4     1.097996525188   112.72678346   148.56192402
 H      6   5   4     1.101798016444   111.65370924   270.80914722
 H     10   2   1     1.022007329041   115.97861447   168.42935318
 H     11  10   2     1.102931287716   104.76170323   172.19346643
 H     13  12  11     1.017439090868   118.16163135   354.78281956
 H     14  13  12     1.101469142476   106.54149053    15.42272967
 H     16  15  14     1.024706618734   120.39654834     8.97342223
 H     17  16  15     1.098674937549   108.12376238    42.73955445
 H     17  16  15     1.101810377884   110.80094132   286.26813283
 H     18  17  16     1.106280380117   104.76376358   194.06989887
 H     19  18  17     1.100428322093   106.22929735   198.17324125
 H     21  20  19     1.027239610550   116.28960437   346.25536968
 H     22  21  20     1.101218972169   106.08147825   342.45003219
 H     24  23  22     1.018239960339   121.02918180     0.83062275
 H     25  24  23     1.099057169453   107.05518797    29.95167829
 H     26  25  24     1.096843131446   109.00375052    59.90995281
 H     26  25  24     1.099292429789   111.23273087   179.59478542
 H     26  25  24     1.097984035661   110.12205641   300.21293689
 H     28  22  21     1.099972205780   107.49211261   171.24175829
 H     28  22  21     1.102694545256   108.50241154    56.38974418
 H     29  28  22     1.105462088563   108.27007148    51.79283606
 H     30  29  28     1.098941680639   111.90029485    62.10628107
 H     30  29  28     1.099701423567   110.73377049   181.70820962
 H     30  29  28     1.101517820945   110.57314383   301.08740135
 H     31  29  28     1.099521801341   110.98897278   302.64980549
 H     31  29  28     1.101489496601   110.58203927    62.37214515
 H     31  29  28     1.099810047860   111.13827052   181.89169696
 H     34  33  19     1.105730770748   106.23526973    54.15810866
 H     34  33  19     1.104347746549   108.07712697   303.28695470
 H     35  34  33     1.100601745235   109.06791026    74.90495247
 H     35  34  33     1.098260248368   108.60295620   319.04103181
 H     36  35  34     1.104539966379   110.23010980   307.18933540
 H     36  35  34     1.102433170306   108.74436646   191.42929813
 H     37  36  35     1.102874638214   108.48865677    55.76808907
 H     37  36  35     1.104269974993   110.19894969   300.52868559
 H     38  37  36     1.104190209947   109.52174561    59.81625453
 H     38  37  36     1.104353047671   109.37079969   304.12619099
 H     39  38  37     1.104772981092   109.12101120    58.97159044
 H     39  38  37     1.104440375275   109.28103794   303.57684994
 H     40  39  38     1.104352285169   109.28570554    58.20046729
 H     40  39  38     1.104525104109   109.34327579   302.71822373
 H     41  40  39     1.103592804655   109.11387340    57.78014965
 H     41  40  39     1.103341389019   109.11175426   302.46948393
 H     42  41  40     1.099354624847   111.64087501   180.00599100
 H     42  41  40     1.100731558330   111.10549607   300.25663345
 H     42  41  40     1.100638081191   111.07164219    59.80808444
 H     44  18  17     0.972849611043   108.45324657   167.70239043
 H     46  14  13     1.102877959188   108.87533698    71.00393193
 H     46  14  13     1.102021004539   105.77129615   316.75941758
 H     47  46  14     1.099054995537   110.16284214   179.63038463
 H     47  46  14     1.095492788061   111.21662931   300.14197309
 H     47  46  14     1.099823332121   110.69869899    59.99723569
 H     49  11  10     1.099547635941   107.35962517    83.81885694
 H     50  49  11     1.097557716894   112.13176347    63.84047580
 H     50  49  11     1.099334650470   109.78713334   183.64249302
 H     50  49  11     1.102029632358   111.30042425   302.67775879
 H     51  49  11     1.096064782473   111.22021216   302.87189888
 H     51  49  11     1.102739178403   110.57882269    63.80094203
 H     51  49  11     1.099467562160   110.32733546   182.78147092

---------------------------
INTERNAL COORDINATES (A.U.)
---------------------------
 O      0   0   0     0.000000000000     0.00000000     0.00000000
 C      1   0   0     2.325087517536     0.00000000     0.00000000
 C      2   1   0     2.933286489314   122.08392386     0.00000000
 C      3   2   1     2.892451023293   111.90454086    18.66181581
 C      4   3   2     2.902708178464   103.54355232   272.62154855
 C      5   4   3     2.895518403539   103.77267211   322.11048329
 N      6   5   4     2.792943636475   103.47315919    29.01735237
 C      7   6   5     2.544804056989   126.40174186   175.00968301
 O      8   7   6     2.361847752357   122.36685957   181.40721075
 N      2   1   3     2.565771923305   124.12892960   180.37889711
 C     10   2   1     2.766150352301   122.40264878     7.71974033
 C     11  10   2     2.932002035575   110.37120141    58.67271885
 N     12  11  10     2.589134785689   113.41217860    38.43317656
 C     13  12  11     2.741739052425   122.81803963   182.89561623
 C     14  13  12     2.912776764966   112.70065695   259.40996221
 N     15  14  13     2.581241001977   115.41862035   357.71702593
 C     16  15  14     2.745903270669   120.85080872   178.99716089
 C     17  16  15     2.886601586478   114.28416182   165.43906635
 C     18  17  16     2.944084782922   119.24828894   311.61443463
 C     19  18  17     2.937210803987   115.11872300   310.68227376
 N     20  19  18     2.575603587305   113.79050039    71.93050251
 C     21  20  19     2.757441105021   123.37662630   187.13699754
 C     22  21  20     2.911372143952   111.22419050   226.07286315
 N     23  22  21     2.570610970129   115.27994250    18.46522640
 C     24  23  22     2.738817134595   121.87210932   186.71154825
 C     25  24  23     2.907127961661   112.40180505   270.25495286
 O     23  22  21     2.326073938032   121.99228905   199.03136498
 C     22  21  20     2.900471352965   111.70281442   102.61971806
 C     28  22  21     2.899870409321   114.54389172   294.00007393
 C     29  28  22     2.894904385630   112.21098714   293.29660675
 C     29  28  22     2.896262779833   109.45074921   168.79063959
 O     20  19  18     2.320108681094   121.55309534   248.92778813
 C     19  18  17     2.904688682189   117.00663678    80.14947827
 C     33  19  18     2.859132255757   114.05372044   155.90050354
 C     34  33  19     2.883897503208   115.06840522   177.98761799
 C     35  34  33     2.899849012574   112.96048271   197.98880849
 C     36  35  34     2.895483305599   113.16705970    70.60264110
 C     37  36  35     2.889724587419   113.68510458   178.34605751
 C     38  37  36     2.891647456395   113.09668042   182.05877871
 C     39  38  37     2.890788359943   113.81045301   181.11260569
 C     40  39  38     2.893172474098   113.49036447   180.42771942
 C     41  40  39     2.890791521672   113.15304426   180.11815853
 O     33  19  18     2.313822207217   123.92636082   333.81466847
 O     18  17  16     2.710756707999   107.17855729    77.71411249
 O     15  14  13     2.328466899565   122.09167011   180.63420874
 C     14  13  12     2.917910271803   109.48939286   134.26447187
 C     46  14  13     2.885493427681   115.44706285   195.09384099
 O     12  11  10     2.315978008566   123.76871029   215.53297570
 C     11  10   2     2.920671387715   114.72896240   290.78012119
 C     49  11  10     2.893235861972   111.61212216   324.47461621
 C     49  11  10     2.899062049997   109.56835213   201.79396616
 H      3   2   1     2.077586662192   109.38365326   145.21952913
 H      4   3   2     2.078591962567   109.57678684   154.13928575
 H      4   3   2     2.070111320448   111.27271195    33.49753785
 H      5   4   3     2.073784413193   109.03687228    79.41985427
 H      5   4   3     2.072815022778   113.24354064   200.64005554
 H      6   5   4     2.074912728602   112.72678346   148.56192402
 H      6   5   4     2.082096505976   111.65370924   270.80914722
[...]
freq.      78.68  E(vib)   ...       0.49 
freq.      83.66  E(vib)   ...       0.48 
freq.      89.98  E(vib)   ...       0.47 
freq.      91.89  E(vib)   ...       0.47 
freq.      92.15  E(vib)   ...       0.47 
freq.      97.22  E(vib)   ...       0.46 
freq.     109.62  E(vib)   ...       0.45 
freq.     112.34  E(vib)   ...       0.45 
freq.     114.61  E(vib)   ...       0.44 
freq.     118.09  E(vib)   ...       0.44 
freq.     125.74  E(vib)   ...       0.43 
freq.     132.80  E(vib)   ...       0.42 
freq.     136.03  E(vib)   ...       0.42 
freq.     140.97  E(vib)   ...       0.41 
freq.     146.69  E(vib)   ...       0.41 
freq.     147.62  E(vib)   ...       0.41 
freq.     157.31  E(vib)   ...       0.40 
freq.     174.13  E(vib)   ...       0.38 
freq.     180.37  E(vib)   ...       0.37 
freq.     188.65  E(vib)   ...       0.36 
freq.     196.91  E(vib)   ...       0.35 
freq.     197.87  E(vib)   ...       0.35 
freq.     203.49  E(vib)   ...       0.35 
freq.     214.13  E(vib)   ...       0.34 
freq.     216.86  E(vib)   ...       0.34 
freq.     218.50  E(vib)   ...       0.33 
freq.     222.88  E(vib)   ...       0.33 
freq.     227.91  E(vib)   ...       0.33 
freq.     229.58  E(vib)   ...       0.32 
freq.     232.70  E(vib)   ...       0.32 
freq.     233.66  E(vib)   ...       0.32 
freq.     236.99  E(vib)   ...       0.32 
freq.     237.29  E(vib)   ...       0.32 
freq.     240.03  E(vib)   ...       0.31 
freq.     246.29  E(vib)   ...       0.31 
freq.     251.81  E(vib)   ...       0.30 
freq.     256.92  E(vib)   ...       0.30 
freq.     264.23  E(vib)   ...       0.29 
freq.     268.54  E(vib)   ...       0.29 
freq.     289.22  E(vib)   ...       0.27 
freq.     293.35  E(vib)   ...       0.27 
freq.     309.78  E(vib)   ...       0.26 
freq.     314.05  E(vib)   ...       0.25 
freq.     315.91  E(vib)   ...       0.25 
freq.     319.91  E(vib)   ...       0.25 
freq.     332.10  E(vib)   ...       0.24 
freq.     336.42  E(vib)   ...       0.24 
freq.     349.25  E(vib)   ...       0.23 
freq.     354.79  E(vib)   ...       0.22 
freq.     358.15  E(vib)   ...       0.22 
freq.     367.18  E(vib)   ...       0.22 
freq.     374.48  E(vib)   ...       0.21 
freq.     391.72  E(vib)   ...       0.20 
freq.     392.74  E(vib)   ...       0.20 
freq.     398.39  E(vib)   ...       0.20 
freq.     399.30  E(vib)   ...       0.19 
freq.     410.18  E(vib)   ...       0.19 
freq.     438.25  E(vib)   ...       0.17 
freq.     453.64  E(vib)   ...       0.16 
freq.     459.71  E(vib)   ...       0.16 
freq.     461.49  E(vib)   ...       0.16 
freq.     464.78  E(vib)   ...       0.16 
freq.     469.27  E(vib)   ...       0.16 
freq.     487.16  E(vib)   ...       0.15 
freq.     494.23  E(vib)   ...       0.14 
freq.     502.19  E(vib)   ...       0.14 
freq.     524.07  E(vib)   ...       0.13 
freq.     532.65  E(vib)   ...       0.13 
freq.     558.09  E(vib)   ...       0.12 
freq.     567.19  E(vib)   ...       0.11 
freq.     574.61  E(vib)   ...       0.11 
freq.     584.89  E(vib)   ...       0.11 
freq.     598.87  E(vib)   ...       0.10 
freq.     603.37  E(vib)   ...       0.10 
freq.     630.86  E(vib)   ...       0.09 
freq.     640.51  E(vib)   ...       0.09 
freq.     665.96  E(vib)   ...       0.08 
freq.     674.19  E(vib)   ...       0.08 
freq.     684.56  E(vib)   ...       0.07 
freq.     687.97  E(vib)   ...       0.07 
freq.     711.50  E(vib)   ...       0.07 
freq.     712.58  E(vib)   ...       0.07 
freq.     715.70  E(vib)   ...       0.07 
freq.     721.55  E(vib)   ...       0.07 
freq.     723.68  E(vib)   ...       0.06 
freq.     729.49  E(vib)   ...       0.06 
freq.     739.39  E(vib)   ...       0.06 
freq.     747.35  E(vib)   ...       0.06 
freq.     759.19  E(vib)   ...       0.06 
freq.     768.06  E(vib)   ...       0.06 
freq.     776.00  E(vib)   ...       0.05 
freq.     776.97  E(vib)   ...       0.05 
freq.     792.02  E(vib)   ...       0.05 
freq.     801.90  E(vib)   ...       0.05 
freq.     808.83  E(vib)   ...       0.05 
freq.     818.28  E(vib)   ...       0.05 
freq.     826.70  E(vib)   ...       0.04 
freq.     840.37  E(vib)   ...       0.04 
freq.     850.33  E(vib)   ...       0.04 
freq.     853.01  E(vib)   ...       0.04 
freq.     869.97  E(vib)   ...       0.04 
freq.     871.93  E(vib)   ...       0.04 
freq.     875.52  E(vib)   ...       0.04 
freq.     877.16  E(vib)   ...       0.04 
freq.     884.15  E(vib)   ...       0.04 
freq.     888.45  E(vib)   ...       0.04 
freq.     894.09  E(vib)   ...       0.03 
freq.     902.49  E(vib)   ...       0.03 
freq.     904.72  E(vib)   ...       0.03 
freq.     904.81  E(vib)   ...       0.03 
freq.     907.75  E(vib)   ...       0.03 
freq.     912.41  E(vib)   ...       0.03 
freq.     927.75  E(vib)   ...       0.03 
freq.     930.24  E(vib)   ...       0.03 
freq.     936.87  E(vib)   ...       0.03 
freq.     938.34  E(vib)   ...       0.03 
freq.     942.06  E(vib)   ...       0.03 
freq.     949.62  E(vib)   ...       0.03 
freq.     951.20  E(vib)   ...       0.03 
freq.     953.81  E(vib)   ...       0.03 
freq.     956.62  E(vib)   ...       0.03 
freq.     974.01  E(vib)   ...       0.03 
freq.     978.69  E(vib)   ...       0.03 
freq.     985.85  E(vib)   ...       0.02 
freq.     992.25  E(vib)   ...       0.02 
freq.    1000.05  E(vib)   ...       0.02 
freq.    1012.38  E(vib)   ...       0.02 
freq.    1027.30  E(vib)   ...       0.02 
freq.    1028.64  E(vib)   ...       0.02 
freq.    1031.34  E(vib)   ...       0.02 
freq.    1036.20  E(vib)   ...       0.02 
freq.    1038.14  E(vib)   ...       0.02 
freq.    1044.18  E(vib)   ...       0.02 
freq.    1047.94  E(vib)   ...       0.02 
freq.    1052.08  E(vib)   ...       0.02 
freq.    1055.80  E(vib)   ...       0.02 
freq.    1058.26  E(vib)   ...       0.02 
freq.    1060.28  E(vib)   ...       0.02 
freq.    1065.21  E(vib)   ...       0.02 
freq.    1075.97  E(vib)   ...       0.02 
freq.    1077.40  E(vib)   ...       0.02 
freq.    1081.36  E(vib)   ...       0.02 
freq.    1100.20  E(vib)   ...       0.02 
freq.    1104.04  E(vib)   ...       0.02 
freq.    1108.41  E(vib)   ...       0.02 
freq.    1112.23  E(vib)   ...       0.01 
freq.    1113.78  E(vib)   ...       0.01 
freq.    1117.53  E(vib)   ...       0.01 
freq.    1123.73  E(vib)   ...       0.01 
freq.    1129.25  E(vib)   ...       0.01 
freq.    1136.16  E(vib)   ...       0.01 
freq.    1137.61  E(vib)   ...       0.01 
freq.    1144.37  E(vib)   ...       0.01 
freq.    1153.34  E(vib)   ...       0.01 
freq.    1155.67  E(vib)   ...       0.01 
freq.    1160.68  E(vib)   ...       0.01 
freq.    1161.04  E(vib)   ...       0.01 
freq.    1168.09  E(vib)   ...       0.01 
freq.    1173.35  E(vib)   ...       0.01 
freq.    1177.27  E(vib)   ...       0.01 
freq.    1183.13  E(vib)   ...       0.01 
freq.    1185.67  E(vib)   ...       0.01 
freq.    1190.13  E(vib)   ...       0.01 
freq.    1210.74  E(vib)   ...       0.01 
freq.    1212.22  E(vib)   ...       0.01 
freq.    1213.72  E(vib)   ...       0.01 
freq.    1222.51  E(vib)   ...       0.01 
freq.    1224.36  E(vib)   ...       0.01 
freq.    1229.89  E(vib)   ...       0.01 
freq.    1232.50  E(vib)   ...       0.01 
freq.    1233.14  E(vib)   ...       0.01 
freq.    1238.09  E(vib)   ...       0.01 
freq.    1242.00  E(vib)   ...       0.01 
freq.    1250.90  E(vib)   ...       0.01 
freq.    1255.71  E(vib)   ...       0.01 
freq.    1257.16  E(vib)   ...       0.01 
freq.    1263.51  E(vib)   ...       0.01 
freq.    1267.40  E(vib)   ...       0.01 
freq.    1276.93  E(vib)   ...       0.01 
freq.    1278.82  E(vib)   ...       0.01 
freq.    1283.19  E(vib)   ...       0.01 
freq.    1284.03  E(vib)   ...       0.01 
freq.    1285.77  E(vib)   ...       0.01 
freq.    1287.61  E(vib)   ...       0.01 
freq.    1292.92  E(vib)   ...       0.01 
freq.    1294.26  E(vib)   ...       0.01 
freq.    1294.47  E(vib)   ...       0.01 
freq.    1298.48  E(vib)   ...       0.01 
freq.    1303.54  E(vib)   ...       0.01 
freq.    1305.31  E(vib)   ...       0.01 
freq.    1306.07  E(vib)   ...       0.01 
freq.    1308.78  E(vib)   ...       0.01 
freq.    1314.99  E(vib)   ...       0.01 
freq.    1317.63  E(vib)   ...       0.01 
freq.    1320.50  E(vib)   ...       0.01 
freq.    1322.63  E(vib)   ...       0.01 
freq.    1324.18  E(vib)   ...       0.01 
freq.    1325.33  E(vib)   ...       0.01 
freq.    1327.07  E(vib)   ...       0.01 
freq.    1330.16  E(vib)   ...       0.01 
freq.    1338.57  E(vib)   ...       0.01 
freq.    1340.78  E(vib)   ...       0.01 
freq.    1344.97  E(vib)   ...       0.01 
freq.    1345.58  E(vib)   ...       0.01 
freq.    1347.32  E(vib)   ...       0.01 
freq.    1348.63  E(vib)   ...       0.01 
freq.    1351.51  E(vib)   ...       0.01 
freq.    1352.15  E(vib)   ...       0.01 
freq.    1354.88  E(vib)   ...       0.01 
freq.    1364.27  E(vib)   ...       0.01 
freq.    1365.21  E(vib)   ...       0.01 
freq.    1367.32  E(vib)   ...       0.01 
freq.    1373.90  E(vib)   ...       0.01 
freq.    1387.37  E(vib)   ...       0.00 
freq.    1395.43  E(vib)   ...       0.00 
freq.    1422.44  E(vib)   ...       0.00 
freq.    1429.28  E(vib)   ...       0.00 
freq.    1431.74  E(vib)   ...       0.00 
freq.    1433.63  E(vib)   ...       0.00 
freq.    1434.48  E(vib)   ...       0.00 
freq.    1434.92  E(vib)   ...       0.00 
freq.    1435.62  E(vib)   ...       0.00 
freq.    1437.99  E(vib)   ...       0.00 
freq.    1440.87  E(vib)   ...       0.00 
freq.    1442.34  E(vib)   ...       0.00 
freq.    1442.87  E(vib)   ...       0.00 
freq.    1444.77  E(vib)   ...       0.00 
freq.    1445.26  E(vib)   ...       0.00 
freq.    1446.25  E(vib)   ...       0.00 
freq.    1446.67  E(vib)   ...       0.00 
freq.    1447.60  E(vib)   ...       0.00 
freq.    1448.27  E(vib)   ...       0.00 
freq.    1451.02  E(vib)   ...       0.00 
freq.    1451.15  E(vib)   ...       0.00 
freq.    1451.28  E(vib)   ...       0.00 
freq.    1451.52  E(vib)   ...       0.00 
freq.    1456.86  E(vib)   ...       0.00 
freq.    1459.23  E(vib)   ...       0.00 
freq.    1462.34  E(vib)   ...       0.00 
freq.    1464.22  E(vib)   ...       0.00 
freq.    1465.22  E(vib)   ...       0.00 
freq.    1466.76  E(vib)   ...       0.00 
freq.    1467.30  E(vib)   ...       0.00 
freq.    1467.96  E(vib)   ...       0.00 
freq.    1468.63  E(vib)   ...       0.00 
freq.    1481.67  E(vib)   ...       0.00 
freq.    1508.87  E(vib)   ...       0.00 
freq.    1519.35  E(vib)   ...       0.00 
freq.    1606.31  E(vib)   ...       0.00 
freq.    1667.58  E(vib)   ...       0.00 
freq.    1676.36  E(vib)   ...       0.00 
freq.    1683.37  E(vib)   ...       0.00 
freq.    1687.40  E(vib)   ...       0.00 
freq.    1701.18  E(vib)   ...       0.00 
freq.    1704.05  E(vib)   ...       0.00 
freq.    2910.39  E(vib)   ...       0.00 
freq.    2922.28  E(vib)   ...       0.00 
freq.    2923.55  E(vib)   ...       0.00 
freq.    2926.95  E(vib)   ...       0.00 
freq.    2930.92  E(vib)   ...       0.00 
freq.    2933.42  E(vib)   ...       0.00 
freq.    2939.86  E(vib)   ...       0.00 
freq.    2940.40  E(vib)   ...       0.00 
freq.    2942.53  E(vib)   ...       0.00 
freq.    2944.29  E(vib)   ...       0.00 
freq.    2950.15  E(vib)   ...       0.00 
freq.    2950.32  E(vib)   ...       0.00 
freq.    2953.03  E(vib)   ...       0.00 
freq.    2953.08  E(vib)   ...       0.00 
freq.    2955.58  E(vib)   ...       0.00 
freq.    2956.36  E(vib)   ...       0.00 
freq.    2956.92  E(vib)   ...       0.00 
freq.    2957.50  E(vib)   ...       0.00 
freq.    2961.10  E(vib)   ...       0.00 
freq.    2961.85  E(vib)   ...       0.00 
freq.    2963.40  E(vib)   ...       0.00 
freq.    2967.92  E(vib)   ...       0.00 
freq.    2970.13  E(vib)   ...       0.00 
freq.    2970.60  E(vib)   ...       0.00 
freq.    2970.80  E(vib)   ...       0.00 
freq.    2974.14  E(vib)   ...       0.00 
freq.    2980.08  E(vib)   ...       0.00 
freq.    2981.77  E(vib)   ...       0.00 
freq.    2983.93  E(vib)   ...       0.00 
freq.    2984.07  E(vib)   ...       0.00 
freq.    2989.79  E(vib)   ...       0.00 
freq.    2992.76  E(vib)   ...       0.00 
freq.    2993.13  E(vib)   ...       0.00 
freq.    2995.79  E(vib)   ...       0.00 
freq.    2997.60  E(vib)   ...       0.00 
freq.    2999.37  E(vib)   ...       0.00 
freq.    3005.11  E(vib)   ...       0.00 
freq.    3007.28  E(vib)   ...       0.00 
freq.    3016.69  E(vib)   ...       0.00 
freq.    3016.71  E(vib)   ...       0.00 
freq.    3017.80  E(vib)   ...       0.00 
freq.    3019.53  E(vib)   ...       0.00 
freq.    3020.84  E(vib)   ...       0.00 
freq.    3021.67  E(vib)   ...       0.00 
freq.    3023.66  E(vib)   ...       0.00 
freq.    3027.23  E(vib)   ...       0.00 
freq.    3028.65  E(vib)   ...       0.00 
freq.    3033.69  E(vib)   ...       0.00 
freq.    3034.01  E(vib)   ...       0.00 
freq.    3034.43  E(vib)   ...       0.00 
freq.    3035.72  E(vib)   ...       0.00 
freq.    3044.89  E(vib)   ...       0.00 
freq.    3048.37  E(vib)   ...       0.00 
freq.    3056.68  E(vib)   ...       0.00 
freq.    3065.32  E(vib)   ...       0.00 
freq.    3065.89  E(vib)   ...       0.00 
freq.    3066.94  E(vib)   ...       0.00 
freq.    3071.81  E(vib)   ...       0.00 
freq.    3295.64  E(vib)   ...       0.00 
freq.    3363.77  E(vib)   ...       0.00 
freq.    3406.65  E(vib)   ...       0.00 
freq.    3475.28  E(vib)   ...       0.00 
freq.    3479.26  E(vib)   ...       0.00 
freq.    3681.57  E(vib)   ...       0.00 

------------
INNER ENERGY
------------

The inner energy is: U= E(el) + E(ZPE) + E(vib) + E(rot) + E(trans)
    E(el)   - is the total energy from the electronic structure calculation
              = E(kin-el) + E(nuc-el) + E(el-el) + E(nuc-nuc)
    E(ZPE)  - the the zero temperature vibrational energy from the frequency calculation
    E(vib)  - the the finite temperature correction to E(ZPE) due to population
              of excited vibrational states
    E(rot)  - is the rotational thermal energy
    E(trans)- is the translational thermal energy

Summary of contributions to the inner energy U:
Electronic energy                ...  -2380.08057997 Eh
Zero point energy                ...      0.97642771 Eh     612.72 kcal/mol
Thermal vibrational correction   ...      0.05531738 Eh      34.71 kcal/mol
Thermal rotational correction    ...      0.00141627 Eh       0.89 kcal/mol
Thermal translational correction ...      0.00141627 Eh       0.89 kcal/mol
-----------------------------------------------------------------------
Total thermal energy                  -2379.04600233 Eh


Summary of corrections to the electronic energy:
(perhaps to be used in another calculation)
Total thermal correction                  0.05814993 Eh      36.49 kcal/mol
Non-thermal (ZPE) correction              0.97642771 Eh     612.72 kcal/mol
-----------------------------------------------------------------------
Total correction                          1.03457763 Eh     649.21 kcal/mol


--------
ENTHALPY
--------

The enthalpy is H = U + kB*T
                kB is Boltzmann's constant
Total free energy                 ...  -2379.04600233 Eh 
Thermal Enthalpy correction       ...      0.00094421 Eh       0.59 kcal/mol
-----------------------------------------------------------------------
Total Enthalpy                    ...  -2379.04505813 Eh


Note: Only C1 symmetry has been detected, increase convergence thresholds 
      if your molecule has a higher symmetry. Symmetry factor of 1.0 is   
      used for the rotational entropy correction. 
 

Note: Rotational entropy computed according to Herzberg 
Infrared and Raman Spectra, Chapter V,1, Van Nostrand Reinhold, 1945 
Point Group:  C1, Symmetry Number:   1  
Rotational constants in cm-1:     0.001912     0.001648     0.001295 

Vibrational entropy computed according to the QRRHO of S. Grimme
Chem.Eur.J. 2012 18 9955


-------
ENTROPY
-------

The entropy contributions are T*S = T*(S(el)+S(vib)+S(rot)+S(trans))
     S(el)   - electronic entropy
     S(vib)  - vibrational entropy
     S(rot)  - rotational entropy
     S(trans)- translational entropy
The entropies will be listed as mutliplied by the temperature to get
units of energy

Electronic entropy                ...      0.00000000 Eh      0.00 kcal/mol
Vibrational entropy               ...      0.10113677 Eh     63.46 kcal/mol
Rotational entropy                ...      0.01863014 Eh     11.69 kcal/mol
Translational entropy             ...      0.02166895 Eh     13.60 kcal/mol
-----------------------------------------------------------------------
Final entropy term                ...      0.14143586 Eh     88.75 kcal/mol

In case the symmetry of your molecule has not been determined correctly
or in case you have a reason to use a different symmetry number we print 
out the resulting rotational entropy values for sn=1,12 :
 --------------------------------------------------------
|  sn= 1 | S(rot)=       0.01863014 Eh     11.69 kcal/mol|
|  sn= 2 | S(rot)=       0.01797569 Eh     11.28 kcal/mol|
|  sn= 3 | S(rot)=       0.01759285 Eh     11.04 kcal/mol|
|  sn= 4 | S(rot)=       0.01732123 Eh     10.87 kcal/mol|
|  sn= 5 | S(rot)=       0.01711054 Eh     10.74 kcal/mol|
|  sn= 6 | S(rot)=       0.01693840 Eh     10.63 kcal/mol|
|  sn= 7 | S(rot)=       0.01679285 Eh     10.54 kcal/mol|
|  sn= 8 | S(rot)=       0.01666677 Eh     10.46 kcal/mol|
|  sn= 9 | S(rot)=       0.01655557 Eh     10.39 kcal/mol|
|  sn=10 | S(rot)=       0.01645609 Eh     10.33 kcal/mol|
|  sn=11 | S(rot)=       0.01636610 Eh     10.27 kcal/mol|
|  sn=12 | S(rot)=       0.01628394 Eh     10.22 kcal/mol|
 --------------------------------------------------------


-------------------
GIBBS FREE ENERGY
-------------------

The Gibbs free energy is G = H - T*S

Total enthalpy                    ...  -2379.04505813 Eh 
Total entropy correction          ...     -0.14143586 Eh    -88.75 kcal/mol
-----------------------------------------------------------------------
Final Gibbs free energy         ...  -2379.18649399 Eh

For completeness - the Gibbs free energy minus the electronic energy
G-E(el)                           ...      0.89408598 Eh    561.05 kcal/mol

--------------------------------------------------------------------------
WARNING: No preset parameters were found for the device that Open MPI
detected:

  Local host:            eu-g1-044-3
  Device name:           mlx5_0
  Device vendor ID:      0x02c9
  Device vendor part ID: 4123

Default device parameters will be used, which may result in lower
performance.  You can edit any of the files specified by the
btl_openib_device_param_files MCA parameter to set values for your
device.

NOTE: You can turn off this warning by setting the MCA parameter
      btl_openib_warn_no_device_params_found to 0.
--------------------------------------------------------------------------
--------------------------------------------------------------------------
WARNING: There was an error initializing an OpenFabrics device.

  Local host:   eu-g1-044-3
  Local device: mlx5_0
--------------------------------------------------------------------------

Timings for individual modules:

Sum of individual times         ...    40778.483 sec (= 679.641 min)
GTO integral calculation        ...       12.619 sec (=   0.210 min)   0.0 %
SCF iterations                  ...      439.446 sec (=   7.324 min)   1.1 %
SCF Gradient evaluation         ...       81.702 sec (=   1.362 min)   0.2 %
Geometry relaxation             ...        3.871 sec (=   0.065 min)   0.0 %
Analytical frequency calculation...    40240.845 sec (= 670.681 min)  98.7 %
                             ****ORCA TERMINATED NORMALLY****
TOTAL RUN TIME: 0 days 11 hours 19 minutes 55 seconds 479 msec
