
                                 *****************
                                 * O   R   C   A *
                                 *****************

           --- An Ab Initio, DFT and Semiempirical electronic structure package ---

                  #######################################################
                  #                        -***-                        #
                  #          Department of theory and spectroscopy      #
                  #               Directorship: Frank Neese             #
                  #        Max Planck Institute fuer Kohlenforschung    #
                  #                Kaiser Wilhelm Platz 1               #
                  #                 D-45470 Muelheim/Ruhr               #
                  #                      Germany                        #
                  #                                                     #
                  #                  All rights reserved                #
                  #                        -***-                        #
                  #######################################################


                         Program Version 4.2.0 -  RELEASE  -


 With contributions from (in alphabetic order):
   Daniel Aravena         : Magnetic Suceptibility
   Michael Atanasov       : Ab Initio Ligand Field Theory (pilot matlab implementation)
   Alexander A. Auer      : GIAO ZORA, VPT2
   Ute Becker             : Parallelization
   Giovanni Bistoni       : ED, misc. LED, open-shell LED, HFLED
   Martin Brehm           : Molecular dynamics
   Dmytro Bykov           : SCF Hessian
   Vijay G. Chilkuri      : MRCI spin determinant printing, contributions to CSF-ICE
   Dipayan Datta          : RHF DLPNO-CCSD density
   Achintya Kumar Dutta   : EOM-CC, STEOM-CC
   Dmitry Ganyushin       : Spin-Orbit,Spin-Spin,Magnetic field MRCI
   Miquel Garcia          : C-PCM Hessian, Gaussian charge scheme
   Yang Guo               : DLPNO-NEVPT2, CIM, IAO-localization
   Andreas Hansen         : Spin unrestricted coupled pair/coupled cluster methods
   Benjamin Helmich-Paris : CASSCF linear response (MC-RPA)
   Lee Huntington         : MR-EOM, pCC
   Robert Izsak           : Overlap fitted RIJCOSX, COSX-SCS-MP3, EOM
   Christian Kollmar      : KDIIS, OOCD, Brueckner-CCSD(T), CCSD density
   Simone Kossmann        : Meta GGA functionals, TD-DFT gradient, OOMP2, MP2 Hessian
   Martin Krupicka        : AUTO-CI
   Lucas Lang             : DCDCAS
   Dagmar Lenk            : GEPOL surface, SMD
   Dimitrios Liakos       : Extrapolation schemes; Compound Job, initial MDCI parallelization
   Dimitrios Manganas     : Further ROCIS development; embedding schemes
   Dimitrios Pantazis     : SARC Basis sets
   Taras Petrenko         : DFT Hessian,TD-DFT gradient, ASA, ECA, R-Raman, ABS, FL, XAS/XES, NRVS
   Peter Pinski           : DLPNO-MP2, DLPNO-MP2 Gradient
   Christoph Reimann      : Effective Core Potentials
   Marius Retegan         : Local ZFS, SOC
   Christoph Riplinger    : Optimizer, TS searches, QM/MM, DLPNO-CCSD(T), (RO)-DLPNO pert. Triples
   Tobias Risthaus        : Range-separated hybrids, TD-DFT gradient, RPA, STAB
   Michael Roemelt        : Original ROCIS implementation
   Masaaki Saitow         : Open-shell DLPNO-CCSD energy and density
   Barbara Sandhoefer     : DKH picture change effects
   Avijit Sen             : IP-ROCIS
   Kantharuban Sivalingam : CASSCF convergence, NEVPT2, FIC-MRCI
   Bernardo de Souza      : ESD, SOC TD-DFT
   Georgi Stoychev        : AutoAux, RI-MP2 NMR
   Willem Van den Heuvel  : Paramagnetic NMR
   Boris Wezisla          : Elementary symmetry handling
   Frank Wennmohs         : Technical directorship


 We gratefully acknowledge several colleagues who have allowed us to
 interface, adapt or use parts of their codes:
   Stefan Grimme, W. Hujo, H. Kruse,             : VdW corrections, initial TS optimization,
                  C. Bannwarth                     DFT functionals, gCP, sTDA/sTD-DF
   Ed Valeev, F. Pavosevic, A. Kumar             : LibInt (2-el integral package), F12 methods
   Garnet Chan, S. Sharma, J. Yang, R. Olivares  : DMRG
   Ulf Ekstrom                                   : XCFun DFT Library
   Mihaly Kallay                                 : mrcc  (arbitrary order and MRCC methods)
   Andreas Klamt, Michael Diedenhofen            : otool_cosmo (COSMO solvation model)
   Jiri Pittner, Ondrej Demel                    : Mk-CCSD
   Frank Weinhold                                : gennbo (NPA and NBO analysis)
   Christopher J. Cramer and Donald G. Truhlar   : smd solvation model
   Lars Goerigk                                  : TD-DFT with DH, B97 family of functionals
   V. Asgeirsson, H. Jonsson                     : NEB implementation
   FAccTs GmbH                                   : IRC, NEB, NEB-TS, Multilevel, MM, QM/MM, CI optimization
   S Lehtola, MJT Oliveira, MAL Marques          : LibXC Library


 Your calculation uses the libint2 library for the computation of 2-el integrals
 For citations please refer to: http://libint.valeyev.net

 Your ORCA version has been built with support for libXC version: 4.2.3
 For citations please refer to: https://tddft.org/programs/libxc/

 This ORCA versions uses:
   CBLAS   interface :  Fast vector & matrix operations
   LAPACKE interface :  Fast linear algebra routines
   SCALAPACK package :  Parallel linear algebra routines




***************************************
The coordinates will be read from file: 3.xyz
***************************************


Your calculation utilizes the atom-pairwise dispersion correction
with the Becke-Johnson damping scheme (D3BJ)
Cite in your paper:
S.Grimme, S.Ehrlich, L.Goerigk, J Comput Chem, (2011), 32, 1456–1465 
S.Grimme, J.Antony, S.Ehrlich and H.Krieg, J.Chem.Phys., 132, (2010), 154104 
   

----- Orbital basis set information -----
Your calculation utilizes the basis: def2-TZVP
   F. Weigend and R. Ahlrichs, Phys. Chem. Chem. Phys. 7, 3297 (2005).

----- AuxJ basis set information -----
Your calculation utilizes the auxiliary basis: def2/J
   F. Weigend, Phys. Chem. Chem. Phys. 8, 1057 (2006).

================================================================================
                                        WARNINGS
                       Please study these warnings very carefully!
================================================================================


WARNING: Geometry Optimization
  ===> : Switching off AutoStart
         For restart on a previous wavefunction, please use MOREAD

INFO   : the flag for use of LIBINT has been found!

================================================================================
                                       INPUT FILE
================================================================================
NAME = 3.inp
|  1> !RI BP86 def2-tzvp def2/J D3BJ VeryTightSCF VeryTightOpt Grid5 FinalGrid6 freq
|  2> %maxcore 4000
|  3> %pal nprocs 24
|  4> end
|  5> * xyzfile 0 1 3.xyz 
|  6> 
|  7>                          ****END OF INPUT****
================================================================================

                       *****************************
                       * Geometry Optimization Run *
                       *****************************

Geometry optimization settings:
Update method            Update   .... BFGS
Choice of coordinates    CoordSys .... Z-matrix Internals
Initial Hessian          InHess   .... Almoef's Model

Convergence Tolerances:
Energy Change            TolE     ....  2.0000e-07 Eh
Max. Gradient            TolMAXG  ....  3.0000e-05 Eh/bohr
RMS Gradient             TolRMSG  ....  8.0000e-06 Eh/bohr
Max. Displacement        TolMAXD  ....  2.0000e-04 bohr
RMS Displacement         TolRMSD  ....  1.0000e-04 bohr
Strict Convergence                ....  False
------------------------------------------------------------------------------
                        ORCA OPTIMIZATION COORDINATE SETUP
------------------------------------------------------------------------------

The optimization will be done in new redundant internal coordinates
Making redundant internal coordinates   ...  (new redundants) done
Evaluating the initial hessian          ...  (Almloef) done
Evaluating the coordinates              ...  done
Calculating the B-matrix                .... done
Calculating the G-matrix                .... done
Diagonalizing the G-matrix              .... done
Small eigenvalue found = 5.424e-04
Small eigenvalue found = 1.018e-03
Small eigenvalue found = 3.082e-03
Small eigenvalue found = 5.106e-03
Small eigenvalue found = 5.755e-03
Small eigenvalue found = 6.968e-03
Small eigenvalue found = 7.907e-03
Small eigenvalue found = 8.547e-03
Small eigenvalue found = 8.779e-03
Small eigenvalue found = 1.092e-02
Small eigenvalue found = 1.481e-02
Small eigenvalue found = 1.514e-02
Small eigenvalue found = 1.706e-02
Small eigenvalue found = 1.789e-02
Small eigenvalue found = 2.022e-02
Small eigenvalue found = 2.134e-02
Small eigenvalue found = 2.471e-02
Small eigenvalue found = 2.713e-02
Small eigenvalue found = 2.994e-02
The first mode is                       ....  327
The number of degrees of freedom        ....  339

    -----------------------------------------------------------------
                    Redundant Internal Coordinates


    -----------------------------------------------------------------
         Definition                    Initial Value    Approx d2E/dq
    -----------------------------------------------------------------
      1. B(C   1,O   0)                  1.2305         1.005432   
      2. B(C   2,C   1)                  1.5333         0.369079   
      3. B(C   3,C   2)                  1.5566         0.338775   
      4. B(C   4,C   3)                  1.5368         0.364365   
      5. B(C   5,C   4)                  1.5302         0.373322   
      6. B(N   6,C   5)                  1.4696         0.417766   
      7. B(N   6,C   2)                  1.4674         0.421091   
      8. B(C   7,N   6)                  1.3618         0.620592   
      9. B(O   8,C   7)                  1.2422         0.963178   
     10. B(N   9,C   1)                  1.3675         0.607926   
     11. B(C  10,N   9)                  1.4532         0.443584   
     12. B(C  11,C  10)                  1.5338         0.368430   
     13. B(N  12,C  11)                  1.3622         0.619831   
     14. B(C  13,N  12)                  1.4679         0.420268   
     15. B(C  14,C  13)                  1.5506         0.346315   
     16. B(N  15,C  14)                  1.3588         0.627527   
     17. B(C  16,N  15)                  1.4544         0.441714   
     18. B(C  17,C  16)                  1.5359         0.365556   
     19. B(C  18,C  17)                  1.5325         0.370173   
     20. B(C  19,C  18)                  1.5341         0.368040   
     21. B(N  20,C  19)                  1.3657         0.611938   
     22. B(C  21,N  20)                  1.4556         0.439811   
     23. B(C  22,C  21)                  1.5455         0.352904   
     24. B(N  23,C  22)                  1.3656         0.612027   
     25. B(C  24,N  23)                  1.4621         0.429401   
     26. B(C  24,C   7)                  1.5324         0.370334   
     27. B(C  25,C  24)                  1.5261         0.378965   
     28. B(O  26,C  22)                  1.2310         1.003510   
     29. B(C  27,C  21)                  1.5361         0.365334   
     30. B(C  28,C  27)                  1.5355         0.366119   
     31. B(C  29,C  28)                  1.5315         0.371457   
     32. B(C  30,C  28)                  1.5332         0.369228   
     33. B(O  31,C  19)                  1.2308         1.004173   
     34. B(C  32,C  18)                  1.5350         0.366709   
     35. B(C  33,C  32)                  1.5145         0.395408   
     36. B(C  34,C  33)                  1.5425         0.356773   
     37. B(C  35,C  34)                  1.5331         0.369285   
     38. B(C  36,C  35)                  1.5316         0.371446   
     39. B(C  37,C  36)                  1.5292         0.374645   
     40. B(C  38,C  37)                  1.5298         0.373912   
     41. B(C  39,C  38)                  1.5294         0.374361   
     42. B(C  40,C  39)                  1.5309         0.372308   
     43. B(C  41,C  40)                  1.5296         0.374192   
     44. B(O  42,C  32)                  1.2185         1.050768   
     45. B(O  43,C  17)                  1.4425         0.461411   
     46. B(O  44,C  14)                  1.2295         1.009244   
     47. B(C  45,C  13)                  1.5349         0.366867   
     48. B(C  46,C  45)                  1.5267         0.378133   
     49. B(O  47,C  11)                  1.2372         0.981125   
     50. B(C  48,C  10)                  1.5512         0.345534   
     51. B(C  49,C  48)                  1.5311         0.372003   
     52. B(C  50,C  48)                  1.5293         0.374570   
     53. B(H  51,C   2)                  1.0972         0.350660   
     54. B(H  52,C   3)                  1.0953         0.353214   
     55. B(H  53,C   3)                  1.0993         0.348034   
     56. B(H  54,C   4)                  1.0974         0.350431   
     57. B(H  55,C   4)                  1.0999         0.347301   
     58. B(H  56,C   5)                  1.1039         0.342178   
     59. B(H  57,C   5)                  1.0939         0.354952   
     60. B(H  58,N   9)                  1.0181         0.420086   
     61. B(H  59,C  10)                  1.1005         0.346413   
     62. B(H  60,N  12)                  1.0145         0.425576   
     63. B(H  61,C  13)                  1.1028         0.343530   
     64. B(H  62,N  15)                  1.0165         0.422454   
     65. B(H  63,C  16)                  1.0954         0.352988   
     66. B(H  64,C  16)                  1.1003         0.346749   
     67. B(H  65,C  17)                  1.1011         0.345766   
     68. B(H  66,C  18)                  1.1001         0.347038   
     69. B(H  67,O  47)                  1.9867         0.011965   
     70. B(H  67,N  20)                  1.0236         0.411553   
     71. B(H  68,C  21)                  1.0997         0.347468   
     72. B(H  69,N  23)                  1.0287         0.404016   
     73. B(H  70,C  24)                  1.0978         0.349936   
     74. B(H  71,C  25)                  1.0968         0.351256   
     75. B(H  72,C  25)                  1.0988         0.348611   
     76. B(H  73,C  25)                  1.0962         0.352025   
     77. B(H  74,C  27)                  1.1013         0.345467   
     78. B(H  75,C  27)                  1.1028         0.343506   
     79. B(H  76,C  28)                  1.1008         0.346046   
     80. B(H  77,C  29)                  1.0980         0.349612   
     81. B(H  78,C  29)                  1.1020         0.344619   
     82. B(H  79,C  29)                  1.0996         0.347599   
     83. B(H  80,C  30)                  1.1007         0.346263   
     84. B(H  81,C  30)                  1.0995         0.347692   
     85. B(H  82,C  30)                  1.1012         0.345524   
     86. B(H  83,C  33)                  1.0982         0.349451   
     87. B(H  84,C  33)                  1.1033         0.342934   
     88. B(H  85,C  34)                  1.1003         0.346789   
     89. B(H  86,C  34)                  1.0987         0.348790   
     90. B(H  87,C  35)                  1.1029         0.343491   
     91. B(H  88,C  35)                  1.1040         0.342065   
     92. B(H  89,C  36)                  1.1035         0.342637   
     93. B(H  90,C  36)                  1.1047         0.341171   
     94. B(H  91,C  37)                  1.1044         0.341595   
     95. B(H  92,C  37)                  1.1040         0.341986   
     96. B(H  93,H  78)                  2.3212         0.000749   
     97. B(H  93,C  38)                  1.1042         0.341767   
     98. B(H  94,C  38)                  1.1047         0.341108   
     99. B(H  95,C  39)                  1.1045         0.341402   
    100. B(H  96,C  39)                  1.1044         0.341605   
    101. B(H  97,C  40)                  1.1031         0.343131   
    102. B(H  98,C  40)                  1.1034         0.342747   
    103. B(H  99,C  41)                  1.0994         0.347865   
    104. B(H 100,C  41)                  1.1006         0.346287   
    105. B(H 101,C  41)                  1.1008         0.346138   
    106. B(H 102,O   8)                  1.9087         0.015938   
    107. B(H 102,O  43)                  0.9859         0.472850   
    108. B(H 103,C  45)                  1.0977         0.350021   
    109. B(H 104,H  85)                  2.4560         0.000456   
    110. B(H 104,C  45)                  1.0988         0.348700   
    111. B(H 105,C  46)                  1.0985         0.349001   
    112. B(H 106,C  46)                  1.1010         0.345833   
    113. B(H 107,C  46)                  1.0997         0.347494   
    114. B(H 108,C  48)                  1.1039         0.342171   
    115. B(H 109,C  49)                  1.1002         0.346893   
    116. B(H 110,C  49)                  1.0986         0.348922   
    117. B(H 111,C  49)                  1.1002         0.346797   
    118. B(H 112,C  50)                  1.0998         0.347391   
    119. B(H 113,H  90)                  4.1690         0.000001   
    120. B(H 113,C  50)                  1.0972         0.350652   
    121. B(H 114,H  80)                  3.1061         0.000042   
    122. B(H 114,C  50)                  1.0992         0.348119   
    123. A(O   0,C   1,N   9)          123.4599         0.465977   
    124. A(C   2,C   1,N   9)          116.5448         0.391965   
    125. A(O   0,C   1,C   2)          119.7190         0.428507   
    126. A(C   1,C   2,H  51)          107.0898         0.322268   
    127. A(N   6,C   2,H  51)          109.5804         0.327356   
    128. A(C   1,C   2,N   6)          114.6188         0.367803   
    129. A(C   1,C   2,C   3)          108.5621         0.356612   
    130. A(C   3,C   2,H  51)          112.8450         0.317788   
    131. A(C   3,C   2,N   6)          104.2778         0.362449   
    132. A(C   4,C   3,H  53)          110.3919         0.321195   
    133. A(C   4,C   3,H  52)          113.4394         0.321973   
    134. A(C   2,C   3,C   4)          104.8505         0.355834   
    135. A(C   2,C   3,H  53)          109.6563         0.317399   
    136. A(C   2,C   3,H  52)          111.3041         0.318164   
    137. A(H  52,C   3,H  53)          107.1999         0.288415   
    138. A(H  54,C   4,H  55)          108.1126         0.287963   
    139. A(C   3,C   4,H  55)          110.6711         0.321084   
    140. A(C   3,C   4,C   5)          103.3394         0.361764   
    141. A(C   3,C   4,H  54)          112.7753         0.321556   
    142. A(C   5,C   4,H  55)          109.3017         0.322363   
    143. A(C   5,C   4,H  54)          112.5822         0.322838   
    144. A(H  56,C   5,H  57)          107.7088         0.287872   
    145. A(C   4,C   5,N   6)          102.1880         0.368024   
    146. A(C   4,C   5,H  56)          111.4067         0.321580   
    147. A(N   6,C   5,H  57)          111.3758         0.327585   
    148. A(N   6,C   5,H  56)          110.4626         0.325614   
    149. A(C   4,C   5,H  57)          113.6796         0.323517   
    150. A(C   5,N   6,C   7)          128.1345         0.399464   
    151. A(C   2,N   6,C   7)          120.2430         0.400022   
    152. A(C   2,N   6,C   5)          111.2278         0.373374   
    153. A(O   8,C   7,C  24)          121.9357         0.425482   
    154. A(N   6,C   7,O   8)          120.9254         0.464077   
    155. A(N   6,C   7,C  24)          116.7568         0.393617   
    156. A(C   1,N   9,C  10)          120.2154         0.402241   
    157. A(C  10,N   9,H  58)          119.9826         0.337317   
    158. A(C   1,N   9,H  58)          119.7166         0.355678   
    159. A(C  48,C  10,H  59)          107.1015         0.318181   
    160. A(C  11,C  10,H  59)          109.0415         0.321533   
    161. A(N   9,C  10,C  11)          111.0466         0.370994   
    162. A(N   9,C  10,C  48)          112.2104         0.366929   
    163. A(N   9,C  10,H  59)          103.9694         0.329516   
    164. A(C  11,C  10,C  48)          112.9524         0.357704   
    165. A(N  12,C  11,O  47)          123.1511         0.465543   
    166. A(C  10,C  11,O  47)          122.9920         0.426497   
    167. A(C  10,C  11,N  12)          113.8569         0.393177   
    168. A(C  13,N  12,H  60)          117.8070         0.335023   
    169. A(C  11,N  12,C  13)          125.5170         0.399798   
    170. A(C  11,N  12,H  60)          116.6082         0.357640   
    171. A(C  14,C  13,C  45)          111.3111         0.357583   
    172. A(N  12,C  13,H  61)          105.1731         0.326145   
    173. A(C  14,C  13,H  61)          104.9150         0.317865   
    174. A(N  12,C  13,C  14)          113.7164         0.363693   
    175. A(C  45,C  13,H  61)          107.9868         0.320870   
    176. A(N  12,C  13,C  45)          113.0411         0.367301   
    177. A(C  13,C  14,N  15)          115.5327         0.389784   
    178. A(N  15,C  14,O  44)          124.2943         0.469019   
    179. A(C  13,C  14,O  44)          120.0702         0.423937   
    180. A(C  14,N  15,H  62)          117.1016         0.357942   
    181. A(C  16,N  15,H  62)          115.4429         0.337396   
    182. A(C  14,N  15,C  16)          122.1599         0.404198   
    183. A(H  63,C  16,H  64)          108.8606         0.288219   
    184. A(C  17,C  16,H  64)          109.4320         0.321172   
    185. A(N  15,C  16,H  63)          108.9010         0.330311   
    186. A(C  17,C  16,H  63)          110.5962         0.322111   
    187. A(N  15,C  16,C  17)          110.0262         0.370226   
    188. A(N  15,C  16,H  64)          108.9932         0.329339   
    189. A(O  43,C  17,H  65)          111.1487         0.331568   
    190. A(C  18,C  17,H  65)          109.0661         0.321683   
    191. A(C  16,C  17,H  65)          109.8828         0.321023   
    192. A(C  16,C  17,C  18)          112.1996         0.361443   
    193. A(C  18,C  17,O  43)          105.5520         0.373824   
    194. A(C  16,C  17,O  43)          108.9367         0.373017   
    195. A(C  19,C  18,H  66)          108.2132         0.321572   
    196. A(C  17,C  18,H  66)          108.1872         0.321877   
    197. A(C  17,C  18,C  32)          113.5557         0.361637   
    198. A(C  17,C  18,C  19)          109.3251         0.361861   
    199. A(C  19,C  18,C  32)          108.8965         0.361281   
    200. A(C  32,C  18,H  66)          108.5312         0.321382   
    201. A(C  18,C  19,N  20)          114.5410         0.392223   
    202. A(N  20,C  19,O  31)          123.3191         0.466431   
    203. A(C  18,C  19,O  31)          122.1227         0.428194   
    204. A(C  19,N  20,H  67)          118.0725         0.354838   
    205. A(C  19,N  20,C  21)          121.1622         0.402102   
    206. A(C  21,N  20,H  67)          118.5062         0.335689   
    207. A(C  27,C  21,H  68)          110.4012         0.321249   
    208. A(C  22,C  21,H  68)          104.5570         0.319436   
    209. A(N  20,C  21,H  68)          107.3979         0.329217   
    210. A(N  20,C  21,C  22)          112.7158         0.367720   
    211. A(C  22,C  21,C  27)          112.7187         0.358476   
    212. A(N  20,C  21,C  27)          108.8571         0.369913   
    213. A(C  21,C  22,N  23)          114.7227         0.389365   
    214. A(C  21,C  22,O  26)          121.7290         0.424935   
    215. A(N  23,C  22,O  26)          123.5470         0.466387   
    216. A(C  22,N  23,C  24)          121.5396         0.400420   
    217. A(C  24,N  23,H  69)          113.8533         0.333331   
    218. A(C  22,N  23,H  69)          118.4753         0.353737   
    219. A(C  25,C  24,H  70)          109.3732         0.323558   
    220. A(N  23,C  24,H  70)          106.3825         0.328301   
    221. A(C   7,C  24,H  70)          111.8621         0.322338   
    222. A(N  23,C  24,C  25)          112.2281         0.370720   
    223. A(C   7,C  24,N  23)          104.0582         0.369254   
    224. A(C   7,C  24,C  25)          112.6960         0.363700   
    225. A(H  71,C  25,H  73)          108.5153         0.288679   
    226. A(C  24,C  25,H  73)          111.0880         0.323874   
    227. A(H  71,C  25,H  72)          109.0665         0.288239   
    228. A(C  24,C  25,H  72)          110.6235         0.323357   
    229. A(C  24,C  25,H  71)          109.1585         0.323758   
    230. A(H  72,C  25,H  73)          108.3393         0.288338   
    231. A(C  28,C  27,H  75)          108.7985         0.320759   
    232. A(C  21,C  27,C  28)          117.0735         0.360727   
    233. A(H  74,C  27,H  75)          106.3658         0.286829   
    234. A(C  21,C  27,H  75)          106.7646         0.320647   
    235. A(C  28,C  27,H  74)          109.0390         0.321058   
    236. A(C  21,C  27,H  74)          108.2849         0.320946   
    237. A(C  29,C  28,C  30)          111.1118         0.362274   
    238. A(C  27,C  28,C  30)          108.9127         0.361380   
    239. A(C  27,C  28,C  29)          112.0593         0.361751   
    240. A(C  30,C  28,H  76)          108.7483         0.321591   
    241. A(C  29,C  28,H  76)          107.7011         0.321908   
    242. A(C  27,C  28,H  76)          108.2085         0.321146   
    243. A(C  28,C  29,H  79)          110.6966         0.322144   
    244. A(H  78,C  29,H  79)          107.6435         0.287250   
    245. A(H  77,C  29,H  79)          107.4719         0.287897   
    246. A(H  77,C  29,H  78)          108.4736         0.287509   
    247. A(C  28,C  29,H  78)          110.9377         0.321690   
    248. A(C  28,C  29,H  77)          111.4648         0.322449   
    249. A(H  81,C  30,H  82)          107.6349         0.287380   
    250. A(H  80,C  30,H  82)          107.7441         0.287195   
    251. A(C  28,C  30,H  82)          110.8618         0.321512   
    252. A(H  80,C  30,H  81)          107.9479         0.287476   
    253. A(C  28,C  30,H  81)          111.1189         0.321841   
    254. A(C  28,C  30,H  80)          111.3711         0.321624   
    255. A(C  33,C  32,O  42)          123.1199         0.437303   
    256. A(C  18,C  32,O  42)          121.9237         0.431413   
    257. A(C  18,C  32,C  33)          114.9367         0.365737   
    258. A(C  32,C  33,C  34)          114.0290         0.364022   
    259. A(C  34,C  33,H  84)          109.4073         0.319320   
    260. A(H  83,C  33,H  84)          107.7029         0.287269   
    261. A(C  32,C  33,H  84)          106.7714         0.324743   
    262. A(C  34,C  33,H  83)          110.6904         0.320304   
    263. A(C  32,C  33,H  83)          107.9871         0.325750   
    264. A(C  33,C  34,C  35)          112.8403         0.359800   
    265. A(H  85,C  34,H  86)          105.5007         0.287686   
    266. A(C  35,C  34,H  86)          111.0624         0.322015   
    267. A(C  33,C  34,H  86)          108.7278         0.320205   
    268. A(C  35,C  34,H  85)          108.2790         0.321712   
    269. A(C  33,C  34,H  85)          110.1771         0.319904   
    270. A(C  34,C  35,C  36)          112.9654         0.362282   
    271. A(H  87,C  35,H  88)          106.0920         0.286385   
    272. A(C  36,C  35,H  88)          109.7330         0.321297   
    273. A(C  34,C  35,H  88)          109.8930         0.320991   
    274. A(C  36,C  35,H  87)          108.8514         0.321516   
    275. A(C  34,C  35,H  87)          109.0658         0.321209   
    276. A(C  35,C  36,C  37)          113.8100         0.363174   
    277. A(H  89,C  36,H  90)          105.5412         0.286157   
    278. A(C  37,C  36,H  90)          109.4802         0.321611   
    279. A(C  35,C  36,H  90)          108.7483         0.321160   
    280. A(C  37,C  36,H  89)          108.9376         0.321837   
    281. A(C  35,C  36,H  89)          109.9953         0.321385   
    282. A(C  36,C  37,C  38)          113.2097         0.363585   
    283. A(H  91,C  37,H  92)          105.9427         0.286127   
    284. A(C  38,C  37,H  92)          109.3023         0.321633   
    285. A(C  36,C  37,H  92)          109.2656         0.321736   
    286. A(C  38,C  37,H  91)          109.3741         0.321573   
    287. A(C  36,C  37,H  91)          109.4886         0.321676   
    288. A(C  37,C  38,C  39)          113.9077         0.363538   
    289. A(H  93,C  38,H  94)          105.7994         0.286035   
    290. A(C  39,C  38,H  94)          109.2944         0.321561   
    291. A(C  37,C  38,H  94)          109.2553         0.321498   
    292. A(C  39,C  38,H  93)          109.1160         0.321663   
    293. A(C  37,C  38,H  93)          109.1520         0.321600   
    294. A(C  38,C  39,C  40)          113.4569         0.363271   
    295. A(H  95,C  39,H  96)          105.8970         0.286052   
    296. A(C  40,C  39,H  96)          109.2638         0.321349   
    297. A(C  38,C  39,H  96)          109.2295         0.321638   
    298. A(C  40,C  39,H  95)          109.3168         0.321317   
    299. A(C  38,C  39,H  95)          109.3994         0.321607   
    300. A(C  39,C  40,C  41)          113.1928         0.363243   
    301. A(H  97,C  40,H  98)          105.8381         0.286427   
    302. A(C  41,C  40,H  98)          109.5865         0.321790   
    303. A(C  39,C  40,H  98)          109.1338         0.321524   
    304. A(C  41,C  40,H  97)          109.6580         0.321849   
    305. A(C  39,C  40,H  97)          109.1662         0.321583   
    306. A(H 100,C  41,H 101)          107.4587         0.287278   
    307. A(H  99,C  41,H 101)          107.7121         0.287482   
    308. A(C  40,C  41,H 101)          111.1110         0.322309   
    309. A(H  99,C  41,H 100)          107.6891         0.287501   
    310. A(C  40,C  41,H 100)          111.0608         0.322332   
    311. A(C  40,C  41,H  99)          111.6196         0.322572   
    312. A(C  17,O  43,H 102)          113.2519         0.346342   
    313. A(C  13,C  45,C  46)          112.7470         0.362980   
    314. A(C  46,C  45,H 104)          110.7924         0.323254   
    315. A(C  13,C  45,H 104)          108.6219         0.321656   
    316. A(C  46,C  45,H 103)          111.0355         0.323454   
    317. A(C  13,C  45,H 103)          106.4755         0.321855   
    318. A(H 103,C  45,H 104)          106.9024         0.288092   
    319. A(H 106,C  46,H 107)          107.7131         0.287394   
    320. A(H 105,C  46,H 107)          107.4405         0.287804   
    321. A(C  45,C  46,H 107)          111.7830         0.323070   
    322. A(H 105,C  46,H 106)          107.6100         0.287589   
    323. A(C  45,C  46,H 106)          111.2573         0.322816   
    324. A(C  45,C  46,H 105)          110.8415         0.323300   
    325. A(C  50,C  48,H 108)          108.3073         0.321754   
    326. A(C  49,C  48,H 108)          108.4086         0.321392   
    327. A(C  10,C  48,H 108)          104.1819         0.317542   
    328. A(C  49,C  48,C  50)          111.0910         0.363255   
    329. A(C  10,C  48,C  50)          113.9596         0.358711   
    330. A(C  10,C  48,C  49)          110.5098         0.358292   
    331. A(H 110,C  49,H 111)          107.4108         0.287704   
    332. A(H 109,C  49,H 111)          108.2035         0.287442   
    333. A(C  48,C  49,H 111)          110.9011         0.322100   
    334. A(H 109,C  49,H 110)          107.7892         0.287716   
    335. A(C  48,C  49,H 110)          110.6023         0.322422   
    336. A(C  48,C  49,H 109)          111.7682         0.322115   
    337. A(H 113,C  50,H 114)          108.2247         0.288098   
    338. A(H 112,C  50,H 114)          107.2715         0.287677   
    339. A(C  48,C  50,H 114)          110.1450         0.322664   
    340. A(H 112,C  50,H 113)          108.0912         0.288003   
    341. A(C  48,C  50,H 113)          110.9418         0.323048   
    342. A(C  48,C  50,H 112)          112.0151         0.322553   
    343. D(H  51,C   2,C   1,N   9)   -134.7238         0.010204   
    344. D(C   3,C   2,C   1,N   9)    103.1555         0.010204   
    345. D(N   6,C   2,C   1,N   9)    -12.9512         0.010204   
    346. D(N   6,C   2,C   1,O   0)    172.8774         0.010204   
    347. D(C   3,C   2,C   1,O   0)    -71.0159         0.010204   
    348. D(H  51,C   2,C   1,O   0)     51.1047         0.010204   
    349. D(C   4,C   3,C   2,N   6)    -12.4542         0.009299   
    350. D(H  53,C   3,C   2,H  51)   -135.0862         0.009299   
    351. D(H  53,C   3,C   2,C   1)    -16.5410         0.009299   
    352. D(C   4,C   3,C   2,H  51)    106.3918         0.009299   
    353. D(H  53,C   3,C   2,N   6)    106.0679         0.009299   
    354. D(H  52,C   3,C   2,H  51)    -16.6404         0.009299   
    355. D(C   4,C   3,C   2,C   1)   -135.0630         0.009299   
    356. D(H  52,C   3,C   2,C   1)    101.9048         0.009299   
    357. D(H  52,C   3,C   2,N   6)   -135.4863         0.009299   
    358. D(H  55,C   4,C   3,H  53)    155.9633         0.010634   
    359. D(H  55,C   4,C   3,H  52)     35.6307         0.010634   
    360. D(H  54,C   4,C   3,H  52)    -85.6199         0.010634   
    361. D(H  55,C   4,C   3,C   2)    -86.0132         0.010634   
    362. D(H  54,C   4,C   3,H  53)     34.7127         0.010634   
    363. D(C   5,C   4,C   3,C   2)     30.8938         0.010634   
    364. D(H  54,C   4,C   3,C   2)    152.7362         0.010634   
    365. D(C   5,C   4,C   3,H  53)    -87.1297         0.010634   
    366. D(C   5,C   4,C   3,H  52)    152.5377         0.010634   
    367. D(N   6,C   5,C   4,C   3)    -37.3629         0.011129   
    368. D(H  57,C   5,C   4,C   3)   -157.4880         0.011129   
    369. D(H  56,C   5,C   4,H  55)   -161.5359         0.011129   
    370. D(H  56,C   5,C   4,C   3)     80.5957         0.011129   
    371. D(H  57,C   5,C   4,H  54)     80.5400         0.011129   
    372. D(H  56,C   5,C   4,H  54)    -41.3762         0.011129   
    373. D(H  57,C   5,C   4,H  55)    -39.6196         0.011129   
    374. D(N   6,C   5,C   4,H  54)   -159.3348         0.011129   
    375. D(N   6,C   5,C   4,H  55)     80.5055         0.011129   
    376. D(C   5,N   6,C   2,C   3)    -11.8765         0.015119   
    377. D(C   7,N   6,C   5,H  57)    -19.7230         0.014883   
    378. D(C   7,N   6,C   5,H  56)     99.9270         0.014883   
    379. D(C   7,N   6,C   5,C   4)   -141.4435         0.014883   
    380. D(C   2,N   6,C   5,H  57)    152.9798         0.014883   
    381. D(C   2,N   6,C   5,H  56)    -87.3702         0.014883   
    382. D(C   7,N   6,C   2,H  51)     40.4370         0.015119   
    383. D(C   2,N   6,C   5,C   4)     31.2594         0.014883   
    384. D(C   7,N   6,C   2,C   3)    161.4826         0.015119   
    385. D(C   5,N   6,C   2,C   1)    106.6742         0.015119   
    386. D(C   7,N   6,C   2,C   1)    -79.9667         0.015119   
    387. D(C   5,N   6,C   2,H  51)   -132.9222         0.015119   
    388. D(C  24,C   7,N   6,C   5)    -16.7457         0.031191   
    389. D(C  24,C   7,N   6,C   2)    171.1315         0.031191   
    390. D(O   8,C   7,N   6,C   5)    170.2163         0.031191   
    391. D(O   8,C   7,N   6,C   2)     -1.9065         0.031191   
    392. D(H  58,N   9,C   1,O   0)   -174.2306         0.029837   
    393. D(C  10,N   9,C   1,C   2)   -164.8037         0.029837   
    394. D(H  58,N   9,C   1,C   2)     11.8378         0.029837   
    395. D(C  10,N   9,C   1,O   0)      9.1279         0.029837   
    396. D(H  59,C  10,N   9,C   1)     -9.0566         0.016780   
    397. D(C  48,C  10,N   9,H  58)    -70.2924         0.016780   
    398. D(C  48,C  10,N   9,C   1)    106.3402         0.016780   
    399. D(C  11,C  10,N   9,C   1)   -126.1827         0.016780   
    400. D(H  59,C  10,N   9,H  58)    174.3108         0.016780   
    401. D(C  11,C  10,N   9,H  58)     57.1848         0.016780   
    402. D(O  47,C  11,C  10,N   9)    -63.1399         0.010171   
    403. D(N  12,C  11,C  10,H  59)      2.8250         0.010171   
    404. D(N  12,C  11,C  10,C  48)   -116.1220         0.010171   
    405. D(N  12,C  11,C  10,N   9)    116.8063         0.010171   
    406. D(O  47,C  11,C  10,H  59)   -177.1212         0.010171   
    407. D(O  47,C  11,C  10,C  48)     63.9318         0.010171   
    408. D(H  60,N  12,C  11,O  47)    179.4885         0.031108   
    409. D(H  60,N  12,C  11,C  10)     -0.4576         0.031108   
    410. D(C  13,N  12,C  11,O  47)     -3.5837         0.031108   
    411. D(C  13,N  12,C  11,C  10)    176.4702         0.031108   
    412. D(H  61,C  13,N  12,C  11)   -177.0199         0.015061   
    413. D(H  61,C  13,N  12,H  60)     -0.1254         0.015061   
    414. D(C  45,C  13,N  12,H  60)    117.4574         0.015061   
    415. D(C  45,C  13,N  12,C  11)    -59.4371         0.015061   
    416. D(C  14,C  13,N  12,C  11)     68.7490         0.015061   
    417. D(C  14,C  13,N  12,H  60)   -114.3565         0.015061   
    418. D(O  44,C  14,C  13,C  45)    -35.1913         0.009080   
    419. D(O  44,C  14,C  13,N  12)   -164.2599         0.009080   
    420. D(N  15,C  14,C  13,H  61)    -95.1146         0.009080   
    421. D(N  15,C  14,C  13,C  45)    148.3386         0.009080   
    422. D(O  44,C  14,C  13,H  61)     81.3554         0.009080   
    423. D(N  15,C  14,C  13,N  12)     19.2700         0.009080   
    424. D(H  62,N  15,C  14,O  44)    168.6845         0.031948   
    425. D(H  62,N  15,C  14,C  13)    -15.0134         0.031948   
    426. D(C  16,N  15,C  14,O  44)     15.5789         0.031948   
    427. D(C  16,N  15,C  14,C  13)   -168.1190         0.031948   
    428. D(H  64,C  16,N  15,H  62)     62.1764         0.016638   
    429. D(H  64,C  16,N  15,C  14)   -144.3063         0.016638   
    430. D(H  63,C  16,N  15,H  62)   -179.1893         0.016638   
    431. D(H  63,C  16,N  15,C  14)    -25.6721         0.016638   
    432. D(C  17,C  16,N  15,C  14)     95.6975         0.016638   
    433. D(C  17,C  16,N  15,H  62)    -57.8197         0.016638   
    434. D(H  65,C  17,C  16,H  64)     53.3365         0.010699   
    435. D(H  65,C  17,C  16,H  63)    -66.5825         0.010699   
    436. D(H  65,C  17,C  16,N  15)    173.0664         0.010699   
    437. D(O  43,C  17,C  16,H  64)    -68.6483         0.010699   
    438. D(O  43,C  17,C  16,H  63)    171.4327         0.010699   
    439. D(O  43,C  17,C  16,N  15)     51.0816         0.010699   
    440. D(C  18,C  17,C  16,H  64)    174.8542         0.010699   
    441. D(C  18,C  17,C  16,H  63)     54.9352         0.010699   
    442. D(C  18,C  17,C  16,N  15)    -65.4160         0.010699   
    443. D(H  66,C  18,C  17,H  65)    175.7193         0.010953   
    444. D(H  66,C  18,C  17,O  43)    -64.7807         0.010953   
    445. D(H  66,C  18,C  17,C  16)     53.7349         0.010953   
    446. D(C  32,C  18,C  17,O  43)    174.6770         0.010953   
    447. D(C  32,C  18,C  17,C  16)    -66.8074         0.010953   
    448. D(C  32,C  18,C  17,H  65)     55.1769         0.010953   
    449. D(C  19,C  18,C  17,H  65)    -66.6451         0.010953   
    450. D(C  19,C  18,C  17,O  43)     52.8549         0.010953   
    451. D(C  19,C  18,C  17,C  16)    171.3705         0.010953   
    452. D(O  31,C  19,C  18,H  66)   -170.9079         0.010151   
    453. D(O  31,C  19,C  18,C  32)    -53.1151         0.010151   
    454. D(O  31,C  19,C  18,C  17)     71.4728         0.010151   
    455. D(N  20,C  19,C  18,H  66)     10.5524         0.010151   
    456. D(N  20,C  19,C  18,C  17)   -107.0669         0.010151   
    457. D(N  20,C  19,C  18,C  32)    128.3452         0.010151   
    458. D(H  67,N  20,C  19,O  31)   -170.3178         0.030262   
    459. D(H  67,N  20,C  19,C  18)      8.2021         0.030262   
    460. D(C  21,N  20,C  19,O  31)     -7.6461         0.030262   
    461. D(C  21,N  20,C  19,C  18)    170.8738         0.030262   
    462. D(H  68,C  21,N  20,H  67)   -155.1545         0.016494   
    463. D(H  68,C  21,N  20,C  19)     42.2468         0.016494   
    464. D(C  27,C  21,N  20,H  67)    -35.6139         0.016494   
    465. D(C  27,C  21,N  20,C  19)    161.7874         0.016494   
    466. D(C  22,C  21,N  20,H  67)     90.2180         0.016494   
    467. D(C  22,C  21,N  20,C  19)    -72.3807         0.016494   
    468. D(N  23,C  22,C  21,C  27)    114.1249         0.009397   
    469. D(N  23,C  22,C  21,N  20)     -9.5954         0.009397   
    470. D(O  26,C  22,C  21,H  68)     54.4687         0.009397   
    471. D(O  26,C  22,C  21,C  27)    -65.4766         0.009397   
    472. D(O  26,C  22,C  21,N  20)    170.8032         0.009397   
    473. D(N  23,C  22,C  21,H  68)   -125.9298         0.009397   
    474. D(H  69,N  23,C  22,O  26)   -167.3945         0.030271   
    475. D(H  69,N  23,C  22,C  21)     13.0122         0.030271   
    476. D(C  24,N  23,C  22,O  26)    -16.6217         0.030271   
    477. D(C  24,N  23,C  22,C  21)    163.7850         0.030271   
    478. D(H  70,C  24,N  23,H  69)   -174.6785         0.015720   
    479. D(H  70,C  24,N  23,C  22)     33.3097         0.015720   
    480. D(C  25,C  24,N  23,H  69)     65.7403         0.015720   
    481. D(C  25,C  24,N  23,C  22)    -86.2715         0.015720   
    482. D(C   7,C  24,N  23,H  69)    -56.4017         0.015720   
    483. D(C   7,C  24,N  23,C  22)    151.5865         0.015720   
    484. D(H  70,C  24,C   7,O   8)   -152.2096         0.010269   
    485. D(H  70,C  24,C   7,N   6)     34.8282         0.010269   
    486. D(C  25,C  24,C   7,O   8)    -28.4830         0.010269   
    487. D(C  25,C  24,C   7,N   6)    158.5547         0.010269   
    488. D(N  23,C  24,C   7,O   8)     93.3492         0.010269   
    489. D(N  23,C  24,C   7,N   6)    -79.6130         0.010269   
    490. D(H  73,C  25,C  24,H  70)   -177.0356         0.011449   
    491. D(H  73,C  25,C  24,N  23)    -59.2167         0.011449   
    492. D(H  73,C  25,C  24,C   7)     57.8707         0.011449   
    493. D(H  72,C  25,C  24,H  70)     62.6034         0.011449   
    494. D(H  72,C  25,C  24,N  23)   -179.5777         0.011449   
    495. D(H  72,C  25,C  24,C   7)    -62.4903         0.011449   
    496. D(H  71,C  25,C  24,H  70)    -57.4131         0.011449   
    497. D(H  71,C  25,C  24,N  23)     60.4059         0.011449   
    498. D(H  71,C  25,C  24,C   7)    177.4932         0.011449   
    499. D(H  75,C  27,C  21,H  68)     66.0549         0.010687   
    500. D(H  75,C  27,C  21,C  22)   -177.4296         0.010687   
    501. D(H  75,C  27,C  21,N  20)    -51.5994         0.010687   
    502. D(H  74,C  27,C  21,H  68)   -179.7740         0.010687   
    503. D(H  74,C  27,C  21,C  22)    -63.2584         0.010687   
    504. D(H  74,C  27,C  21,N  20)     62.5718         0.010687   
    505. D(C  28,C  27,C  21,H  68)    -56.0817         0.010687   
    506. D(C  28,C  27,C  21,C  22)     60.4338         0.010687   
    507. D(C  28,C  27,C  21,N  20)   -173.7360         0.010687   
    508. D(H  76,C  28,C  27,H  75)    178.8223         0.010730   
    509. D(H  76,C  28,C  27,H  74)     63.2063         0.010730   
    510. D(H  76,C  28,C  27,C  21)    -60.1012         0.010730   
    511. D(C  30,C  28,C  27,H  75)     60.7640         0.010730   
    512. D(C  30,C  28,C  27,H  74)    -54.8520         0.010730   
    513. D(C  30,C  28,C  27,C  21)   -178.1595         0.010730   
    514. D(C  29,C  28,C  27,H  75)    -62.5797         0.010730   
    515. D(C  29,C  28,C  27,H  74)   -178.1957         0.010730   
    516. D(C  29,C  28,C  27,C  21)     58.4969         0.010730   
    517. D(H  79,C  29,C  28,C  30)     53.4489         0.011025   
    518. D(H  79,C  29,C  28,C  27)    175.5459         0.011025   
    519. D(H  78,C  29,C  28,H  76)    175.0068         0.011025   
    520. D(H  78,C  29,C  28,C  30)    -65.9879         0.011025   
    521. D(H  78,C  29,C  28,C  27)     56.1091         0.011025   
    522. D(H  77,C  29,C  28,H  76)     54.0094         0.011025   
    523. D(H  77,C  29,C  28,C  30)    173.0147         0.011025   
    524. D(H  79,C  29,C  28,H  76)    -65.5564         0.011025   
    525. D(H  77,C  29,C  28,C  27)    -64.8883         0.011025   
    526. D(H  82,C  30,C  28,H  76)    179.8493         0.010901   
    527. D(H  82,C  30,C  28,C  29)     61.4741         0.010901   
    528. D(H  82,C  30,C  28,C  27)    -62.4333         0.010901   
    529. D(H  81,C  30,C  28,H  76)     60.1962         0.010901   
    530. D(H  81,C  30,C  28,C  29)    -58.1790         0.010901   
    531. D(H  81,C  30,C  28,C  27)    177.9137         0.010901   
    532. D(H  80,C  30,C  28,H  76)    -60.1931         0.010901   
    533. D(H  80,C  30,C  28,C  29)   -178.5683         0.010901   
    534. D(H  80,C  30,C  28,C  27)     57.5243         0.010901   
    535. D(O  42,C  32,C  18,H  66)   -125.3789         0.010083   
    536. D(O  42,C  32,C  18,C  19)    117.0295         0.010083   
    537. D(O  42,C  32,C  18,C  17)     -5.0308         0.010083   
    538. D(C  33,C  32,C  18,H  66)     56.1890         0.010083   
    539. D(C  33,C  32,C  18,C  19)    -61.4026         0.010083   
    540. D(C  33,C  32,C  18,C  17)    176.5372         0.010083   
    541. D(H  84,C  33,C  32,O  42)   -122.3086         0.011616   
    542. D(H  84,C  33,C  32,C  18)     56.1024         0.011616   
    543. D(H  83,C  33,C  32,O  42)     -6.7295         0.011616   
    544. D(H  83,C  33,C  32,C  18)    171.6816         0.011616   
    545. D(C  34,C  33,C  32,O  42)    116.7384         0.011616   
    546. D(C  34,C  33,C  32,C  18)    -64.8506         0.011616   
    547. D(H  86,C  34,C  33,H  84)    163.8562         0.010225   
    548. D(H  86,C  34,C  33,H  83)     45.3221         0.010225   
    549. D(H  86,C  34,C  33,C  32)    -76.6695         0.010225   
    550. D(H  85,C  34,C  33,H  84)    -80.9790         0.010225   
    551. D(H  85,C  34,C  33,H  83)    160.4869         0.010225   
    552. D(H  85,C  34,C  33,C  32)     38.4953         0.010225   
    553. D(C  35,C  34,C  33,H  84)     40.1762         0.010225   
    554. D(C  35,C  34,C  33,H  83)    -78.3579         0.010225   
    555. D(C  35,C  34,C  33,C  32)    159.6505         0.010225   
    556. D(H  88,C  35,C  34,H  86)    -73.5543         0.010904   
    557. D(H  88,C  35,C  34,H  85)    171.0536         0.010904   
    558. D(H  88,C  35,C  34,C  33)     48.8261         0.010904   
    559. D(H  87,C  35,C  34,H  86)     42.3546         0.010904   
    560. D(H  87,C  35,C  34,H  85)    -73.0375         0.010904   
    561. D(H  87,C  35,C  34,C  33)    164.7349         0.010904   
    562. D(C  36,C  35,C  34,H  86)    163.5363         0.010904   
    563. D(C  36,C  35,C  34,H  85)     48.1442         0.010904   
    564. D(C  36,C  35,C  34,C  33)    -74.0833         0.010904   
    565. D(H  90,C  36,C  35,H  87)     61.2902         0.011024   
    566. D(H  90,C  36,C  35,C  34)    -60.0130         0.011024   
    567. D(H  89,C  36,C  35,H  88)    -67.8859         0.011024   
    568. D(H  89,C  36,C  35,H  87)    176.4156         0.011024   
    569. D(H  89,C  36,C  35,C  34)     55.1124         0.011024   
    570. D(C  37,C  36,C  35,H  88)     54.6649         0.011024   
    571. D(C  37,C  36,C  35,H  87)    -61.0336         0.011024   
    572. D(H  90,C  36,C  35,H  88)    176.9886         0.011024   
    573. D(C  37,C  36,C  35,C  34)    177.6633         0.011024   
    574. D(H  92,C  37,C  36,H  90)    178.5633         0.011204   
    575. D(H  92,C  37,C  36,H  89)     63.6131         0.011204   
    576. D(H  92,C  37,C  36,C  35)    -59.5170         0.011204   
    577. D(H  91,C  37,C  36,H  90)    -65.8201         0.011204   
    578. D(H  91,C  37,C  36,H  89)    179.2297         0.011204   
    579. D(H  91,C  37,C  36,C  35)     56.0996         0.011204   
    580. D(C  38,C  37,C  36,H  90)     56.4990         0.011204   
    581. D(C  38,C  37,C  36,H  89)    -58.4512         0.011204   
    582. D(C  38,C  37,C  36,C  35)    178.4187         0.011204   
    583. D(H  94,C  38,C  37,H  92)    178.8867         0.011163   
    584. D(H  94,C  38,C  37,H  91)     63.3133         0.011163   
    585. D(H  94,C  38,C  37,C  36)    -59.0695         0.011163   
    586. D(H  93,C  38,C  37,H  92)    -65.8601         0.011163   
    587. D(H  93,C  38,C  37,H  91)    178.5665         0.011163   
    588. D(H  93,C  38,C  37,C  36)     56.1837         0.011163   
    589. D(C  39,C  38,C  37,H  92)     56.3593         0.011163   
    590. D(C  39,C  38,C  37,H  91)    -59.2141         0.011163   
    591. D(C  39,C  38,C  37,C  36)    178.4031         0.011163   
    592. D(H  95,C  39,C  38,H  94)    -65.2117         0.011188   
    593. D(H  95,C  39,C  38,H  93)    179.5335         0.011188   
    594. D(H  95,C  39,C  38,C  37)     57.2943         0.011188   
    595. D(C  40,C  39,C  38,H  94)     57.1388         0.011188   
    596. D(C  40,C  39,C  38,H  93)    -58.1161         0.011188   
    597. D(C  40,C  39,C  38,C  37)    179.6448         0.011188   
    598. D(H  96,C  39,C  38,H  94)    179.2961         0.011188   
    599. D(H  96,C  39,C  38,H  93)     64.0413         0.011188   
    600. D(H  96,C  39,C  38,C  37)    -58.1979         0.011188   
    601. D(H  98,C  40,C  39,H  95)     63.8354         0.011073   
    602. D(H  98,C  40,C  39,C  38)    -58.5608         0.011073   
    603. D(H  97,C  40,C  39,H  96)    -65.4586         0.011073   
    604. D(H  97,C  40,C  39,H  95)    179.0760         0.011073   
    605. D(H  97,C  40,C  39,C  38)     56.6798         0.011073   
    606. D(C  41,C  40,C  39,H  96)     56.9788         0.011073   
    607. D(C  41,C  40,C  39,H  95)    -58.4866         0.011073   
    608. D(H  98,C  40,C  39,H  96)    179.3009         0.011073   
    609. D(C  41,C  40,C  39,C  38)    179.1172         0.011073   
    610. D(H 101,C  41,C  40,H  98)    -62.4319         0.011178   
    611. D(H 101,C  41,C  40,H  97)   -178.1993         0.011178   
    612. D(H 101,C  41,C  40,C  39)     59.6375         0.011178   
    613. D(H 100,C  41,C  40,H  98)    178.0103         0.011178   
    614. D(H 100,C  41,C  40,H  97)     62.2430         0.011178   
    615. D(H 100,C  41,C  40,C  39)    -59.9203         0.011178   
    616. D(H  99,C  41,C  40,H  98)     57.8209         0.011178   
    617. D(H  99,C  41,C  40,H  97)    -57.9464         0.011178   
    618. D(H  99,C  41,C  40,C  39)    179.8903         0.011178   
    619. D(H 102,O  43,C  17,H  65)    -42.2517         0.016773   
    620. D(H 102,O  43,C  17,C  18)   -160.3652         0.016773   
    621. D(H 102,O  43,C  17,C  16)     78.9631         0.016773   
    622. D(H 104,C  45,C  13,H  61)    173.3054         0.010771   
    623. D(H 104,C  45,C  13,C  14)    -72.0412         0.010771   
    624. D(H 104,C  45,C  13,N  12)     57.3847         0.010771   
    625. D(H 103,C  45,C  13,H  61)    -71.8854         0.010771   
    626. D(H 103,C  45,C  13,C  14)     42.7679         0.010771   
    627. D(H 103,C  45,C  13,N  12)    172.1939         0.010771   
    628. D(C  46,C  45,C  13,H  61)     50.1121         0.010771   
    629. D(C  46,C  45,C  13,C  14)    164.7654         0.010771   
    630. D(C  46,C  45,C  13,N  12)    -65.8086         0.010771   
    631. D(H 107,C  46,C  45,H 104)    -62.9047         0.011402   
    632. D(H 107,C  46,C  45,H 103)    178.4603         0.011402   
    633. D(H 107,C  46,C  45,C  13)     59.0722         0.011402   
    634. D(H 106,C  46,C  45,H 104)    176.6290         0.011402   
    635. D(H 106,C  46,C  45,H 103)     57.9940         0.011402   
    636. D(H 106,C  46,C  45,C  13)    -61.3941         0.011402   
    637. D(H 105,C  46,C  45,H 104)     56.9297         0.011402   
    638. D(H 105,C  46,C  45,H 103)    -61.7054         0.011402   
    639. D(H 105,C  46,C  45,C  13)    178.9066         0.011402   
    640. D(H 108,C  48,C  10,H  59)     53.9341         0.009640   
    641. D(H 108,C  48,C  10,C  11)    173.9997         0.009640   
    642. D(H 108,C  48,C  10,N   9)    -59.5464         0.009640   
    643. D(C  50,C  48,C  10,H  59)    171.7630         0.009640   
    644. D(C  50,C  48,C  10,C  11)    -68.1714         0.009640   
    645. D(C  50,C  48,C  10,N   9)     58.2826         0.009640   
    646. D(C  49,C  48,C  10,H  59)    -62.3162         0.009640   
    647. D(C  49,C  48,C  10,C  11)     57.7494         0.009640   
    648. D(C  49,C  48,C  10,N   9)   -175.7966         0.009640   
    649. D(H 111,C  49,C  48,C  50)     58.9706         0.011055   
    650. D(H 111,C  49,C  48,C  10)    -68.5454         0.011055   
    651. D(H 110,C  49,C  48,H 108)     58.8034         0.011055   
    652. D(H 110,C  49,C  48,C  50)    -60.0904         0.011055   
    653. D(H 110,C  49,C  48,C  10)    172.3935         0.011055   
    654. D(H 109,C  49,C  48,H 108)    -61.3003         0.011055   
    655. D(H 109,C  49,C  48,C  50)    179.8059         0.011055   
    656. D(H 111,C  49,C  48,H 108)    177.8644         0.011055   
    657. D(H 109,C  49,C  48,C  10)     52.2898         0.011055   
    658. D(H 114,C  50,C  48,H 108)    -58.0986         0.011200   
    659. D(H 114,C  50,C  48,C  49)     60.8560         0.011200   
    660. D(H 114,C  50,C  48,C  10)   -173.5296         0.011200   
    661. D(H 113,C  50,C  48,H 108)   -177.9052         0.011200   
    662. D(H 113,C  50,C  48,C  49)    -58.9506         0.011200   
    663. D(H 113,C  50,C  48,C  10)     66.6638         0.011200   
    664. D(H 112,C  50,C  48,H 108)     61.2054         0.011200   
    665. D(H 112,C  50,C  48,C  49)   -179.8399         0.011200   
    666. D(H 112,C  50,C  48,C  10)    -54.2256         0.011200   
    -----------------------------------------------------------------

Number of atoms                         .... 115
Number of degrees of freedom            .... 666

         *************************************************************
         *                GEOMETRY OPTIMIZATION CYCLE   1            *
         *************************************************************
---------------------------------
CARTESIAN COORDINATES (ANGSTROEM)
---------------------------------
  O      5.455983   -1.812642    1.733115
  C      4.648871   -0.894221    1.871662
  C      5.070758    0.384245    2.605508
  C      5.221936    0.059165    4.120276
  C      4.522432    1.220441    4.844066
  C      3.419805    1.632767    3.866485
  N      4.081437    1.467237    2.564768
  C      3.973264    2.256249    1.460069
  O      4.728284    2.098372    0.486395
  N      3.332770   -0.986436    1.512085
  C      2.770014   -2.267356    1.119066
  C      2.091583   -2.173149   -0.253275
  N      2.669783   -2.953462   -1.208424
  C      2.186432   -3.115270   -2.585028
  C      2.339423   -1.839954   -3.453706
  N      3.231806   -0.923138   -2.996022
  C      3.309980    0.421754   -3.544120
  C      2.484963    1.389512   -2.682841
  C      0.986378    1.072329   -2.729367
  C      0.253483    1.929680   -1.689577
  N     -0.179043    1.242870   -0.591286
  C     -0.713984    1.938825    0.569818
  C      0.378067    2.670706    1.382425
  N      1.659064    2.380007    1.008981
  C      2.783749    3.221244    1.415316
  C      3.007708    4.387925    0.457360
  O      0.095060    3.445437    2.296265
  C     -1.517789    0.942652    1.418968
  C     -2.291614    1.510908    2.617301
  C     -3.302618    2.580707    2.194171
  C     -2.983389    0.357972    3.354080
  O      0.099392    3.142434   -1.832564
  C      0.351432    1.310247   -4.106543
  C     -1.110625    0.928819   -4.210111
  C     -1.379925   -0.580080   -4.036652
  C     -2.832114   -0.884940   -3.650988
  C     -3.149977   -0.533567   -2.194567
  C     -4.608522   -0.777165   -1.804921
  C     -4.901953   -0.458204   -0.337845
  C     -6.365066   -0.659466    0.059576
  C     -6.645421   -0.345695    1.531541
  C     -8.114240   -0.528314    1.917220
  O      0.979302    1.797885   -5.029965
  O      2.870856    1.232366   -1.301810
  O      1.724884   -1.739286   -4.513798
  C      0.758046   -3.672323   -2.658639
  C      0.654403   -5.102430   -2.134367
  O      1.109610   -1.452898   -0.471289
  C      1.843504   -2.861049    2.212433
  C      1.355933   -4.253870    1.804098
  C      0.670085   -1.956166    2.590530
  H      6.007788    0.724754    2.147309
  H      6.274687   -0.057086    4.399180
  H      4.718839   -0.891713    4.346408
  H      4.128208    0.932585    5.826935
  H      5.215291    2.062602    4.986840
  H      2.544043    0.964986    3.941952
  H      3.068756    2.659165    4.007663
  H      2.735064   -0.164324    1.569736
  H      3.645496   -2.929784    1.042083
  H      3.476022   -3.498996   -0.922715
  H      2.864247   -3.854305   -3.043953
  H      3.544400   -1.021415   -2.033755
  H      2.936045    0.407652   -4.573654
  H      4.361802    0.744606   -3.552121
  H      2.644436    2.423956   -3.024631
  H      0.850800    0.014434   -2.459918
  H      0.120575    0.270107   -0.482618
  H     -1.367774    2.741828    0.199508
  H      1.810351    1.883805    0.120685
  H      2.535356    3.610390    2.411317
  H      2.107796    5.014531    0.436692
  H      3.862099    4.997432    0.782840
  H      3.206495    4.030582   -0.559687
  H     -0.831004    0.158371    1.774038
  H     -2.230275    0.447034    0.738535
  H     -1.569345    1.984317    3.299980
  H     -2.801715    3.464308    1.776976
  H     -4.000784    2.185809    1.438565
  H     -3.898283    2.914985    3.055913
  H     -2.257276   -0.401240    3.682443
  H     -3.519544    0.720798    4.242841
  H     -3.717665   -0.139913    2.701628
  H     -1.484964    1.280705   -5.180692
  H     -1.642378    1.489062   -3.422311
  H     -0.721802   -0.996132   -3.259265
  H     -1.101066   -1.097195   -4.965060
  H     -3.029279   -1.958344   -3.809784
  H     -3.520792   -0.344533   -4.323645
  H     -2.898289    0.522681   -1.997653
  H     -2.488925   -1.123350   -1.534622
  H     -4.874303   -1.828990   -2.011407
  H     -5.264641   -0.166437   -2.449470
  H     -4.610892    0.586289   -0.128969
  H     -4.259186   -1.084205    0.306703
  H     -6.663664   -1.700918   -0.155294
  H     -7.005610   -0.023691   -0.576889
  H     -6.330973    0.689398    1.747464
  H     -6.013515   -0.990876    2.165596
  H     -8.285977   -0.298365    2.978507
  H     -8.764281    0.131480    1.322625
  H     -8.444644   -1.563448    1.741116
  H      3.713749    1.692320   -1.078481
  H      0.455891   -3.616116   -3.712465
  H      0.090899   -3.002377   -2.098858
  H     -0.382282   -5.462481   -2.183324
  H      1.274672   -5.791305   -2.728444
  H      0.980314   -5.177658   -1.086769
  H      2.498835   -2.965847    3.094567
  H      2.191500   -4.913460    1.526346
  H      0.812281   -4.730939    2.630979
  H      0.666792   -4.193310    0.948552
  H      1.003276   -0.949984    2.883957
  H     -0.030784   -1.852179    1.752735
  H      0.124175   -2.381200    3.444693

----------------------------
CARTESIAN COORDINATES (A.U.)
----------------------------
  NO LB      ZA    FRAG     MASS         X           Y           Z
   0 O     8.0000    0    15.999   10.310314   -3.425398    3.275112
   1 C     6.0000    0    12.011    8.785094   -1.689833    3.536928
   2 C     6.0000    0    12.011    9.582345    0.726118    4.923696
   3 C     6.0000    0    12.011    9.868029    0.111805    7.786194
   4 C     6.0000    0    12.011    8.546159    2.306300    9.153957
   5 C     6.0000    0    12.011    6.462495    3.085482    7.306598
   6 N     7.0000    0    14.007    7.712798    2.772676    4.846709
   7 C     6.0000    0    12.011    7.508381    4.263693    2.759130
   8 O     8.0000    0    15.999    8.935161    3.965349    0.919153
   9 N     7.0000    0    14.007    6.298022   -1.864094    2.857427
  10 C     6.0000    0    12.011    5.234568   -4.284682    2.114728
  11 C     6.0000    0    12.011    3.952519   -4.106656   -0.478621
  12 N     7.0000    0    14.007    5.045158   -5.581235   -2.283590
  13 C     6.0000    0    12.011    4.131758   -5.887007   -4.884995
  14 C     6.0000    0    12.011    4.420869   -3.477009   -6.526558
  15 N     7.0000    0    14.007    6.107228   -1.744478   -5.661661
  16 C     6.0000    0    12.011    6.254956    0.797000   -6.697416
  17 C     6.0000    0    12.011    4.695900    2.625797   -5.069835
  18 C     6.0000    0    12.011    1.863985    2.026408   -5.157755
  19 C     6.0000    0    12.011    0.479014    3.646567   -3.192837
  20 N     7.0000    0    14.007   -0.338343    2.348685   -1.117369
  21 C     6.0000    0    12.011   -1.349234    3.663848    1.076801
  22 C     6.0000    0    12.011    0.714443    5.046903    2.612405
  23 N     7.0000    0    14.007    3.135177    4.497562    1.906698
  24 C     6.0000    0    12.011    5.260523    6.087268    2.674559
  25 C     6.0000    0    12.011    5.683744    8.291977    0.864286
  26 O     8.0000    0    15.999    0.179637    6.510933    4.339311
  27 C     6.0000    0    12.011   -2.868205    1.781354    2.681460
  28 C     6.0000    0    12.011   -4.330523    2.855202    4.945982
  29 C     6.0000    0    12.011   -6.241043    4.876830    4.146381
  30 C     6.0000    0    12.011   -5.637788    0.676469    6.338293
  31 O     8.0000    0    15.999    0.187823    5.938340   -3.463044
  32 C     6.0000    0    12.011    0.664110    2.476008   -7.760241
  33 C     6.0000    0    12.011   -2.098778    1.755214   -7.955957
  34 C     6.0000    0    12.011   -2.607680   -1.096192   -7.628167
  35 C     6.0000    0    12.011   -5.351920   -1.672295   -6.899367
  36 C     6.0000    0    12.011   -5.952593   -1.008296   -4.147130
  37 C     6.0000    0    12.011   -8.708844   -1.468629   -3.410806
  38 C     6.0000    0    12.011   -9.263349   -0.865879   -0.638435
  39 C     6.0000    0    12.011  -12.028231   -1.246210    0.112583
  40 C     6.0000    0    12.011  -12.558026   -0.653268    2.894192
  41 C     6.0000    0    12.011  -15.333690   -0.998368    3.623020
  42 O     8.0000    0    15.999    1.850612    3.397511   -9.505257
  43 O     8.0000    0    15.999    5.425132    2.328835   -2.460064
  44 O     8.0000    0    15.999    3.259559   -3.286775   -8.529842
  45 C     6.0000    0    12.011    1.432498   -6.939685   -5.024099
  46 C     6.0000    0    12.011    1.236643   -9.642196   -4.033369
  47 O     8.0000    0    15.999    2.096859   -2.745580   -0.890607
  48 C     6.0000    0    12.011    3.483718   -5.406599    4.180893
  49 C     6.0000    0    12.011    2.562343   -8.038649    3.409250
  50 C     6.0000    0    12.011    1.266277   -3.696618    4.895393
  51 H     1.0000    0     1.008   11.353074    1.369587    4.057826
  52 H     1.0000    0     1.008   11.857440   -0.107877    8.313245
  53 H     1.0000    0     1.008    8.917313   -1.685093    8.213521
  54 H     1.0000    0     1.008    7.801183    1.762330   11.011312
  55 H     1.0000    0     1.008    9.855472    3.897753    9.423762
  56 H     1.0000    0     1.008    4.807544    1.823558    7.449210
  57 H     1.0000    0     1.008    5.799108    5.025094    7.573386
  58 H     1.0000    0     1.008    5.168522   -0.310528    2.966371
  59 H     1.0000    0     1.008    6.888989   -5.536490    1.969252
  60 H     1.0000    0     1.008    6.568729   -6.612145   -1.743678
  61 H     1.0000    0     1.008    5.412643   -7.283581   -5.752238
  62 H     1.0000    0     1.008    6.697946   -1.930194   -3.843241
  63 H     1.0000    0     1.008    5.548321    0.770351   -8.642954
  64 H     1.0000    0     1.008    8.242611    1.407101   -6.712535
  65 H     1.0000    0     1.008    4.997261    4.580612   -5.715724
  66 H     1.0000    0     1.008    1.607778    0.027277   -4.648571
  67 H     1.0000    0     1.008    0.227854    0.510428   -0.912015
  68 H     1.0000    0     1.008   -2.584718    5.181303    0.377015
  69 H     1.0000    0     1.008    3.421067    3.559876    0.228061
  70 H     1.0000    0     1.008    4.791128    6.822648    4.556728
  71 H     1.0000    0     1.008    3.983158    9.476090    0.825229
  72 H     1.0000    0     1.008    7.298309    9.443778    1.479353
  73 H     1.0000    0     1.008    6.059398    7.616696   -1.057656
  74 H     1.0000    0     1.008   -1.570370    0.299278    3.352447
  75 H     1.0000    0     1.008   -4.214609    0.844773    1.395629
  76 H     1.0000    0     1.008   -2.965632    3.749816    6.236059
  77 H     1.0000    0     1.008   -5.294474    6.546593    3.357997
  78 H     1.0000    0     1.008   -7.560385    4.130581    2.718495
  79 H     1.0000    0     1.008   -7.366687    5.508523    5.774839
  80 H     1.0000    0     1.008   -4.265633   -0.758234    6.958809
  81 H     1.0000    0     1.008   -6.650973    1.362110    8.017808
  82 H     1.0000    0     1.008   -7.025370   -0.264398    5.105337
  83 H     1.0000    0     1.008   -2.806175    2.420181   -9.790089
  84 H     1.0000    0     1.008   -3.103645    2.813919   -6.467230
  85 H     1.0000    0     1.008   -1.364008   -1.882416   -6.159118
  86 H     1.0000    0     1.008   -2.080713   -2.073399   -9.382603
  87 H     1.0000    0     1.008   -5.724508   -3.700734   -7.199447
  88 H     1.0000    0     1.008   -6.653333   -0.651072   -8.170505
  89 H     1.0000    0     1.008   -5.476972    0.987725   -3.775016
  90 H     1.0000    0     1.008   -4.703386   -2.122825   -2.900016
  91 H     1.0000    0     1.008   -9.211099   -3.456291   -3.801008
  92 H     1.0000    0     1.008   -9.948730   -0.314521   -4.628828
  93 H     1.0000    0     1.008   -8.713323    1.107925   -0.243717
  94 H     1.0000    0     1.008   -8.048695   -2.048851    0.579586
  95 H     1.0000    0     1.008  -12.592500   -3.214269   -0.293462
  96 H     1.0000    0     1.008  -13.238685   -0.044770   -1.090162
  97 H     1.0000    0     1.008  -11.963804    1.302773    3.302228
  98 H     1.0000    0     1.008  -11.363896   -1.872484    4.092382
  99 H     1.0000    0     1.008  -15.658228   -0.563828    5.628563
 100 H     1.0000    0     1.008  -16.562091    0.248462    2.499400
 101 H     1.0000    0     1.008  -15.958065   -2.954489    3.290233
 102 H     1.0000    0     1.008    7.017968    3.198022   -2.038034
 103 H     1.0000    0     1.008    0.861509   -6.833469   -7.015541
 104 H     1.0000    0     1.008    0.171774   -5.673671   -3.966266
 105 H     1.0000    0     1.008   -0.722409  -10.322593   -4.125884
 106 H     1.0000    0     1.008    2.408782  -10.943981   -5.156012
 107 H     1.0000    0     1.008    1.852526   -9.784356   -2.053695
 108 H     1.0000    0     1.008    4.722114   -5.604639    5.847883
 109 H     1.0000    0     1.008    4.141336   -9.285094    2.884376
 110 H     1.0000    0     1.008    1.534988   -8.940178    4.971830
 111 H     1.0000    0     1.008    1.260054   -7.924207    1.792503
 112 H     1.0000    0     1.008    1.895916   -1.795209    5.449889
 113 H     1.0000    0     1.008   -0.058173   -3.500111    3.312190
 114 H     1.0000    0     1.008    0.234657   -4.499816    6.509526

--------------------------------
INTERNAL COORDINATES (ANGSTROEM)
--------------------------------
 O      0   0   0     0.000000000000     0.00000000     0.00000000
 C      1   0   0     1.230496743885     0.00000000     0.00000000
 C      2   1   0     1.533295576713   119.71900691     0.00000000
 C      3   2   1     1.556616853129   108.56213600   288.98413488
 C      4   3   2     1.536795200738   104.85048689   224.93698098
 C      5   4   3     1.530184270920   103.33939854    30.89384503
 N      3   2   1     1.467408269453   114.61877971   172.87740746
 C      7   3   2     1.361837888079   120.24298679   280.03333907
 O      8   7   3     1.242183887166   120.92542528   358.09348326
 N      2   1   3     1.367451210291   123.45989532   186.25158371
 C     10   2   1     1.453242634068   120.21544644     9.12789305
 C     11  10   2     1.533774481875   111.04661177   233.81731411
 N     12  11  10     1.362172110396   113.85685254   116.80633593
 C     13  12  11     1.467940477760   125.51701205   176.47017252
 C     14  13  12     1.550624832483   113.71641878    68.74895454
 N     15  14  13     1.358812942698   115.53272308    19.27004508
 C     16  15  14     1.454392869307   122.15988587   191.88097332
 C     17  16  15     1.535906364884   110.02623705    95.69751602
 C     18  17  16     1.532489932506   112.19957087   294.58403146
 C     19  18  17     1.534062897435   109.32514350   171.37050493
 N     20  19  18     1.365660791454   114.54101689   252.93311408
 C     21  20  19     1.455567792889   121.16218651   170.87382720
 C     22  21  20     1.545495007084   112.71576944   287.61931378
 N     23  22  21     1.365620825388   114.72272076   350.40464001
 C     24  23  22     1.462088383848   121.53963627   163.78498630
 C     25  24  23     1.526100407016   112.22813542   273.72846548
 O     23  22  21     1.231017634324   121.72900505   170.80316573
 C     22  21  20     1.536071828494   108.85708176   161.78742562
 C     28  22  21     1.535487723340   117.07354518   186.26402501
 C     29  28  22     1.531547735013   112.05930552    58.49685705
 C     29  28  22     1.533185727536   108.91274297   181.84054462
 O     20  19  18     1.230837787547   122.12274473    71.47276595
 C     19  18  17     1.535049153302   113.55565302   293.19256660
 C     33  19  18     1.514538089118   114.93667250   176.53716431
 C     34  33  19     1.542526289800   114.02895906   295.14943465
 C     35  34  33     1.533143658506   112.84031020   159.65052619
 C     36  35  34     1.531555652350   112.96535451   285.91666758
 C     37  36  35     1.529221432375   113.80999202   177.66327991
 C     38  37  36     1.529754443504   113.20967333   178.41869389
 C     39  38  37     1.529427706078   113.90766625   178.40306233
 C     40  39  38     1.530924704015   113.45690830   179.64476090
 C     41  40  39     1.529550623603   113.19284536   179.11717147
 O     33  19  18     1.218491239269   121.92367738   354.96918939
 O     18  17  16     1.442516929736   108.93674392    51.08155706
 O     15  14  13     1.229466527855   120.07019869   195.74009801
 C     14  13  12     1.534931730680   113.04111153   300.56289742
 C     46  14  13     1.526698600374   112.74695210   294.19135743
 O     12  11  10     1.237158627266   122.99204299   296.86012485
 C     11  10   2     1.551239808703   112.21044961   106.34019681
 C     49  11  10     1.531147462286   110.50983424   184.20336591
 C     49  11  10     1.529275541614   113.95957083    58.28255084
 H      3   2   1     1.097231368098   107.08982768    51.10474063
 H      4   3   2     1.095256130813   111.30405890   101.90481202
 H      4   3   2     1.099277542749   109.65627224   343.45902054
 H      5   4   3     1.097408920188   112.77526698   152.73622656
 H      5   4   3     1.099851145444   110.67112444   273.98682965
 H      6   5   4     1.103896196045   111.40669794    80.59573322
 H      6   5   4     1.093919547030   113.67956763   202.51196963
 H     10   2   1     1.018058724196   119.71661321   185.76942707
 H     11  10   2     1.100548082327   103.96936403   350.94340908
 H     13  12  11     1.014523901331   116.60820746   359.54240031
 H     14  13  12     1.102822802918   105.17306641   182.98005307
 H     16  15  14     1.016528529513   117.10159853   344.98656538
 H     17  16  15     1.095430147662   108.90101527   334.32787022
 H     17  16  15     1.100284378097   108.99324056   215.69365057
 H     18  17  16     1.101056902687   109.88283181   173.06638015
 H     19  18  17     1.100057224321   108.18724285    53.73489357
 H     21  20  19     1.023644795286   118.07251099     8.20212034
 H     22  21  20     1.099720234246   107.39786783    42.24676116
 H     24  23  22     1.028676241109   118.47532185    13.01224882
 H     25  24  23     1.097794145951   106.38254403    33.30969716
 H     26  25  24     1.096768909641   109.15847923    60.40586450
 H     26  25  24     1.098826225431   110.62349503   180.42232832
 H     26  25  24     1.096173713319   111.08795519   300.78331855
 H     28  22  21     1.101292652561   108.28489439    62.57176133
 H     28  22  21     1.102842432628   106.76463857   308.40061555
 H     29  28  22     1.100836411908   108.20852818   299.89884246
 H     30  29  28     1.098045986320   111.46483417   295.11166356
 H     30  29  28     1.101961553274   110.93768863    56.10907709
 H     30  29  28     1.099617608496   110.69663289   175.54586438
 H     31  29  28     1.100665973676   111.37109723    57.52428475
 H     31  29  28     1.099545279400   111.11889748   177.91367228
 H     31  29  28     1.101247341071   110.86178911   297.56669681
 H     34  33  19     1.098171087370   107.98709167   171.68155452
 H     34  33  19     1.103296069161   106.77143842    56.10240774
 H     35  34  33     1.100252746562   110.17711723    38.49532433
 H     35  34  33     1.098686631908   108.72777477   283.33050068
 H     36  35  34     1.102853776505   109.06582604   164.73492472
 H     36  35  34     1.103986429168   109.89302014    48.82608524
 H     37  36  35     1.103532031429   109.99528659    55.11242906
 H     37  36  35     1.104699117059   108.74831069   299.98700412
 H     38  37  36     1.104360832465   109.48859161    56.09962966
 H     38  37  36     1.104049392256   109.26556623   300.48301403
 H     39  38  37     1.104223460722   109.15203103    56.18371872
 H     39  38  37     1.104749163208   109.25529735   300.93052779
 H     40  39  38     1.104514347795   109.39935496    57.29429859
 H     40  39  38     1.104352608930   109.22952179   301.80214519
 H     41  40  39     1.103139704029   109.16617673    56.67977132
 H     41  40  39     1.103444639943   109.13383072   301.43921574
 H     42  41  40     1.099409489548   111.61963987   179.89032604
 H     42  41  40     1.100647032265   111.06083762   300.07971402
 H     42  41  40     1.100764670710   111.11102729    59.63748736
 H     44  18  17     0.985850553182   113.25188589    78.96314577
 H     46  14  13     1.097727651596   106.47545822   172.19385600
 H     46  14  13     1.098756804099   108.62194710    57.38469274
 H     47  46  14     1.098522016244   110.84148187   178.90658851
 H     47  46  14     1.101004206028   111.25726515   298.60594554
 H     47  46  14     1.099699907741   111.78304886    59.07222574
 H     49  11  10     1.103902368649   104.18186275   300.45361871
 H     50  49  11     1.100171428692   111.76815216    52.28978857
 H     50  49  11     1.098583830950   110.60234387   172.39353590
 H     50  49  11     1.100246280081   110.90111596   291.45456748
 H     51  49  11     1.099781110030   112.01505315   305.77444813
 H     51  49  11     1.097237626987   110.94176574    66.66376478
 H     51  49  11     1.099211050023   110.14503104   186.47038613

---------------------------
INTERNAL COORDINATES (A.U.)
---------------------------
 O      0   0   0     0.000000000000     0.00000000     0.00000000
 C      1   0   0     2.325301854625     0.00000000     0.00000000
 C      2   1   0     2.897508722341   119.71900691     0.00000000
 C      3   2   1     2.941579547860   108.56213600   288.98413488
 C      4   3   2     2.904122053320   104.85048689   224.93698098
 C      5   4   3     2.891629206472   103.33939854    30.89384503
 N      3   2   1     2.772999755917   114.61877971   172.87740746
 C      7   3   2     2.573500647266   120.24298679   280.03333907
 O      8   7   3     2.347387354713   120.92542528   358.09348326
 N      2   1   3     2.584108288949   123.45989532   186.25158371
 C     10   2   1     2.746230584528   120.21544644     9.12789305
 C     11  10   2     2.898413721940   111.04661177   233.81731411
 N     12  11  10     2.574132235914   113.85685254   116.80633593
 C     13  12  11     2.774005483863   125.51701205   176.47017252
 C     14  13  12     2.930256269850   113.71641878    68.74895454
 N     15  14  13     2.567784328928   115.53272308    19.27004508
 C     16  15  14     2.748404214119   122.15988587   191.88097332
 C     17  16  15     2.902442396978   110.02623705    95.69751602
 C     18  17  16     2.895986275428   112.19957087   294.58403146
 C     19  18  17     2.898958748362   109.32514350   171.37050493
 N     20  19  18     2.580724887683   114.54101689   252.93311408
 C     21  20  19     2.750624497916   121.16218651   170.87382720
 C     22  21  20     2.920562304731   112.71576944   287.61931378
 N     23  22  21     2.580649362763   114.72272076   350.40464001
 C     24  23  22     2.762946629060   121.53963627   163.78498630
 C     25  24  23     2.883911822126   112.22813542   273.72846548
 O     23  22  21     2.326286194899   121.72900505   170.80316573
 C     22  21  20     2.902755077885   108.85708176   161.78742562
 C     28  22  21     2.901651279110   117.07354518   186.26402501
 C     29  28  22     2.894205780203   112.05930552    58.49685705
 C     29  28  22     2.897301137479   108.91274297   181.84054462
 O     20  19  18     2.325946333746   122.12274473    71.47276595
 C     19  18  17     2.900822501848   113.55565302   293.19256660
 C     33  19  18     2.862062207825   114.93667250   176.53716431
 C     34  33  19     2.914952242095   114.02895906   295.14943465
 C     35  34  33     2.897221638535   112.84031020   159.65052619
 C     36  35  34     2.894220741801   112.96535451   285.91666758
 C     37  36  35     2.889809705312   113.80999202   177.66327991
 C     38  37  36     2.890816950371   113.20967333   178.41869389
 C     39  38  37     2.890199506119   113.90766625   178.40306233
 C     40  39  38     2.893028422244   113.45690830   179.64476090
 C     41  40  39     2.890431786578   113.19284536   179.11717147
 O     33  19  18     2.302614738800   121.92367738   354.96918939
 O     18  17  16     2.725961940746   108.93674392    51.08155706
 O     15  14  13     2.323355028469   120.07019869   195.74009801
 C     14  13  12     2.900600605252   113.04111153   300.56289742
 C     46  14  13     2.885042243747   112.74695210   294.19135743
 O     12  11  10     2.337890989750   122.99204299   296.86012485
 C     11  10   2     2.931418406485   112.21044961   106.34019681
 C     49  11  10     2.893449374369   110.50983424   184.20336591
 C     49  11  10     2.889911956955   113.95957083    58.28255084
 H      3   2   1     2.073466791252   107.08982768    51.10474063
 H      4   3   2     2.069734133735   111.30405890   101.90481202
 H      4   3   2     2.077333500966   109.65627224   343.45902054
 H      5   4   3     2.073802316078   112.77526698   152.73622656
 H      5   4   3     2.078417452969   110.67112444   273.98682965
 H      6   5   4     2.086061490802   111.40669794    80.59573322
[...]
freq.      80.27  E(vib)   ...       0.49 
freq.      88.20  E(vib)   ...       0.48 
freq.      89.05  E(vib)   ...       0.47 
freq.      95.18  E(vib)   ...       0.47 
freq.      97.89  E(vib)   ...       0.46 
freq.     106.01  E(vib)   ...       0.45 
freq.     110.33  E(vib)   ...       0.45 
freq.     114.53  E(vib)   ...       0.44 
freq.     130.88  E(vib)   ...       0.42 
freq.     134.05  E(vib)   ...       0.42 
freq.     135.67  E(vib)   ...       0.42 
freq.     146.49  E(vib)   ...       0.41 
freq.     149.48  E(vib)   ...       0.40 
freq.     158.54  E(vib)   ...       0.39 
freq.     159.55  E(vib)   ...       0.39 
freq.     161.71  E(vib)   ...       0.39 
freq.     167.61  E(vib)   ...       0.38 
freq.     175.01  E(vib)   ...       0.38 
freq.     180.02  E(vib)   ...       0.37 
freq.     185.83  E(vib)   ...       0.37 
freq.     192.07  E(vib)   ...       0.36 
freq.     194.98  E(vib)   ...       0.36 
freq.     201.19  E(vib)   ...       0.35 
freq.     204.00  E(vib)   ...       0.35 
freq.     217.31  E(vib)   ...       0.34 
freq.     222.13  E(vib)   ...       0.33 
freq.     226.57  E(vib)   ...       0.33 
freq.     230.39  E(vib)   ...       0.32 
freq.     234.33  E(vib)   ...       0.32 
freq.     237.20  E(vib)   ...       0.32 
freq.     237.59  E(vib)   ...       0.32 
freq.     240.54  E(vib)   ...       0.31 
freq.     245.18  E(vib)   ...       0.31 
freq.     250.29  E(vib)   ...       0.31 
freq.     260.54  E(vib)   ...       0.30 
freq.     267.98  E(vib)   ...       0.29 
freq.     269.42  E(vib)   ...       0.29 
freq.     272.04  E(vib)   ...       0.29 
freq.     277.45  E(vib)   ...       0.28 
freq.     291.92  E(vib)   ...       0.27 
freq.     304.51  E(vib)   ...       0.26 
freq.     307.70  E(vib)   ...       0.26 
freq.     314.45  E(vib)   ...       0.25 
freq.     320.50  E(vib)   ...       0.25 
freq.     329.11  E(vib)   ...       0.24 
freq.     332.87  E(vib)   ...       0.24 
freq.     336.64  E(vib)   ...       0.24 
freq.     339.95  E(vib)   ...       0.23 
freq.     349.19  E(vib)   ...       0.23 
freq.     376.53  E(vib)   ...       0.21 
freq.     379.52  E(vib)   ...       0.21 
freq.     382.77  E(vib)   ...       0.20 
freq.     385.92  E(vib)   ...       0.20 
freq.     414.77  E(vib)   ...       0.19 
freq.     428.07  E(vib)   ...       0.18 
freq.     434.38  E(vib)   ...       0.17 
freq.     437.27  E(vib)   ...       0.17 
freq.     441.68  E(vib)   ...       0.17 
freq.     452.10  E(vib)   ...       0.16 
freq.     458.09  E(vib)   ...       0.16 
freq.     464.92  E(vib)   ...       0.16 
freq.     476.32  E(vib)   ...       0.15 
freq.     487.40  E(vib)   ...       0.15 
freq.     508.45  E(vib)   ...       0.14 
freq.     527.87  E(vib)   ...       0.13 
freq.     532.68  E(vib)   ...       0.13 
freq.     536.87  E(vib)   ...       0.12 
freq.     550.65  E(vib)   ...       0.12 
freq.     554.56  E(vib)   ...       0.12 
freq.     567.55  E(vib)   ...       0.11 
freq.     583.24  E(vib)   ...       0.11 
freq.     596.27  E(vib)   ...       0.10 
freq.     623.14  E(vib)   ...       0.09 
freq.     634.61  E(vib)   ...       0.09 
freq.     641.46  E(vib)   ...       0.09 
freq.     647.25  E(vib)   ...       0.09 
freq.     648.64  E(vib)   ...       0.08 
freq.     674.92  E(vib)   ...       0.08 
freq.     679.78  E(vib)   ...       0.08 
freq.     702.59  E(vib)   ...       0.07 
freq.     711.69  E(vib)   ...       0.07 
freq.     715.41  E(vib)   ...       0.07 
freq.     716.69  E(vib)   ...       0.07 
freq.     723.31  E(vib)   ...       0.07 
freq.     726.15  E(vib)   ...       0.06 
freq.     729.15  E(vib)   ...       0.06 
freq.     738.28  E(vib)   ...       0.06 
freq.     738.78  E(vib)   ...       0.06 
freq.     754.45  E(vib)   ...       0.06 
freq.     757.83  E(vib)   ...       0.06 
freq.     774.03  E(vib)   ...       0.05 
freq.     779.85  E(vib)   ...       0.05 
freq.     789.88  E(vib)   ...       0.05 
freq.     803.97  E(vib)   ...       0.05 
freq.     814.31  E(vib)   ...       0.05 
freq.     818.40  E(vib)   ...       0.05 
freq.     824.96  E(vib)   ...       0.04 
freq.     833.51  E(vib)   ...       0.04 
freq.     847.23  E(vib)   ...       0.04 
freq.     852.92  E(vib)   ...       0.04 
freq.     863.30  E(vib)   ...       0.04 
freq.     873.00  E(vib)   ...       0.04 
freq.     877.50  E(vib)   ...       0.04 
freq.     877.85  E(vib)   ...       0.04 
freq.     889.73  E(vib)   ...       0.04 
freq.     891.35  E(vib)   ...       0.04 
freq.     897.94  E(vib)   ...       0.03 
freq.     901.35  E(vib)   ...       0.03 
freq.     902.22  E(vib)   ...       0.03 
freq.     909.46  E(vib)   ...       0.03 
freq.     915.84  E(vib)   ...       0.03 
freq.     916.94  E(vib)   ...       0.03 
freq.     924.77  E(vib)   ...       0.03 
freq.     934.48  E(vib)   ...       0.03 
freq.     937.92  E(vib)   ...       0.03 
freq.     938.52  E(vib)   ...       0.03 
freq.     941.95  E(vib)   ...       0.03 
freq.     948.39  E(vib)   ...       0.03 
freq.     949.65  E(vib)   ...       0.03 
freq.     959.79  E(vib)   ...       0.03 
freq.     967.16  E(vib)   ...       0.03 
freq.     969.18  E(vib)   ...       0.03 
freq.     979.53  E(vib)   ...       0.03 
freq.     980.30  E(vib)   ...       0.02 
freq.     983.55  E(vib)   ...       0.02 
freq.     998.45  E(vib)   ...       0.02 
freq.    1007.12  E(vib)   ...       0.02 
freq.    1013.58  E(vib)   ...       0.02 
freq.    1018.09  E(vib)   ...       0.02 
freq.    1035.98  E(vib)   ...       0.02 
freq.    1041.02  E(vib)   ...       0.02 
freq.    1041.78  E(vib)   ...       0.02 
freq.    1043.78  E(vib)   ...       0.02 
freq.    1046.58  E(vib)   ...       0.02 
freq.    1052.54  E(vib)   ...       0.02 
freq.    1058.12  E(vib)   ...       0.02 
freq.    1060.37  E(vib)   ...       0.02 
freq.    1066.60  E(vib)   ...       0.02 
freq.    1069.40  E(vib)   ...       0.02 
freq.    1073.44  E(vib)   ...       0.02 
freq.    1082.86  E(vib)   ...       0.02 
freq.    1084.96  E(vib)   ...       0.02 
freq.    1089.27  E(vib)   ...       0.02 
freq.    1093.05  E(vib)   ...       0.02 
freq.    1102.83  E(vib)   ...       0.02 
freq.    1104.85  E(vib)   ...       0.02 
freq.    1112.68  E(vib)   ...       0.01 
freq.    1115.94  E(vib)   ...       0.01 
freq.    1116.39  E(vib)   ...       0.01 
freq.    1134.67  E(vib)   ...       0.01 
freq.    1139.24  E(vib)   ...       0.01 
freq.    1140.68  E(vib)   ...       0.01 
freq.    1143.79  E(vib)   ...       0.01 
freq.    1152.97  E(vib)   ...       0.01 
freq.    1160.32  E(vib)   ...       0.01 
freq.    1167.04  E(vib)   ...       0.01 
freq.    1173.87  E(vib)   ...       0.01 
freq.    1174.57  E(vib)   ...       0.01 
freq.    1177.70  E(vib)   ...       0.01 
freq.    1178.32  E(vib)   ...       0.01 
freq.    1189.92  E(vib)   ...       0.01 
freq.    1193.72  E(vib)   ...       0.01 
freq.    1201.51  E(vib)   ...       0.01 
freq.    1204.45  E(vib)   ...       0.01 
freq.    1208.08  E(vib)   ...       0.01 
freq.    1212.28  E(vib)   ...       0.01 
freq.    1216.72  E(vib)   ...       0.01 
freq.    1217.56  E(vib)   ...       0.01 
freq.    1219.14  E(vib)   ...       0.01 
freq.    1222.11  E(vib)   ...       0.01 
freq.    1229.92  E(vib)   ...       0.01 
freq.    1241.21  E(vib)   ...       0.01 
freq.    1245.81  E(vib)   ...       0.01 
freq.    1250.80  E(vib)   ...       0.01 
freq.    1252.26  E(vib)   ...       0.01 
freq.    1257.22  E(vib)   ...       0.01 
freq.    1260.42  E(vib)   ...       0.01 
freq.    1268.15  E(vib)   ...       0.01 
freq.    1273.77  E(vib)   ...       0.01 
freq.    1275.95  E(vib)   ...       0.01 
freq.    1277.20  E(vib)   ...       0.01 
freq.    1282.68  E(vib)   ...       0.01 
freq.    1284.85  E(vib)   ...       0.01 
freq.    1285.74  E(vib)   ...       0.01 
freq.    1287.57  E(vib)   ...       0.01 
freq.    1288.94  E(vib)   ...       0.01 
freq.    1292.06  E(vib)   ...       0.01 
freq.    1293.15  E(vib)   ...       0.01 
freq.    1297.95  E(vib)   ...       0.01 
freq.    1303.42  E(vib)   ...       0.01 
freq.    1308.14  E(vib)   ...       0.01 
freq.    1309.29  E(vib)   ...       0.01 
freq.    1311.67  E(vib)   ...       0.01 
freq.    1315.18  E(vib)   ...       0.01 
freq.    1317.36  E(vib)   ...       0.01 
freq.    1320.38  E(vib)   ...       0.01 
freq.    1324.38  E(vib)   ...       0.01 
freq.    1326.24  E(vib)   ...       0.01 
freq.    1330.64  E(vib)   ...       0.01 
freq.    1331.34  E(vib)   ...       0.01 
freq.    1336.79  E(vib)   ...       0.01 
freq.    1338.69  E(vib)   ...       0.01 
freq.    1344.38  E(vib)   ...       0.01 
freq.    1348.50  E(vib)   ...       0.01 
freq.    1349.11  E(vib)   ...       0.01 
freq.    1352.08  E(vib)   ...       0.01 
freq.    1353.07  E(vib)   ...       0.01 
freq.    1353.55  E(vib)   ...       0.01 
freq.    1361.86  E(vib)   ...       0.01 
freq.    1363.65  E(vib)   ...       0.01 
freq.    1364.01  E(vib)   ...       0.01 
freq.    1367.82  E(vib)   ...       0.01 
freq.    1368.89  E(vib)   ...       0.01 
freq.    1377.24  E(vib)   ...       0.01 
freq.    1408.93  E(vib)   ...       0.00 
freq.    1421.66  E(vib)   ...       0.00 
freq.    1430.42  E(vib)   ...       0.00 
freq.    1431.14  E(vib)   ...       0.00 
freq.    1432.58  E(vib)   ...       0.00 
freq.    1434.26  E(vib)   ...       0.00 
freq.    1435.37  E(vib)   ...       0.00 
freq.    1436.95  E(vib)   ...       0.00 
freq.    1437.47  E(vib)   ...       0.00 
freq.    1438.52  E(vib)   ...       0.00 
freq.    1439.81  E(vib)   ...       0.00 
freq.    1440.77  E(vib)   ...       0.00 
freq.    1441.14  E(vib)   ...       0.00 
freq.    1442.61  E(vib)   ...       0.00 
freq.    1443.38  E(vib)   ...       0.00 
freq.    1444.82  E(vib)   ...       0.00 
freq.    1446.64  E(vib)   ...       0.00 
freq.    1449.06  E(vib)   ...       0.00 
freq.    1450.35  E(vib)   ...       0.00 
freq.    1450.90  E(vib)   ...       0.00 
freq.    1451.05  E(vib)   ...       0.00 
freq.    1454.81  E(vib)   ...       0.00 
freq.    1457.33  E(vib)   ...       0.00 
freq.    1457.84  E(vib)   ...       0.00 
freq.    1458.65  E(vib)   ...       0.00 
freq.    1459.93  E(vib)   ...       0.00 
freq.    1462.25  E(vib)   ...       0.00 
freq.    1463.33  E(vib)   ...       0.00 
freq.    1465.34  E(vib)   ...       0.00 
freq.    1469.15  E(vib)   ...       0.00 
freq.    1481.67  E(vib)   ...       0.00 
freq.    1490.97  E(vib)   ...       0.00 
freq.    1493.39  E(vib)   ...       0.00 
freq.    1512.28  E(vib)   ...       0.00 
freq.    1626.19  E(vib)   ...       0.00 
freq.    1659.85  E(vib)   ...       0.00 
freq.    1675.74  E(vib)   ...       0.00 
freq.    1678.11  E(vib)   ...       0.00 
freq.    1681.82  E(vib)   ...       0.00 
freq.    1690.85  E(vib)   ...       0.00 
freq.    1720.53  E(vib)   ...       0.00 
freq.    2923.84  E(vib)   ...       0.00 
freq.    2926.35  E(vib)   ...       0.00 
freq.    2929.24  E(vib)   ...       0.00 
freq.    2935.04  E(vib)   ...       0.00 
freq.    2937.89  E(vib)   ...       0.00 
freq.    2941.58  E(vib)   ...       0.00 
freq.    2942.03  E(vib)   ...       0.00 
freq.    2942.31  E(vib)   ...       0.00 
freq.    2946.60  E(vib)   ...       0.00 
freq.    2950.51  E(vib)   ...       0.00 
freq.    2951.56  E(vib)   ...       0.00 
freq.    2954.36  E(vib)   ...       0.00 
freq.    2955.84  E(vib)   ...       0.00 
freq.    2956.99  E(vib)   ...       0.00 
freq.    2957.97  E(vib)   ...       0.00 
freq.    2959.63  E(vib)   ...       0.00 
freq.    2961.00  E(vib)   ...       0.00 
freq.    2961.40  E(vib)   ...       0.00 
freq.    2963.99  E(vib)   ...       0.00 
freq.    2968.33  E(vib)   ...       0.00 
freq.    2969.92  E(vib)   ...       0.00 
freq.    2978.04  E(vib)   ...       0.00 
freq.    2978.06  E(vib)   ...       0.00 
freq.    2979.15  E(vib)   ...       0.00 
freq.    2984.54  E(vib)   ...       0.00 
freq.    2985.24  E(vib)   ...       0.00 
freq.    2985.61  E(vib)   ...       0.00 
freq.    2986.41  E(vib)   ...       0.00 
freq.    2988.24  E(vib)   ...       0.00 
freq.    2991.66  E(vib)   ...       0.00 
freq.    2993.68  E(vib)   ...       0.00 
freq.    2995.66  E(vib)   ...       0.00 
freq.    2999.39  E(vib)   ...       0.00 
freq.    3001.10  E(vib)   ...       0.00 
freq.    3011.18  E(vib)   ...       0.00 
freq.    3014.41  E(vib)   ...       0.00 
freq.    3016.80  E(vib)   ...       0.00 
freq.    3017.43  E(vib)   ...       0.00 
freq.    3017.50  E(vib)   ...       0.00 
freq.    3020.60  E(vib)   ...       0.00 
freq.    3022.02  E(vib)   ...       0.00 
freq.    3026.87  E(vib)   ...       0.00 
freq.    3027.76  E(vib)   ...       0.00 
freq.    3027.88  E(vib)   ...       0.00 
freq.    3027.97  E(vib)   ...       0.00 
freq.    3028.28  E(vib)   ...       0.00 
freq.    3035.89  E(vib)   ...       0.00 
freq.    3037.27  E(vib)   ...       0.00 
freq.    3038.34  E(vib)   ...       0.00 
freq.    3041.64  E(vib)   ...       0.00 
freq.    3042.08  E(vib)   ...       0.00 
freq.    3049.75  E(vib)   ...       0.00 
freq.    3054.70  E(vib)   ...       0.00 
freq.    3058.40  E(vib)   ...       0.00 
freq.    3060.27  E(vib)   ...       0.00 
freq.    3068.07  E(vib)   ...       0.00 
freq.    3073.17  E(vib)   ...       0.00 
freq.    3074.47  E(vib)   ...       0.00 
freq.    3281.99  E(vib)   ...       0.00 
freq.    3390.50  E(vib)   ...       0.00 
freq.    3451.50  E(vib)   ...       0.00 
freq.    3476.43  E(vib)   ...       0.00 
freq.    3501.17  E(vib)   ...       0.00 
freq.    3525.94  E(vib)   ...       0.00 

------------
INNER ENERGY
------------

The inner energy is: U= E(el) + E(ZPE) + E(vib) + E(rot) + E(trans)
    E(el)   - is the total energy from the electronic structure calculation
              = E(kin-el) + E(nuc-el) + E(el-el) + E(nuc-nuc)
    E(ZPE)  - the the zero temperature vibrational energy from the frequency calculation
    E(vib)  - the the finite temperature correction to E(ZPE) due to population
              of excited vibrational states
    E(rot)  - is the rotational thermal energy
    E(trans)- is the translational thermal energy

Summary of contributions to the inner energy U:
Electronic energy                ...  -2380.09047737 Eh
Zero point energy                ...      0.97833055 Eh     613.91 kcal/mol
Thermal vibrational correction   ...      0.05455384 Eh      34.23 kcal/mol
Thermal rotational correction    ...      0.00141627 Eh       0.89 kcal/mol
Thermal translational correction ...      0.00141627 Eh       0.89 kcal/mol
-----------------------------------------------------------------------
Total thermal energy                  -2379.05476044 Eh


Summary of corrections to the electronic energy:
(perhaps to be used in another calculation)
Total thermal correction                  0.05738638 Eh      36.01 kcal/mol
Non-thermal (ZPE) correction              0.97833055 Eh     613.91 kcal/mol
-----------------------------------------------------------------------
Total correction                          1.03571693 Eh     649.92 kcal/mol


--------
ENTHALPY
--------

The enthalpy is H = U + kB*T
                kB is Boltzmann's constant
Total free energy                 ...  -2379.05476044 Eh 
Thermal Enthalpy correction       ...      0.00094421 Eh       0.59 kcal/mol
-----------------------------------------------------------------------
Total Enthalpy                    ...  -2379.05381623 Eh


Note: Only C1 symmetry has been detected, increase convergence thresholds 
      if your molecule has a higher symmetry. Symmetry factor of 1.0 is   
      used for the rotational entropy correction. 
 

Note: Rotational entropy computed according to Herzberg 
Infrared and Raman Spectra, Chapter V,1, Van Nostrand Reinhold, 1945 
Point Group:  C1, Symmetry Number:   1  
Rotational constants in cm-1:     0.002136     0.001581     0.001351 

Vibrational entropy computed according to the QRRHO of S. Grimme
Chem.Eur.J. 2012 18 9955


-------
ENTROPY
-------

The entropy contributions are T*S = T*(S(el)+S(vib)+S(rot)+S(trans))
     S(el)   - electronic entropy
     S(vib)  - vibrational entropy
     S(rot)  - rotational entropy
     S(trans)- translational entropy
The entropies will be listed as mutliplied by the temperature to get
units of energy

Electronic entropy                ...      0.00000000 Eh      0.00 kcal/mol
Vibrational entropy               ...      0.09941362 Eh     62.38 kcal/mol
Rotational entropy                ...      0.01857737 Eh     11.66 kcal/mol
Translational entropy             ...      0.02166895 Eh     13.60 kcal/mol
-----------------------------------------------------------------------
Final entropy term                ...      0.13965994 Eh     87.64 kcal/mol

In case the symmetry of your molecule has not been determined correctly
or in case you have a reason to use a different symmetry number we print 
out the resulting rotational entropy values for sn=1,12 :
 --------------------------------------------------------
|  sn= 1 | S(rot)=       0.01857737 Eh     11.66 kcal/mol|
|  sn= 2 | S(rot)=       0.01792291 Eh     11.25 kcal/mol|
|  sn= 3 | S(rot)=       0.01754008 Eh     11.01 kcal/mol|
|  sn= 4 | S(rot)=       0.01726845 Eh     10.84 kcal/mol|
|  sn= 5 | S(rot)=       0.01705777 Eh     10.70 kcal/mol|
|  sn= 6 | S(rot)=       0.01688562 Eh     10.60 kcal/mol|
|  sn= 7 | S(rot)=       0.01674008 Eh     10.50 kcal/mol|
|  sn= 8 | S(rot)=       0.01661400 Eh     10.43 kcal/mol|
|  sn= 9 | S(rot)=       0.01650279 Eh     10.36 kcal/mol|
|  sn=10 | S(rot)=       0.01640331 Eh     10.29 kcal/mol|
|  sn=11 | S(rot)=       0.01631332 Eh     10.24 kcal/mol|
|  sn=12 | S(rot)=       0.01623117 Eh     10.19 kcal/mol|
 --------------------------------------------------------


-------------------
GIBBS FREE ENERGY
-------------------

The Gibbs free energy is G = H - T*S

Total enthalpy                    ...  -2379.05381623 Eh 
Total entropy correction          ...     -0.13965994 Eh    -87.64 kcal/mol
-----------------------------------------------------------------------
Final Gibbs free energy         ...  -2379.19347617 Eh

For completeness - the Gibbs free energy minus the electronic energy
G-E(el)                           ...      0.89700120 Eh    562.88 kcal/mol

--------------------------------------------------------------------------
WARNING: No preset parameters were found for the device that Open MPI
detected:

  Local host:            eu-g1-045-3
  Device name:           mlx5_0
  Device vendor ID:      0x02c9
  Device vendor part ID: 4123

Default device parameters will be used, which may result in lower
performance.  You can edit any of the files specified by the
btl_openib_device_param_files MCA parameter to set values for your
device.

NOTE: You can turn off this warning by setting the MCA parameter
      btl_openib_warn_no_device_params_found to 0.
--------------------------------------------------------------------------
--------------------------------------------------------------------------
WARNING: There was an error initializing an OpenFabrics device.

  Local host:   eu-g1-045-3
  Local device: mlx5_0
--------------------------------------------------------------------------

Timings for individual modules:

Sum of individual times         ...    40874.317 sec (= 681.239 min)
GTO integral calculation        ...       36.115 sec (=   0.602 min)   0.1 %
SCF iterations                  ...     1032.665 sec (=  17.211 min)   2.5 %
SCF Gradient evaluation         ...      361.737 sec (=   6.029 min)   0.9 %
Geometry relaxation             ...       13.414 sec (=   0.224 min)   0.0 %
Analytical frequency calculation...    39430.386 sec (= 657.173 min)  96.5 %
                             ****ORCA TERMINATED NORMALLY****
TOTAL RUN TIME: 0 days 11 hours 21 minutes 38 seconds 43 msec
