
                                 *****************
                                 * O   R   C   A *
                                 *****************

           --- An Ab Initio, DFT and Semiempirical electronic structure package ---

                  #######################################################
                  #                        -***-                        #
                  #          Department of theory and spectroscopy      #
                  #               Directorship: Frank Neese             #
                  #        Max Planck Institute fuer Kohlenforschung    #
                  #                Kaiser Wilhelm Platz 1               #
                  #                 D-45470 Muelheim/Ruhr               #
                  #                      Germany                        #
                  #                                                     #
                  #                  All rights reserved                #
                  #                        -***-                        #
                  #######################################################


                         Program Version 4.2.0 -  RELEASE  -


 With contributions from (in alphabetic order):
   Daniel Aravena         : Magnetic Suceptibility
   Michael Atanasov       : Ab Initio Ligand Field Theory (pilot matlab implementation)
   Alexander A. Auer      : GIAO ZORA, VPT2
   Ute Becker             : Parallelization
   Giovanni Bistoni       : ED, misc. LED, open-shell LED, HFLED
   Martin Brehm           : Molecular dynamics
   Dmytro Bykov           : SCF Hessian
   Vijay G. Chilkuri      : MRCI spin determinant printing, contributions to CSF-ICE
   Dipayan Datta          : RHF DLPNO-CCSD density
   Achintya Kumar Dutta   : EOM-CC, STEOM-CC
   Dmitry Ganyushin       : Spin-Orbit,Spin-Spin,Magnetic field MRCI
   Miquel Garcia          : C-PCM Hessian, Gaussian charge scheme
   Yang Guo               : DLPNO-NEVPT2, CIM, IAO-localization
   Andreas Hansen         : Spin unrestricted coupled pair/coupled cluster methods
   Benjamin Helmich-Paris : CASSCF linear response (MC-RPA)
   Lee Huntington         : MR-EOM, pCC
   Robert Izsak           : Overlap fitted RIJCOSX, COSX-SCS-MP3, EOM
   Christian Kollmar      : KDIIS, OOCD, Brueckner-CCSD(T), CCSD density
   Simone Kossmann        : Meta GGA functionals, TD-DFT gradient, OOMP2, MP2 Hessian
   Martin Krupicka        : AUTO-CI
   Lucas Lang             : DCDCAS
   Dagmar Lenk            : GEPOL surface, SMD
   Dimitrios Liakos       : Extrapolation schemes; Compound Job, initial MDCI parallelization
   Dimitrios Manganas     : Further ROCIS development; embedding schemes
   Dimitrios Pantazis     : SARC Basis sets
   Taras Petrenko         : DFT Hessian,TD-DFT gradient, ASA, ECA, R-Raman, ABS, FL, XAS/XES, NRVS
   Peter Pinski           : DLPNO-MP2, DLPNO-MP2 Gradient
   Christoph Reimann      : Effective Core Potentials
   Marius Retegan         : Local ZFS, SOC
   Christoph Riplinger    : Optimizer, TS searches, QM/MM, DLPNO-CCSD(T), (RO)-DLPNO pert. Triples
   Tobias Risthaus        : Range-separated hybrids, TD-DFT gradient, RPA, STAB
   Michael Roemelt        : Original ROCIS implementation
   Masaaki Saitow         : Open-shell DLPNO-CCSD energy and density
   Barbara Sandhoefer     : DKH picture change effects
   Avijit Sen             : IP-ROCIS
   Kantharuban Sivalingam : CASSCF convergence, NEVPT2, FIC-MRCI
   Bernardo de Souza      : ESD, SOC TD-DFT
   Georgi Stoychev        : AutoAux, RI-MP2 NMR
   Willem Van den Heuvel  : Paramagnetic NMR
   Boris Wezisla          : Elementary symmetry handling
   Frank Wennmohs         : Technical directorship


 We gratefully acknowledge several colleagues who have allowed us to
 interface, adapt or use parts of their codes:
   Stefan Grimme, W. Hujo, H. Kruse,             : VdW corrections, initial TS optimization,
                  C. Bannwarth                     DFT functionals, gCP, sTDA/sTD-DF
   Ed Valeev, F. Pavosevic, A. Kumar             : LibInt (2-el integral package), F12 methods
   Garnet Chan, S. Sharma, J. Yang, R. Olivares  : DMRG
   Ulf Ekstrom                                   : XCFun DFT Library
   Mihaly Kallay                                 : mrcc  (arbitrary order and MRCC methods)
   Andreas Klamt, Michael Diedenhofen            : otool_cosmo (COSMO solvation model)
   Jiri Pittner, Ondrej Demel                    : Mk-CCSD
   Frank Weinhold                                : gennbo (NPA and NBO analysis)
   Christopher J. Cramer and Donald G. Truhlar   : smd solvation model
   Lars Goerigk                                  : TD-DFT with DH, B97 family of functionals
   V. Asgeirsson, H. Jonsson                     : NEB implementation
   FAccTs GmbH                                   : IRC, NEB, NEB-TS, Multilevel, MM, QM/MM, CI optimization
   S Lehtola, MJT Oliveira, MAL Marques          : LibXC Library


 Your calculation uses the libint2 library for the computation of 2-el integrals
 For citations please refer to: http://libint.valeyev.net

 Your ORCA version has been built with support for libXC version: 4.2.3
 For citations please refer to: https://tddft.org/programs/libxc/

 This ORCA versions uses:
   CBLAS   interface :  Fast vector & matrix operations
   LAPACKE interface :  Fast linear algebra routines
   SCALAPACK package :  Parallel linear algebra routines




***************************************
The coordinates will be read from file: 35.xyz
***************************************


Your calculation utilizes the atom-pairwise dispersion correction
with the Becke-Johnson damping scheme (D3BJ)
Cite in your paper:
S.Grimme, S.Ehrlich, L.Goerigk, J Comput Chem, (2011), 32, 1456–1465 
S.Grimme, J.Antony, S.Ehrlich and H.Krieg, J.Chem.Phys., 132, (2010), 154104 
   

----- Orbital basis set information -----
Your calculation utilizes the basis: def2-TZVP
   F. Weigend and R. Ahlrichs, Phys. Chem. Chem. Phys. 7, 3297 (2005).

----- AuxJ basis set information -----
Your calculation utilizes the auxiliary basis: def2/J
   F. Weigend, Phys. Chem. Chem. Phys. 8, 1057 (2006).

================================================================================
                                        WARNINGS
                       Please study these warnings very carefully!
================================================================================


WARNING: Geometry Optimization
  ===> : Switching off AutoStart
         For restart on a previous wavefunction, please use MOREAD

INFO   : the flag for use of LIBINT has been found!

================================================================================
                                       INPUT FILE
================================================================================
NAME = 35.inp
|  1> !RI BP86 def2-tzvp def2/J D3BJ TIGHTSCF TightOpt Grid5 FinalGrid6 freq
|  2> %maxcore 4000
|  3> %pal nprocs 24
|  4> end
|  5> * xyzfile 0 1 35.xyz 
|  6> 
|  7>                          ****END OF INPUT****
================================================================================

                       *****************************
                       * Geometry Optimization Run *
                       *****************************

Geometry optimization settings:
Update method            Update   .... BFGS
Choice of coordinates    CoordSys .... Z-matrix Internals
Initial Hessian          InHess   .... Almoef's Model

Convergence Tolerances:
Energy Change            TolE     ....  1.0000e-06 Eh
Max. Gradient            TolMAXG  ....  1.0000e-04 Eh/bohr
RMS Gradient             TolRMSG  ....  3.0000e-05 Eh/bohr
Max. Displacement        TolMAXD  ....  1.0000e-03 bohr
RMS Displacement         TolRMSD  ....  6.0000e-04 bohr
Strict Convergence                ....  False
------------------------------------------------------------------------------
                        ORCA OPTIMIZATION COORDINATE SETUP
------------------------------------------------------------------------------

The optimization will be done in new redundant internal coordinates
Making redundant internal coordinates   ...  (new redundants) done
Evaluating the initial hessian          ...  (Almloef) done
Evaluating the coordinates              ...  done
Calculating the B-matrix                .... done
Calculating the G-matrix                .... done
Diagonalizing the G-matrix              .... done
Small eigenvalue found = 2.328e-03
Small eigenvalue found = 2.538e-03
Small eigenvalue found = 3.376e-03
Small eigenvalue found = 4.263e-03
Small eigenvalue found = 5.277e-03
Small eigenvalue found = 7.210e-03
Small eigenvalue found = 8.924e-03
Small eigenvalue found = 9.410e-03
Small eigenvalue found = 1.023e-02
Small eigenvalue found = 1.186e-02
Small eigenvalue found = 1.346e-02
Small eigenvalue found = 1.555e-02
Small eigenvalue found = 1.686e-02
Small eigenvalue found = 1.986e-02
Small eigenvalue found = 2.308e-02
Small eigenvalue found = 2.724e-02
Small eigenvalue found = 2.896e-02
Small eigenvalue found = 2.977e-02
The first mode is                       ....  328
The number of degrees of freedom        ....  339

    -----------------------------------------------------------------
                    Redundant Internal Coordinates


    -----------------------------------------------------------------
         Definition                    Initial Value    Approx d2E/dq
    -----------------------------------------------------------------
      1. B(C   1,O   0)                  1.2292         1.010400   
      2. B(C   2,C   1)                  1.5614         0.332814   
      3. B(C   3,C   2)                  1.5256         0.379605   
      4. B(C   4,C   3)                  1.5356         0.365932   
      5. B(C   5,C   4)                  1.5350         0.366762   
      6. B(N   6,C   2)                  1.4833         0.397247   
      7. B(N   6,C   5)                  1.4807         0.401083   
      8. B(C   7,N   6)                  1.3431         0.664891   
      9. B(O   8,C   7)                  1.2547         0.919937   
     10. B(N   9,C   1)                  1.3527         0.641669   
     11. B(C  10,N   9)                  1.4566         0.438088   
     12. B(C  11,C  10)                  1.5372         0.363873   
     13. B(N  12,C  11)                  1.3840         0.572008   
     14. B(C  13,N  12)                  1.4562         0.438850   
     15. B(C  14,C  13)                  1.5322         0.370577   
     16. B(N  15,C  14)                  1.3759         0.589359   
     17. B(C  16,N  15)                  1.4639         0.426511   
     18. B(C  17,C  16)                  1.5388         0.361642   
     19. B(C  18,C  17)                  1.5499         0.347279   
     20. B(C  19,C  18)                  1.5402         0.359811   
     21. B(N  20,C  19)                  1.3599         0.625021   
     22. B(C  21,N  20)                  1.4543         0.441902   
     23. B(C  22,C  21)                  1.5441         0.354711   
     24. B(N  23,C  22)                  1.3592         0.626619   
     25. B(C  24,N  23)                  1.4522         0.445345   
     26. B(C  24,C   7)                  1.5360         0.365423   
     27. B(C  25,C  24)                  1.5299         0.373695   
     28. B(O  26,C  22)                  1.2359         0.985543   
     29. B(C  27,C  21)                  1.5296         0.374068   
     30. B(C  28,C  27)                  1.5335         0.368837   
     31. B(C  29,C  28)                  1.5320         0.370823   
     32. B(C  30,C  28)                  1.5309         0.372382   
     33. B(O  31,C  19)                  1.2305         1.005316   
     34. B(C  32,C  18)                  1.5323         0.370454   
     35. B(C  33,C  32)                  1.5195         0.388279   
     36. B(C  34,C  33)                  1.5345         0.367465   
     37. B(C  35,C  34)                  1.5296         0.374090   
     38. B(C  36,C  35)                  1.5303         0.373198   
     39. B(C  37,C  36)                  1.5295         0.374252   
     40. B(C  38,C  37)                  1.5360         0.365483   
     41. B(C  39,C  38)                  1.5318         0.371072   
     42. B(C  40,C  39)                  1.5296         0.374089   
     43. B(C  41,C  40)                  1.5296         0.374097   
     44. B(O  42,C  32)                  1.2185         1.050588   
     45. B(O  43,C  17)                  1.4492         0.450191   
     46. B(O  44,C  14)                  1.2327         0.997149   
     47. B(C  45,C  13)                  1.5514         0.345360   
     48. B(C  46,C  45)                  1.5267         0.378100   
     49. B(O  47,C  11)                  1.2237         1.030817   
     50. B(C  48,C  10)                  1.5498         0.347424   
     51. B(C  49,C  48)                  1.5314         0.371628   
     52. B(C  50,C  48)                  1.5295         0.374196   
     53. B(H  51,C   2)                  1.0997         0.347491   
     54. B(H  52,C   3)                  1.0998         0.347424   
     55. B(H  53,C   3)                  1.0954         0.353018   
     56. B(H  54,C   4)                  1.0987         0.348788   
     57. B(H  55,C   4)                  1.0968         0.351234   
     58. B(H  56,C   5)                  1.0984         0.349219   
     59. B(H  57,C   5)                  1.1012         0.345529   
     60. B(H  58,N   9)                  1.0279         0.405195   
     61. B(H  59,C  10)                  1.0987         0.348785   
     62. B(H  60,N  12)                  1.0193         0.418213   
     63. B(H  61,C  13)                  1.1006         0.346386   
     64. B(H  62,O   8)                  1.9337         0.014536   
     65. B(H  62,N  15)                  1.0277         0.405497   
     66. B(H  63,C  16)                  1.0984         0.349117   
     67. B(H  64,C  16)                  1.0974         0.350426   
     68. B(H  65,C  17)                  1.1012         0.345560   
     69. B(H  66,C  18)                  1.0989         0.348488   
     70. B(H  67,N  20)                  1.0225         0.413225   
     71. B(H  68,C  21)                  1.1019         0.344747   
     72. B(H  69,N  23)                  1.0282         0.404650   
     73. B(H  70,C  24)                  1.0973         0.350519   
     74. B(H  71,C  25)                  1.0979         0.349749   
     75. B(H  72,C  25)                  1.0982         0.349395   
     76. B(H  73,C  25)                  1.0974         0.350468   
     77. B(H  74,C  27)                  1.1004         0.346542   
     78. B(H  75,C  27)                  1.1036         0.342603   
     79. B(H  76,C  28)                  1.1035         0.342648   
     80. B(H  77,C  29)                  1.0989         0.348549   
     81. B(H  78,C  29)                  1.0997         0.347545   
     82. B(H  79,C  29)                  1.1020         0.344621   
     83. B(H  80,C  30)                  1.1003         0.346682   
     84. B(H  81,C  30)                  1.1013         0.345419   
     85. B(H  82,C  30)                  1.0990         0.348376   
     86. B(H  83,C  33)                  1.1077         0.337422   
     87. B(H  84,C  33)                  1.0987         0.348790   
     88. B(H  85,C  34)                  1.1005         0.346428   
     89. B(H  86,C  34)                  1.1016         0.345033   
     90. B(H  87,C  35)                  1.1040         0.342045   
     91. B(H  88,C  35)                  1.1030         0.343300   
     92. B(H  89,C  36)                  1.1040         0.342060   
     93. B(H  90,H  76)                  2.2582         0.000943   
     94. B(H  90,C  36)                  1.1023         0.344212   
     95. B(H  91,C  37)                  1.1045         0.341402   
     96. B(H  92,C  37)                  1.1024         0.344005   
     97. B(H  93,C  38)                  1.1026         0.343864   
     98. B(H  94,C  38)                  1.1050         0.340804   
     99. B(H  95,C  39)                  1.1024         0.344012   
    100. B(H  96,C  39)                  1.1044         0.341489   
    101. B(H  97,C  40)                  1.1032         0.343085   
    102. B(H  98,C  40)                  1.1034         0.342834   
    103. B(H  99,C  41)                  1.0992         0.348179   
    104. B(H 100,C  41)                  1.1005         0.346482   
    105. B(H 101,H  80)                  2.5468         0.000327   
    106. B(H 101,C  41)                  1.1010         0.345842   
    107. B(H 102,O  43)                  0.9766         0.489148   
    108. B(H 103,H  76)                  2.2288         0.001051   
    109. B(H 103,C  45)                  1.1043         0.341616   
    110. B(H 104,C  45)                  1.1012         0.345614   
    111. B(H 105,H  98)                  4.8377         0.000000   
    112. B(H 105,C  46)                  1.0982         0.349478   
    113. B(H 106,C  46)                  1.0956         0.352828   
    114. B(H 107,C  46)                  1.0993         0.348044   
    115. B(H 108,H  75)                  2.1124         0.001612   
    116. B(H 108,C  48)                  1.1056         0.340087   
    117. B(H 109,H 100)                  4.2485         0.000001   
    118. B(H 109,C  49)                  1.1002         0.346908   
    119. B(H 110,C  49)                  1.1004         0.346618   
    120. B(H 111,C  49)                  1.0988         0.348633   
    121. B(H 112,C  50)                  1.0967         0.351378   
    122. B(H 113,C  50)                  1.0991         0.348220   
    123. B(H 114,C  50)                  1.0995         0.347721   
    124. A(O   0,C   1,N   9)          125.6657         0.471040   
    125. A(C   2,C   1,N   9)          112.0259         0.388596   
    126. A(O   0,C   1,C   2)          122.3084         0.421022   
    127. A(C   1,C   2,H  51)          108.1406         0.316403   
    128. A(N   6,C   2,H  51)          108.4563         0.323749   
    129. A(C   1,C   2,N   6)          112.0806         0.357783   
    130. A(C   1,C   2,C   3)          111.2285         0.357241   
    131. A(C   3,C   2,H  51)          114.0371         0.323276   
    132. A(C   3,C   2,N   6)          102.8710         0.365906   
    133. A(C   4,C   3,H  53)          112.6956         0.322170   
    134. A(C   4,C   3,H  52)          111.2002         0.321328   
    135. A(C   2,C   3,C   4)          102.5927         0.363062   
    136. A(C   2,C   3,H  53)          110.7110         0.324114   
    137. A(C   2,C   3,H  52)          110.0203         0.323265   
    138. A(H  52,C   3,H  53)          109.4584         0.288311   
    139. A(H  54,C   4,H  55)          108.1123         0.288259   
    140. A(C   3,C   4,H  55)          113.4093         0.321903   
    141. A(C   3,C   4,C   5)          103.9756         0.360936   
    142. A(C   3,C   4,H  54)          109.2191         0.321535   
    143. A(C   5,C   4,H  55)          111.8707         0.322022   
    144. A(C   5,C   4,H  54)          110.1991         0.321654   
    145. A(H  56,C   5,H  57)          108.8996         0.287577   
    146. A(C   4,C   5,N   6)          103.7399         0.364356   
    147. A(C   4,C   5,H  56)          112.9571         0.321719   
    148. A(N   6,C   5,H  57)          109.8630         0.323959   
    149. A(N   6,C   5,H  56)          109.9611         0.324525   
    150. A(C   4,C   5,H  57)          111.3158         0.321160   
    151. A(C   5,N   6,C   7)          125.6713         0.401452   
    152. A(C   2,N   6,C   7)          122.9922         0.400773   
    153. A(C   2,N   6,C   5)          111.3365         0.367070   
    154. A(O   8,C   7,C  24)          119.6891         0.420997   
    155. A(N   6,C   7,O   8)          122.0033         0.466036   
    156. A(N   6,C   7,C  24)          118.2842         0.397474   
    157. A(C   1,N   9,C  10)          125.6460         0.405201   
    158. A(C  10,N   9,H  58)          118.2382         0.334603   
    159. A(C   1,N   9,H  58)          116.0269         0.356762   
    160. A(C  48,C  10,H  59)          109.7774         0.318818   
    161. A(C  11,C  10,H  59)          107.0674         0.321237   
    162. A(N   9,C  10,C  11)          106.4310         0.369409   
    163. A(N   9,C  10,C  48)          112.1617         0.366488   
    164. A(N   9,C  10,H  59)          108.5876         0.329209   
    165. A(C  11,C  10,C  48)          112.5898         0.357279   
    166. A(N  12,C  11,O  47)          123.0675         0.462920   
    167. A(C  10,C  11,O  47)          123.5043         0.429332   
    168. A(C  10,C  11,N  12)          113.3613         0.386859   
    169. A(C  13,N  12,H  60)          117.4993         0.336465   
    170. A(C  11,N  12,C  13)          120.8855         0.397204   
    171. A(C  11,N  12,H  60)          115.5274         0.351761   
    172. A(C  14,C  13,C  45)          110.9733         0.358027   
    173. A(N  12,C  13,H  61)          105.6601         0.328928   
    174. A(C  14,C  13,H  61)          107.0018         0.321835   
    175. A(N  12,C  13,C  14)          113.7653         0.370680   
    176. A(C  45,C  13,H  61)          108.6777         0.318150   
    177. A(N  12,C  13,C  45)          110.4511         0.366223   
    178. A(C  13,C  14,N  15)          117.8514         0.390122   
    179. A(N  15,C  14,O  44)          121.8412         0.462639   
    180. A(C  13,C  14,O  44)          120.0646         0.428182   
    181. A(C  14,N  15,H  62)          120.8287         0.351702   
    182. A(C  16,N  15,H  62)          116.2912         0.333160   
    183. A(C  14,N  15,C  16)          118.8820         0.397299   
    184. A(H  63,C  16,H  64)          109.1070         0.288198   
    185. A(C  17,C  16,H  64)          108.3407         0.321161   
    186. A(N  15,C  16,H  63)          107.1268         0.327809   
    187. A(C  17,C  16,H  63)          107.6899         0.320964   
    188. A(N  15,C  16,C  17)          116.1461         0.367326   
    189. A(N  15,C  16,H  64)          108.2739         0.328011   
    190. A(O  43,C  17,H  65)          107.5916         0.330187   
    191. A(C  18,C  17,H  65)          107.8428         0.318314   
    192. A(C  16,C  17,H  65)          107.8677         0.320427   
    193. A(C  16,C  17,C  18)          113.4013         0.356881   
    194. A(C  18,C  17,O  43)          111.6727         0.368178   
    195. A(C  16,C  17,O  43)          108.2441         0.370751   
    196. A(C  19,C  18,H  66)          109.3596         0.320603   
    197. A(C  17,C  18,H  66)          108.9923         0.318752   
    198. A(C  17,C  18,C  32)          113.5804         0.358344   
    199. A(C  17,C  18,C  19)          109.3936         0.356573   
    200. A(C  19,C  18,C  32)          107.9562         0.360514   
    201. A(C  32,C  18,H  66)          107.4805         0.322136   
    202. A(C  18,C  19,N  20)          113.1277         0.392123   
    203. A(N  20,C  19,O  31)          124.2258         0.468340   
    204. A(C  18,C  19,O  31)          122.6053         0.426549   
    205. A(C  19,N  20,H  67)          114.5441         0.356359   
    206. A(C  19,N  20,C  21)          123.7386         0.403943   
    207. A(C  21,N  20,H  67)          118.2973         0.336181   
    208. A(C  27,C  21,H  68)          110.1896         0.322079   
    209. A(C  22,C  21,H  68)          107.5534         0.319293   
    210. A(N  20,C  21,H  68)          105.5531         0.329047   
    211. A(N  20,C  21,C  22)          109.7957         0.368342   
    212. A(C  22,C  21,C  27)          111.5546         0.360234   
    213. A(N  20,C  21,C  27)          111.9333         0.371722   
    214. A(C  21,C  22,N  23)          115.3961         0.391320   
    215. A(C  21,C  22,O  26)          122.3546         0.423951   
    216. A(N  23,C  22,O  26)          122.2467         0.466857   
    217. A(C  22,N  23,C  24)          118.8911         0.404679   
    218. A(C  24,N  23,H  69)          117.9697         0.335443   
    219. A(C  22,N  23,H  69)          121.0757         0.355247   
    220. A(C  25,C  24,H  70)          110.1385         0.322904   
    221. A(N  23,C  24,H  70)          107.5923         0.330375   
    222. A(C   7,C  24,H  70)          109.3867         0.321722   
    223. A(N  23,C  24,C  25)          110.6533         0.372155   
    224. A(C   7,C  24,N  23)          109.4641         0.370724   
    225. A(C   7,C  24,C  25)          109.5724         0.362005   
    226. A(H  71,C  25,H  73)          108.5598         0.288285   
    227. A(C  24,C  25,H  73)          110.5759         0.322896   
    228. A(H  71,C  25,H  72)          108.4875         0.288146   
    229. A(C  24,C  25,H  72)          110.3264         0.322734   
    230. A(C  24,C  25,H  71)          110.1342         0.322788   
    231. A(H  72,C  25,H  73)          108.7006         0.288239   
    232. A(C  28,C  27,H  75)          108.9084         0.321010   
    233. A(C  21,C  27,C  28)          114.3953         0.362642   
    234. A(H  74,C  27,H  75)          105.3918         0.286851   
    235. A(C  21,C  27,H  75)          109.0782         0.321750   
    236. A(C  28,C  27,H  74)          110.4669         0.321611   
    237. A(C  21,C  27,H  74)          108.2089         0.322353   
    238. A(C  29,C  28,C  30)          111.2538         0.362695   
    239. A(C  27,C  28,C  30)          109.7375         0.362362   
    240. A(C  27,C  28,C  29)          112.5943         0.362103   
    241. A(C  30,C  28,H  76)          107.8493         0.321519   
    242. A(C  29,C  28,H  76)          107.5697         0.321299   
    243. A(C  27,C  28,H  76)          107.6347         0.321016   
    244. A(C  28,C  29,H  79)          110.7823         0.321601   
    245. A(H  78,C  29,H  79)          107.5884         0.287243   
    246. A(H  77,C  29,H  79)          108.2870         0.287373   
    247. A(H  77,C  29,H  78)          107.5101         0.287753   
    248. A(C  28,C  29,H  78)          110.4421         0.322046   
    249. A(C  28,C  29,H  77)          112.0620         0.322198   
    250. A(H  81,C  30,H  82)          107.7353         0.287454   
    251. A(H  80,C  30,H  82)          107.8819         0.287618   
    252. A(C  28,C  30,H  82)          111.0586         0.322393   
    253. A(H  80,C  30,H  81)          107.6792         0.287236   
    254. A(C  28,C  30,H  81)          110.8942         0.321944   
    255. A(C  28,C  30,H  80)          111.4285         0.322136   
    256. A(C  33,C  32,O  42)          123.0791         0.435858   
    257. A(C  18,C  32,O  42)          121.3449         0.432188   
    258. A(C  18,C  32,C  33)          115.5200         0.365234   
    259. A(C  32,C  33,C  34)          115.7051         0.364728   
    260. A(C  34,C  33,H  84)          112.2614         0.321755   
    261. A(H  83,C  33,H  84)          106.8471         0.286458   
    262. A(C  32,C  33,H  84)          108.1523         0.324676   
    263. A(C  34,C  33,H  83)          108.5635         0.320016   
    264. A(C  32,C  33,H  83)          104.7041         0.322915   
    265. A(C  33,C  34,C  35)          114.7512         0.362415   
    266. A(H  85,C  34,H  86)          105.8352         0.287153   
    267. A(C  35,C  34,H  86)          106.6850         0.322126   
    268. A(C  33,C  34,H  86)          109.4709         0.321185   
    269. A(C  35,C  34,H  85)          110.2045         0.322339   
    270. A(C  33,C  34,H  85)          109.4855         0.321397   
    271. A(C  34,C  35,C  36)          110.7204         0.363374   
    272. A(H  87,C  35,H  88)          106.4074         0.286357   
    273. A(C  36,C  35,H  88)          110.5500         0.321735   
    274. A(C  34,C  35,H  88)          110.6909         0.321860   
    275. A(C  36,C  35,H  87)          109.1400         0.321542   
    276. A(C  34,C  35,H  87)          109.2182         0.321667   
    277. A(C  35,C  36,C  37)          115.1019         0.363401   
    278. A(H  89,C  36,H  90)          105.6160         0.286478   
    279. A(C  37,C  36,H  90)          109.1379         0.322023   
    280. A(C  35,C  36,H  90)          107.6850         0.321875   
    281. A(C  37,C  36,H  89)          109.3108         0.321693   
    282. A(C  35,C  36,H  89)          109.5554         0.321544   
    283. A(C  36,C  37,C  38)          112.9912         0.362107   
    284. A(H  91,C  37,H  92)          106.1173         0.286365   
    285. A(C  38,C  37,H  92)          109.6681         0.320745   
    286. A(C  36,C  37,H  92)          109.3524         0.321991   
    287. A(C  38,C  37,H  91)          109.1782         0.320346   
    288. A(C  36,C  37,H  91)          109.3010         0.321591   
    289. A(C  37,C  38,C  39)          113.7772         0.361580   
    290. A(H  93,C  38,H  94)          105.9533         0.286268   
    291. A(C  39,C  38,H  94)          109.2485         0.321050   
    292. A(C  37,C  38,H  94)          109.1157         0.320255   
    293. A(C  39,C  38,H  93)          108.9047         0.321520   
    294. A(C  37,C  38,H  93)          109.5465         0.320723   
    295. A(C  38,C  39,C  40)          113.9722         0.363020   
    296. A(H  95,C  39,H  96)          105.9254         0.286377   
    297. A(C  40,C  39,H  96)          109.3540         0.321582   
    298. A(C  38,C  39,H  96)          109.1637         0.321156   
    299. A(C  40,C  39,H  95)          108.2445         0.321970   
    300. A(C  38,C  39,H  95)          109.8687         0.321543   
    301. A(C  39,C  40,C  41)          112.6760         0.363524   
    302. A(H  97,C  40,H  98)          106.0165         0.286432   
    303. A(C  41,C  40,H  98)          109.5600         0.321790   
    304. A(C  39,C  40,H  98)          109.0417         0.321789   
    305. A(C  41,C  40,H  97)          109.8595         0.321829   
    306. A(C  39,C  40,H  97)          109.4654         0.321827   
    307. A(H 100,C  41,H 101)          107.3800         0.287265   
    308. A(H  99,C  41,H 101)          107.5799         0.287484   
    309. A(C  40,C  41,H 101)          110.9468         0.322251   
    310. A(H  99,C  41,H 100)          107.7596         0.287567   
    311. A(C  40,C  41,H 100)          111.1886         0.322348   
    312. A(C  40,C  41,H  99)          111.7863         0.322607   
    313. A(C  17,O  43,H 102)          106.7146         0.346883   
    314. A(C  13,C  45,C  46)          115.6991         0.359254   
    315. A(C  46,C  45,H 104)          109.5095         0.322778   
    316. A(C  13,C  45,H 104)          105.7914         0.318035   
    317. A(C  46,C  45,H 103)          110.1557         0.322163   
    318. A(C  13,C  45,H 103)          108.9479         0.317432   
    319. A(H 103,C  45,H 104)          106.2525         0.286601   
    320. A(H 106,C  46,H 107)          107.5043         0.288367   
    321. A(H 105,C  46,H 107)          107.9162         0.287937   
    322. A(C  45,C  46,H 107)          110.7700         0.323149   
    323. A(H 105,C  46,H 106)          108.9095         0.288553   
    324. A(C  45,C  46,H 106)          111.7007         0.323874   
    325. A(C  45,C  46,H 105)          109.9259         0.323367   
    326. A(C  50,C  48,H 108)          106.3242         0.321380   
    327. A(C  49,C  48,H 108)          109.1521         0.321018   
    328. A(C  10,C  48,H 108)          107.5873         0.317509   
    329. A(C  49,C  48,C  50)          111.5492         0.363130   
    330. A(C  10,C  48,C  50)          111.2201         0.358983   
    331. A(C  10,C  48,C  49)          110.8080         0.358563   
    332. A(H 110,C  49,H 111)          107.8868         0.287643   
    333. A(H 109,C  49,H 111)          107.7705         0.287681   
    334. A(C  48,C  49,H 111)          110.4441         0.322325   
    335. A(H 109,C  49,H 110)          107.4132         0.287420   
    336. A(C  48,C  49,H 110)          110.8880         0.322019   
    337. A(C  48,C  49,H 109)          112.2616         0.322064   
    338. A(H 113,C  50,H 114)          108.6100         0.287733   
    339. A(H 112,C  50,H 114)          108.0324         0.288140   
    340. A(C  48,C  50,H 114)          111.0865         0.322551   
    341. A(H 112,C  50,H 113)          107.7338         0.288204   
    342. A(C  48,C  50,H 113)          110.0005         0.322627   
    343. A(C  48,C  50,H 112)          111.2679         0.323105   
    344. D(H  51,C   2,C   1,N   9)    -67.4803         0.008455   
    345. D(C   3,C   2,C   1,N   9)    166.5679         0.008455   
    346. D(N   6,C   2,C   1,N   9)     52.0194         0.008455   
    347. D(N   6,C   2,C   1,O   0)   -127.9650         0.008455   
    348. D(C   3,C   2,C   1,O   0)    -13.4164         0.008455   
    349. D(H  51,C   2,C   1,O   0)    112.5354         0.008455   
    350. D(C   4,C   3,C   2,N   6)     35.9533         0.011486   
    351. D(H  53,C   3,C   2,H  51)    -86.3494         0.011486   
    352. D(H  53,C   3,C   2,C   1)     36.2647         0.011486   
    353. D(C   4,C   3,C   2,H  51)    153.1784         0.011486   
    354. D(H  53,C   3,C   2,N   6)    156.4255         0.011486   
    355. D(H  52,C   3,C   2,H  51)     34.7688         0.011486   
    356. D(C   4,C   3,C   2,C   1)    -84.2075         0.011486   
    357. D(H  52,C   3,C   2,C   1)    157.3830         0.011486   
    358. D(H  52,C   3,C   2,N   6)    -82.4562         0.011486   
    359. D(H  55,C   4,C   3,H  53)     80.3924         0.010719   
    360. D(H  55,C   4,C   3,H  52)    -42.9410         0.010719   
    361. D(H  54,C   4,C   3,H  52)   -163.5837         0.010719   
    362. D(H  55,C   4,C   3,C   2)   -160.5157         0.010719   
    363. D(H  54,C   4,C   3,H  53)    -40.2503         0.010719   
    364. D(C   5,C   4,C   3,C   2)    -38.7766         0.010719   
    365. D(H  54,C   4,C   3,C   2)     78.8416         0.010719   
    366. D(C   5,C   4,C   3,H  53)   -157.8685         0.010719   
    367. D(C   5,C   4,C   3,H  52)     78.7981         0.010719   
    368. D(N   6,C   5,C   4,C   3)     26.0847         0.010765   
    369. D(H  57,C   5,C   4,C   3)    -92.0065         0.010765   
    370. D(H  56,C   5,C   4,H  55)    -92.1307         0.010765   
    371. D(H  56,C   5,C   4,C   3)    145.1130         0.010765   
    372. D(H  57,C   5,C   4,H  54)    151.0562         0.010765   
    373. D(H  56,C   5,C   4,H  54)     28.1756         0.010765   
    374. D(H  57,C   5,C   4,H  55)     30.7498         0.010765   
    375. D(N   6,C   5,C   4,H  54)    -90.8527         0.010765   
    376. D(N   6,C   5,C   4,H  55)    148.8410         0.010765   
    377. D(C   5,N   6,C   2,C   3)    -20.6249         0.013477   
    378. D(C   7,N   6,C   5,H  57)    -64.3120         0.013733   
    379. D(C   7,N   6,C   5,H  56)     55.5309         0.013733   
    380. D(C   7,N   6,C   5,C   4)    176.5954         0.013733   
    381. D(C   2,N   6,C   5,H  57)    115.6529         0.013733   
    382. D(C   2,N   6,C   5,H  56)   -124.5041         0.013733   
    383. D(C   7,N   6,C   2,H  51)     38.2272         0.013477   
    384. D(C   2,N   6,C   5,C   4)     -3.4396         0.013733   
    385. D(C   7,N   6,C   2,C   3)    159.3412         0.013477   
    386. D(C   5,N   6,C   2,C   1)     98.9468         0.013477   
    387. D(C   7,N   6,C   2,C   1)    -81.0872         0.013477   
    388. D(C   5,N   6,C   2,H  51)   -141.7389         0.013477   
    389. D(C  24,C   7,N   6,C   5)      6.0958         0.036224   
    390. D(C  24,C   7,N   6,C   2)   -173.8653         0.036224   
    391. D(O   8,C   7,N   6,C   5)   -175.6688         0.036224   
    392. D(O   8,C   7,N   6,C   2)      4.3701         0.036224   
    393. D(H  58,N   9,C   1,O   0)   -174.0773         0.033528   
    394. D(C  10,N   9,C   1,C   2)   -177.5649         0.033528   
    395. D(H  58,N   9,C   1,C   2)      5.9390         0.033528   
    396. D(C  10,N   9,C   1,O   0)      2.4188         0.033528   
    397. D(H  59,C  10,N   9,C   1)    -27.1332         0.016364   
    398. D(C  48,C  10,N   9,H  58)    -89.2108         0.016364   
    399. D(C  48,C  10,N   9,C   1)     94.3632         0.016364   
    400. D(C  11,C  10,N   9,C   1)   -142.0946         0.016364   
    401. D(H  59,C  10,N   9,H  58)    149.2929         0.016364   
    402. D(C  11,C  10,N   9,H  58)     34.3314         0.016364   
    403. D(O  47,C  11,C  10,N   9)    113.5934         0.009940   
    404. D(N  12,C  11,C  10,H  59)   -179.4978         0.009940   
    405. D(N  12,C  11,C  10,C  48)     59.7649         0.009940   
    406. D(N  12,C  11,C  10,N   9)    -63.5101         0.009940   
    407. D(O  47,C  11,C  10,H  59)     -2.3942         0.009940   
    408. D(O  47,C  11,C  10,C  48)   -123.1316         0.009940   
    409. D(H  60,N  12,C  11,O  47)    161.3243         0.026197   
    410. D(H  60,N  12,C  11,C  10)    -21.5576         0.026197   
    411. D(C  13,N  12,C  11,O  47)      9.4529         0.026197   
    412. D(C  13,N  12,C  11,C  10)   -173.4290         0.026197   
    413. D(H  61,C  13,N  12,C  11)    -16.2821         0.016422   
    414. D(H  61,C  13,N  12,H  60)   -167.6217         0.016422   
    415. D(C  45,C  13,N  12,H  60)    -50.2666         0.016422   
    416. D(C  45,C  13,N  12,C  11)    101.0730         0.016422   
    417. D(C  14,C  13,N  12,C  11)   -133.3632         0.016422   
    418. D(C  14,C  13,N  12,H  60)     75.2972         0.016422   
    419. D(O  44,C  14,C  13,C  45)    -60.0591         0.010281   
    420. D(O  44,C  14,C  13,N  12)    174.6546         0.010281   
    421. D(N  15,C  14,C  13,H  61)   -127.2003         0.010281   
    422. D(N  15,C  14,C  13,C  45)    114.3850         0.010281   
    423. D(O  44,C  14,C  13,H  61)     58.3556         0.010281   
    424. D(N  15,C  14,C  13,N  12)    -10.9013         0.010281   
    425. D(H  62,N  15,C  14,O  44)   -162.1310         0.027918   
    426. D(H  62,N  15,C  14,C  13)     23.5295         0.027918   
    427. D(C  16,N  15,C  14,O  44)     -5.4529         0.027918   
    428. D(C  16,N  15,C  14,C  13)   -179.7924         0.027918   
    429. D(H  64,C  16,N  15,H  62)     15.6739         0.015510   
    430. D(H  64,C  16,N  15,C  14)   -142.0432         0.015510   
    431. D(H  63,C  16,N  15,H  62)    133.2205         0.015510   
    432. D(H  63,C  16,N  15,C  14)    -24.4965         0.015510   
    433. D(C  17,C  16,N  15,C  14)     95.8667         0.015510   
    434. D(C  17,C  16,N  15,H  62)   -106.4163         0.015510   
    435. D(H  65,C  17,C  16,H  64)     83.2892         0.010486   
    436. D(H  65,C  17,C  16,H  63)    -34.5959         0.010486   
    437. D(H  65,C  17,C  16,N  15)   -154.6560         0.010486   
    438. D(O  43,C  17,C  16,H  64)    -32.8541         0.010486   
    439. D(O  43,C  17,C  16,H  63)   -150.7392         0.010486   
    440. D(O  43,C  17,C  16,N  15)     89.2007         0.010486   
    441. D(C  18,C  17,C  16,H  64)   -157.3507         0.010486   
    442. D(C  18,C  17,C  16,H  63)     84.7642         0.010486   
    443. D(C  18,C  17,C  16,N  15)    -35.2959         0.010486   
    444. D(H  66,C  18,C  17,H  65)    103.5560         0.009729   
    445. D(H  66,C  18,C  17,O  43)   -138.4376         0.009729   
    446. D(H  66,C  18,C  17,C  16)    -15.8184         0.009729   
    447. D(C  32,C  18,C  17,O  43)    101.7709         0.009729   
    448. D(C  32,C  18,C  17,C  16)   -135.6099         0.009729   
    449. D(C  32,C  18,C  17,H  65)    -16.2355         0.009729   
    450. D(C  19,C  18,C  17,H  65)   -136.9172         0.009729   
    451. D(C  19,C  18,C  17,O  43)    -18.9108         0.009729   
    452. D(C  19,C  18,C  17,C  16)    103.7085         0.009729   
    453. D(O  31,C  19,C  18,H  66)   -143.3739         0.009736   
    454. D(O  31,C  19,C  18,C  32)    -26.7230         0.009736   
    455. D(O  31,C  19,C  18,C  17)     97.3258         0.009736   
    456. D(N  20,C  19,C  18,H  66)     38.8699         0.009736   
    457. D(N  20,C  19,C  18,C  17)    -80.4304         0.009736   
    458. D(N  20,C  19,C  18,C  32)    155.5209         0.009736   
    459. D(H  67,N  20,C  19,O  31)   -168.2591         0.031673   
    460. D(H  67,N  20,C  19,C  18)      9.4548         0.031673   
    461. D(C  21,N  20,C  19,O  31)     -9.5614         0.031673   
    462. D(C  21,N  20,C  19,C  18)    168.1525         0.031673   
    463. D(H  68,C  21,N  20,H  67)    162.9718         0.016652   
    464. D(H  68,C  21,N  20,C  19)      5.0154         0.016652   
    465. D(C  27,C  21,N  20,H  67)    -77.1424         0.016652   
    466. D(C  27,C  21,N  20,C  19)    124.9012         0.016652   
    467. D(C  22,C  21,N  20,H  67)     47.3201         0.016652   
    468. D(C  22,C  21,N  20,C  19)   -110.6363         0.016652   
    469. D(N  23,C  22,C  21,C  27)    167.5755         0.009485   
    470. D(N  23,C  22,C  21,N  20)     42.8939         0.009485   
    471. D(O  26,C  22,C  21,H  68)    107.9406         0.009485   
    472. D(O  26,C  22,C  21,C  27)    -13.0003         0.009485   
    473. D(O  26,C  22,C  21,N  20)   -137.6819         0.009485   
    474. D(N  23,C  22,C  21,H  68)    -71.4836         0.009485   
    475. D(H  69,N  23,C  22,O  26)    168.0521         0.031848   
    476. D(H  69,N  23,C  22,C  21)    -12.5230         0.031848   
    477. D(C  24,N  23,C  22,O  26)      4.7170         0.031848   
    478. D(C  24,N  23,C  22,C  21)   -175.8582         0.031848   
    479. D(H  70,C  24,N  23,H  69)    143.5944         0.016915   
    480. D(H  70,C  24,N  23,C  22)    -52.5525         0.016915   
    481. D(C  25,C  24,N  23,H  69)     23.2295         0.016915   
    482. D(C  25,C  24,N  23,C  22)   -172.9174         0.016915   
    483. D(C   7,C  24,N  23,H  69)    -97.6291         0.016915   
    484. D(C   7,C  24,N  23,C  22)     66.2240         0.016915   
    485. D(H  70,C  24,C   7,O   8)    161.2940         0.010018   
    486. D(H  70,C  24,C   7,N   6)    -20.4285         0.010018   
    487. D(C  25,C  24,C   7,O   8)    -77.8768         0.010018   
    488. D(C  25,C  24,C   7,N   6)    100.4008         0.010018   
    489. D(N  23,C  24,C   7,O   8)     43.6358         0.010018   
    490. D(N  23,C  24,C   7,N   6)   -138.0867         0.010018   
    491. D(H  73,C  25,C  24,H  70)   -179.1282         0.011150   
    492. D(H  73,C  25,C  24,N  23)    -60.2950         0.011150   
    493. D(H  73,C  25,C  24,C   7)     60.4993         0.011150   
    494. D(H  72,C  25,C  24,H  70)     60.5888         0.011150   
    495. D(H  72,C  25,C  24,N  23)    179.4219         0.011150   
    496. D(H  72,C  25,C  24,C   7)    -59.7837         0.011150   
    497. D(H  71,C  25,C  24,H  70)    -59.1453         0.011150   
    498. D(H  71,C  25,C  24,N  23)     59.6879         0.011150   
    499. D(H  71,C  25,C  24,C   7)   -179.5178         0.011150   
    500. D(H  75,C  27,C  21,H  68)   -177.1141         0.011171   
    501. D(H  75,C  27,C  21,C  22)    -57.7238         0.011171   
    502. D(H  75,C  27,C  21,N  20)     65.7535         0.011171   
    503. D(H  74,C  27,C  21,H  68)    -62.9456         0.011171   
    504. D(H  74,C  27,C  21,C  22)     56.4447         0.011171   
    505. D(H  74,C  27,C  21,N  20)    179.9219         0.011171   
    506. D(C  28,C  27,C  21,H  68)     60.6532         0.011171   
    507. D(C  28,C  27,C  21,C  22)   -179.9565         0.011171   
    508. D(C  28,C  27,C  21,N  20)    -56.4792         0.011171   
    509. D(H  76,C  28,C  27,H  75)    -63.5421         0.010879   
    510. D(H  76,C  28,C  27,H  74)   -178.8389         0.010879   
    511. D(H  76,C  28,C  27,C  21)     58.7831         0.010879   
    512. D(C  30,C  28,C  27,H  75)     53.5716         0.010879   
    513. D(C  30,C  28,C  27,H  74)    -61.7252         0.010879   
    514. D(C  30,C  28,C  27,C  21)    175.8968         0.010879   
    515. D(C  29,C  28,C  27,H  75)    178.0747         0.010879   
    516. D(C  29,C  28,C  27,H  74)     62.7779         0.010879   
    517. D(C  29,C  28,C  27,C  21)    -59.6001         0.010879   
    518. D(H  79,C  29,C  28,C  30)     65.1838         0.010990   
    519. D(H  79,C  29,C  28,C  27)    -58.4815         0.010990   
    520. D(H  78,C  29,C  28,H  76)     63.9939         0.010990   
    521. D(H  78,C  29,C  28,C  30)    -53.9193         0.010990   
    522. D(H  78,C  29,C  28,C  27)   -177.5847         0.010990   
    523. D(H  77,C  29,C  28,H  76)    -55.8426         0.010990   
    524. D(H  77,C  29,C  28,C  30)   -173.7558         0.010990   
    525. D(H  79,C  29,C  28,H  76)   -176.9029         0.010990   
    526. D(H  77,C  29,C  28,C  27)     62.5788         0.010990   
    527. D(H  82,C  30,C  28,H  76)    -59.8379         0.011077   
    528. D(H  82,C  30,C  28,C  29)     57.9062         0.011077   
    529. D(H  82,C  30,C  28,C  27)   -176.8170         0.011077   
    530. D(H  81,C  30,C  28,H  76)   -179.5989         0.011077   
    531. D(H  81,C  30,C  28,C  29)    -61.8548         0.011077   
    532. D(H  81,C  30,C  28,C  27)     63.4219         0.011077   
    533. D(H  80,C  30,C  28,H  76)     60.4656         0.011077   
    534. D(H  80,C  30,C  28,C  29)    178.2096         0.011077   
    535. D(H  80,C  30,C  28,C  27)    -56.5136         0.011077   
    536. D(O  42,C  32,C  18,H  66)   -142.5203         0.010275   
    537. D(O  42,C  32,C  18,C  19)     99.6139         0.010275   
    538. D(O  42,C  32,C  18,C  17)    -21.8736         0.010275   
    539. D(C  33,C  32,C  18,H  66)     34.8396         0.010275   
    540. D(C  33,C  32,C  18,C  19)    -83.0261         0.010275   
    541. D(C  33,C  32,C  18,C  17)    155.4863         0.010275   
    542. D(H  84,C  33,C  32,O  42)    -17.2597         0.011222   
    543. D(H  84,C  33,C  32,C  18)    165.4312         0.011222   
    544. D(H  83,C  33,C  32,O  42)     96.4037         0.011222   
    545. D(H  83,C  33,C  32,C  18)    -80.9054         0.011222   
    546. D(C  34,C  33,C  32,O  42)   -144.1500         0.011222   
    547. D(C  34,C  33,C  32,C  18)     38.5409         0.011222   
    548. D(H  86,C  34,C  33,H  84)   -171.3535         0.010804   
    549. D(H  86,C  34,C  33,H  83)     70.7538         0.010804   
    550. D(H  86,C  34,C  33,C  32)    -46.5576         0.010804   
    551. D(H  85,C  34,C  33,H  84)    -55.7524         0.010804   
    552. D(H  85,C  34,C  33,H  83)   -173.6451         0.010804   
    553. D(H  85,C  34,C  33,C  32)     69.0436         0.010804   
    554. D(C  35,C  34,C  33,H  84)     68.7571         0.010804   
    555. D(C  35,C  34,C  33,H  83)    -49.1355         0.010804   
    556. D(C  35,C  34,C  33,C  32)   -166.4469         0.010804   
    557. D(H  88,C  35,C  34,H  86)    174.2654         0.011173   
    558. D(H  88,C  35,C  34,H  85)     59.8186         0.011173   
    559. D(H  88,C  35,C  34,C  33)    -64.3108         0.011173   
    560. D(H  87,C  35,C  34,H  86)    -68.8997         0.011173   
    561. D(H  87,C  35,C  34,H  85)    176.6534         0.011173   
    562. D(H  87,C  35,C  34,C  33)     52.5240         0.011173   
    563. D(C  36,C  35,C  34,H  86)     51.3059         0.011173   
    564. D(C  36,C  35,C  34,H  85)    -63.1409         0.011173   
    565. D(C  36,C  35,C  34,C  33)    172.7297         0.011173   
    566. D(H  90,C  36,C  35,H  87)     68.6658         0.011122   
    567. D(H  90,C  36,C  35,C  34)    -51.5865         0.011122   
    568. D(H  89,C  36,C  35,H  88)    -60.2283         0.011122   
    569. D(H  89,C  36,C  35,H  87)   -176.9348         0.011122   
    570. D(H  89,C  36,C  35,C  34)     62.8129         0.011122   
    571. D(C  37,C  36,C  35,H  88)     63.4096         0.011122   
    572. D(C  37,C  36,C  35,H  87)    -53.2969         0.011122   
    573. D(H  90,C  36,C  35,H  88)   -174.6277         0.011122   
    574. D(C  37,C  36,C  35,C  34)   -173.5493         0.011122   
    575. D(H  92,C  37,C  36,H  90)    174.5710         0.011182   
    576. D(H  92,C  37,C  36,H  89)     59.5138         0.011182   
    577. D(H  92,C  37,C  36,C  35)    -64.2534         0.011182   
    578. D(H  91,C  37,C  36,H  90)    -69.6594         0.011182   
    579. D(H  91,C  37,C  36,H  89)    175.2834         0.011182   
    580. D(H  91,C  37,C  36,C  35)     51.5162         0.011182   
    581. D(C  38,C  37,C  36,H  90)     52.1233         0.011182   
    582. D(C  38,C  37,C  36,H  89)    -62.9339         0.011182   
    583. D(C  38,C  37,C  36,C  35)    173.2989         0.011182   
    584. D(H  94,C  38,C  37,H  92)    -68.9377         0.010695   
    585. D(H  94,C  38,C  37,H  91)    175.1852         0.010695   
    586. D(H  94,C  38,C  37,C  36)     53.3334         0.010695   
    587. D(H  93,C  38,C  37,H  92)     46.6399         0.010695   
    588. D(H  93,C  38,C  37,H  91)    -69.2372         0.010695   
    589. D(H  93,C  38,C  37,C  36)    168.9110         0.010695   
    590. D(C  39,C  38,C  37,H  92)    168.7885         0.010695   
    591. D(C  39,C  38,C  37,H  91)     52.9114         0.010695   
    592. D(C  39,C  38,C  37,C  36)    -68.9403         0.010695   
    593. D(H  95,C  39,C  38,H  94)    -67.7704         0.011003   
    594. D(H  95,C  39,C  38,H  93)    176.9325         0.011003   
    595. D(H  95,C  39,C  38,C  37)     54.4301         0.011003   
    596. D(C  40,C  39,C  38,H  94)     53.8978         0.011003   
    597. D(C  40,C  39,C  38,H  93)    -61.3994         0.011003   
    598. D(C  40,C  39,C  38,C  37)    176.0983         0.011003   
    599. D(H  96,C  39,C  38,H  94)    176.4788         0.011003   
    600. D(H  96,C  39,C  38,H  93)     61.1817         0.011003   
    601. D(H  96,C  39,C  38,C  37)    -61.3206         0.011003   
    602. D(H  98,C  40,C  39,H  95)     66.0221         0.011173   
    603. D(H  98,C  40,C  39,C  38)    -56.5400         0.011173   
    604. D(H  97,C  40,C  39,H  96)    -63.4498         0.011173   
    605. D(H  97,C  40,C  39,H  95)   -178.4109         0.011173   
    606. D(H  97,C  40,C  39,C  38)     59.0271         0.011173   
    607. D(C  41,C  40,C  39,H  96)     59.1093         0.011173   
    608. D(C  41,C  40,C  39,H  95)    -55.8519         0.011173   
    609. D(H  98,C  40,C  39,H  96)   -179.0168         0.011173   
    610. D(C  41,C  40,C  39,C  38)   -178.4139         0.011173   
    611. D(H 101,C  41,C  40,H  98)    -61.7546         0.011173   
    612. D(H 101,C  41,C  40,H  97)   -177.8367         0.011173   
    613. D(H 101,C  41,C  40,C  39)     59.8257         0.011173   
    614. D(H 100,C  41,C  40,H  98)    178.8110         0.011173   
    615. D(H 100,C  41,C  40,H  97)     62.7288         0.011173   
    616. D(H 100,C  41,C  40,C  39)    -59.6087         0.011173   
    617. D(H  99,C  41,C  40,H  98)     58.3306         0.011173   
    618. D(H  99,C  41,C  40,H  97)    -57.7515         0.011173   
    619. D(H  99,C  41,C  40,C  39)    179.9109         0.011173   
    620. D(H 102,O  43,C  17,H  65)     58.8993         0.015961   
    621. D(H 102,O  43,C  17,C  18)    -59.2575         0.015961   
    622. D(H 102,O  43,C  17,C  16)    175.2217         0.015961   
    623. D(H 104,C  45,C  13,H  61)     69.8056         0.009631   
    624. D(H 104,C  45,C  13,C  14)   -172.7982         0.009631   
    625. D(H 104,C  45,C  13,N  12)    -45.6725         0.009631   
    626. D(H 103,C  45,C  13,H  61)   -176.3282         0.009631   
    627. D(H 103,C  45,C  13,C  14)    -58.9320         0.009631   
    628. D(H 103,C  45,C  13,N  12)     68.1937         0.009631   
    629. D(C  46,C  45,C  13,H  61)    -51.6113         0.009631   
    630. D(C  46,C  45,C  13,C  14)     65.7849         0.009631   
    631. D(C  46,C  45,C  13,N  12)   -167.0894         0.009631   
    632. D(H 107,C  46,C  45,H 104)    -63.5299         0.011400   
    633. D(H 107,C  46,C  45,H 103)    179.9613         0.011400   
    634. D(H 107,C  46,C  45,C  13)     55.8708         0.011400   
    635. D(H 106,C  46,C  45,H 104)    176.6582         0.011400   
    636. D(H 106,C  46,C  45,H 103)     60.1494         0.011400   
    637. D(H 106,C  46,C  45,C  13)    -63.9411         0.011400   
    638. D(H 105,C  46,C  45,H 104)     55.6428         0.011400   
    639. D(H 105,C  46,C  45,H 103)    -60.8660         0.011400   
    640. D(H 105,C  46,C  45,C  13)    175.0435         0.011400   
    641. D(H 108,C  48,C  10,H  59)    173.9912         0.009737   
    642. D(H 108,C  48,C  10,C  11)    -66.8381         0.009737   
    643. D(H 108,C  48,C  10,N   9)     53.1796         0.009737   
    644. D(C  50,C  48,C  10,H  59)     57.9271         0.009737   
    645. D(C  50,C  48,C  10,C  11)    177.0979         0.009737   
    646. D(C  50,C  48,C  10,N   9)    -62.8845         0.009737   
    647. D(C  49,C  48,C  10,H  59)    -66.7579         0.009737   
    648. D(C  49,C  48,C  10,C  11)     52.4129         0.009737   
    649. D(C  49,C  48,C  10,N   9)    172.4305         0.009737   
    650. D(H 111,C  49,C  48,C  50)     56.7328         0.011035   
    651. D(H 111,C  49,C  48,C  10)   -178.7691         0.011035   
    652. D(H 110,C  49,C  48,H 108)    179.9913         0.011035   
    653. D(H 110,C  49,C  48,C  50)    -62.8117         0.011035   
    654. D(H 110,C  49,C  48,C  10)     61.6864         0.011035   
    655. D(H 109,C  49,C  48,H 108)     59.8372         0.011035   
    656. D(H 109,C  49,C  48,C  50)    177.0342         0.011035   
    657. D(H 111,C  49,C  48,H 108)    -60.4642         0.011035   
    658. D(H 109,C  49,C  48,C  10)    -58.4676         0.011035   
    659. D(H 114,C  50,C  48,H 108)   -177.8829         0.011179   
    660. D(H 114,C  50,C  48,C  49)     63.2220         0.011179   
    661. D(H 114,C  50,C  48,C  10)    -61.0448         0.011179   
    662. D(H 113,C  50,C  48,H 108)     61.8303         0.011179   
    663. D(H 113,C  50,C  48,C  49)    -57.0649         0.011179   
    664. D(H 113,C  50,C  48,C  10)    178.6683         0.011179   
    665. D(H 112,C  50,C  48,H 108)    -57.4780         0.011179   
    666. D(H 112,C  50,C  48,C  49)   -176.3732         0.011179   
    667. D(H 112,C  50,C  48,C  10)     59.3601         0.011179   
    -----------------------------------------------------------------

Number of atoms                         .... 115
Number of degrees of freedom            .... 667

         *************************************************************
         *                GEOMETRY OPTIMIZATION CYCLE   1            *
         *************************************************************
---------------------------------
CARTESIAN COORDINATES (ANGSTROEM)
---------------------------------
  O      4.134120   -2.310658    4.133927
  C      4.059678   -1.649827    3.100204
  C      5.205472   -0.696622    2.634715
  C      6.214006   -0.457331    3.754170
  C      5.563797    0.681832    4.552723
  C      4.952754    1.588231    3.475076
  N      4.708914    0.669586    2.339740
  C      4.118206    0.998323    1.179210
  O      3.874036    0.145113    0.292274
  N      3.015495   -1.645677    2.240212
  C      1.772388   -2.385545    2.410708
  C      1.367818   -2.883704    1.013915
  N      1.091450   -1.859684    0.124793
  C      0.556185   -2.143566   -1.199335
  C      1.264890   -1.386395   -2.327184
  N      2.136259   -0.380599   -1.977649
  C      2.822214    0.360678   -3.037392
  C      2.173242    1.688768   -3.465216
  C      0.624213    1.658236   -3.424351
  C      0.130331    2.419315   -2.179717
  N      0.193726    1.678903   -1.040812
  C      0.025637    2.233010    0.293217
  C      1.371743    2.194896    1.048734
  N      2.458391    2.568776    0.322888
  C      3.774094    2.474427    0.930180
  C      4.833751    3.101590    0.022201
  O      1.455087    1.858389    2.235054
  C     -1.077686    1.517260    1.074357
  C     -2.445402    1.515179    0.380894
  C     -2.977406    2.928759    0.124327
  C     -3.439420    0.688428    1.200635
  O     -0.238972    3.592320   -2.223000
  C     -0.034011    2.289094   -4.655876
  C     -1.438775    1.801900   -4.969137
  C     -2.343642    1.554358   -3.754808
  C     -3.619853    0.767133   -4.056993
  C     -4.359787    0.418228   -2.763740
  C     -5.569625   -0.501503   -2.936300
  C     -6.176347   -0.951972   -1.599085
  C     -5.280937   -1.908684   -0.805709
  C     -5.837966   -2.285874    0.568045
  C     -4.903208   -3.210415    1.349829
  O      0.563701    3.088994   -5.354256
  O      2.709913    2.745404   -2.631107
  O      0.971933   -1.613691   -3.502847
  C     -0.973182   -1.885298   -1.232591
  C     -1.709984   -2.428819   -2.454306
  O      1.345303   -4.065903    0.698693
  C      0.668558   -1.527724    3.079620
  C     -0.672716   -2.266786    3.074452
  C      1.073763   -1.108872    4.493793
  H      5.645452   -1.112863    1.716834
  H      7.179730   -0.145271    3.330547
  H      6.353529   -1.365500    4.350558
  H      4.773056    0.268588    5.193872
  H      6.270949    1.225458    5.190960
  H      4.008940    2.052878    3.790822
  H      5.655962    2.379568    3.171725
  H      3.147590   -1.109993    1.372955
  H      1.975138   -3.274399    3.023856
  H      0.851057   -0.963880    0.547485
  H      0.736297   -3.215971   -1.368927
  H      2.581708   -0.367877   -1.051615
  H      2.856785   -0.293256   -3.919281
  H      3.846872    0.568653   -2.704017
  H      2.479400    1.895691   -4.502585
  H      0.288428    0.613314   -3.369439
  H      0.693571    0.792161   -1.137935
  H     -0.240768    3.291446    0.142089
  H      2.405026    2.669435   -0.699030
  H      3.735621    3.006294    1.889239
  H      4.601219    4.159893   -0.154985
  H      5.824740    3.036539    0.491015
  H      4.867568    2.584678   -0.945219
  H     -1.151397    1.981764    2.069237
  H     -0.769406    0.474072    1.260271
  H     -2.322704    1.022501   -0.598890
  H     -2.326649    3.497883   -0.554008
  H     -3.976188    2.885965   -0.333774
  H     -3.067850    3.489829    1.068432
  H     -3.074283   -0.337311    1.359620
  H     -3.604953    1.141727    2.190608
  H     -4.412795    0.625447    0.694277
  H     -1.291229    0.841298   -5.500633
  H     -1.889927    2.498258   -5.689318
  H     -2.593316    2.515777   -3.280977
  H     -1.789931    0.979741   -2.995323
  H     -3.355101   -0.165341   -4.585406
  H     -4.276269    1.335228   -4.737440
  H     -4.676288    1.346635   -2.257102
  H     -3.636709   -0.059728   -2.082753
  H     -5.271293   -1.391977   -3.517684
  H     -6.337157    0.013354   -3.537304
  H     -7.148112   -1.440142   -1.780734
  H     -6.394422   -0.061396   -0.982380
  H     -4.285154   -1.457828   -0.662454
  H     -5.115865   -2.826022   -1.398196
  H     -6.823740   -2.765797    0.445893
  H     -6.017525   -1.365101    1.148882
  H     -5.316616   -3.470739    2.334454
  H     -4.722533   -4.148202    0.803022
  H     -3.925199   -2.732679    1.515544
  H      2.343621    3.584677   -2.970594
  H     -1.156098   -0.801138   -1.129075
  H     -1.376166   -2.354216   -0.321378
  H     -2.790923   -2.272879   -2.339468
  H     -1.377193   -1.942204   -3.377720
  H     -1.534140   -3.508026   -2.567376
  H      0.570670   -0.594409    2.495141
  H     -1.000897   -2.527695    2.057311
  H     -0.607219   -3.202637    3.649557
  H     -1.455471   -1.644697    3.530171
  H      2.001923   -0.524802    4.485105
  H      0.288329   -0.482697    4.939988
  H      1.230141   -1.986889    5.136895

----------------------------
CARTESIAN COORDINATES (A.U.)
----------------------------
  NO LB      ZA    FRAG     MASS         X           Y           Z
   0 O     8.0000    0    15.999    7.812355   -4.366512    7.811990
   1 C     6.0000    0    12.011    7.671680   -3.117722    5.858537
   2 C     6.0000    0    12.011    9.836917   -1.316425    4.978889
   3 C     6.0000    0    12.011   11.742770   -0.864230    7.094354
   4 C     6.0000    0    12.011   10.514053    1.288476    8.603399
   5 C     6.0000    0    12.011    9.359348    3.001321    6.566941
   6 N     7.0000    0    14.007    8.898558    1.265335    4.421468
   7 C     6.0000    0    12.011    7.782281    1.886557    2.228383
   8 O     8.0000    0    15.999    7.320867    0.274224    0.552319
   9 N     7.0000    0    14.007    5.698459   -3.109879    4.233388
  10 C     6.0000    0    12.011    3.349327   -4.508027    4.555578
  11 C     6.0000    0    12.011    2.584802   -5.449412    1.916022
  12 N     7.0000    0    14.007    2.062542   -3.514293    0.235824
  13 C     6.0000    0    12.011    1.051038   -4.050753   -2.266414
  14 C     6.0000    0    12.011    2.390296   -2.619907   -4.397741
  15 N     7.0000    0    14.007    4.036945   -0.719227   -3.737215
  16 C     6.0000    0    12.011    5.333212    0.681582   -5.739839
  17 C     6.0000    0    12.011    4.106833    3.191308   -6.548309
  18 C     6.0000    0    12.011    1.179592    3.133613   -6.471085
  19 C     6.0000    0    12.011    0.246290    4.571842   -4.119069
  20 N     7.0000    0    14.007    0.366089    3.172668   -1.966849
  21 C     6.0000    0    12.011    0.048447    4.219778    0.554100
  22 C     6.0000    0    12.011    2.592218    4.147752    1.981821
  23 N     7.0000    0    14.007    4.645686    4.854283    0.610170
  24 C     6.0000    0    12.011    7.132004    4.675990    1.757786
  25 C     6.0000    0    12.011    9.134466    5.861155    0.041954
  26 O     8.0000    0    15.999    2.749716    3.511845    4.223639
  27 C     6.0000    0    12.011   -2.036532    2.867206    2.030241
  28 C     6.0000    0    12.011   -4.621141    2.863273    0.719785
  29 C     6.0000    0    12.011   -5.626482    5.534552    0.234944
  30 C     6.0000    0    12.011   -6.499563    1.300940    2.268871
  31 O     8.0000    0    15.999   -0.451592    6.788501   -4.200861
  32 C     6.0000    0    12.011   -0.064272    4.325761   -8.798330
  33 C     6.0000    0    12.011   -2.718891    3.405098   -9.390309
  34 C     6.0000    0    12.011   -4.428842    2.937310   -7.095559
  35 C     6.0000    0    12.011   -6.840531    1.449671   -7.666607
  36 C     6.0000    0    12.011   -8.238803    0.790336   -5.222712
  37 C     6.0000    0    12.011  -10.525067   -0.947704   -5.548802
  38 C     6.0000    0    12.011  -11.671604   -1.798966   -3.021833
  39 C     6.0000    0    12.011   -9.979525   -3.606890   -1.522569
  40 C     6.0000    0    12.011  -11.032158   -4.319677    1.073449
  41 C     6.0000    0    12.011   -9.265720   -6.066805    2.550807
  42 O     8.0000    0    15.999    1.065240    5.837352  -10.118078
  43 O     8.0000    0    15.999    5.120993    5.188061   -4.972072
  44 O     8.0000    0    15.999    1.836687   -3.049433   -6.619421
  45 C     6.0000    0    12.011   -1.839047   -3.562697   -2.329260
  46 C     6.0000    0    12.011   -3.231402   -4.589803   -4.637966
  47 O     8.0000    0    15.999    2.542254   -7.683442    1.320338
  48 C     6.0000    0    12.011    1.263391   -2.886980    5.819638
  49 C     6.0000    0    12.011   -1.271248   -4.283605    5.809872
  50 C     6.0000    0    12.011    2.029118   -2.095463    8.492039
  51 H     1.0000    0     1.008   10.668358   -2.103006    3.244345
  52 H     1.0000    0     1.008   13.567723   -0.274523    6.293821
  53 H     1.0000    0     1.008   12.006431   -2.580422    8.221362
  54 H     1.0000    0     1.008    9.019768    0.507557    9.814996
  55 H     1.0000    0     1.008   11.850376    2.315779    9.809493
  56 H     1.0000    0     1.008    7.575798    3.879377    7.163616
  57 H     1.0000    0     1.008   10.688219    4.496732    5.993691
  58 H     1.0000    0     1.008    5.948082   -2.097582    2.594508
  59 H     1.0000    0     1.008    3.732471   -6.187718    5.714260
  60 H     1.0000    0     1.008    1.608264   -1.821470    1.034596
  61 H     1.0000    0     1.008    1.391399   -6.077304   -2.586897
  62 H     1.0000    0     1.008    4.878722   -0.695188   -1.987265
  63 H     1.0000    0     1.008    5.398542   -0.554174   -7.406367
  64 H     1.0000    0     1.008    7.269534    1.074598   -5.109851
  65 H     1.0000    0     1.008    4.685387    3.582336   -8.508653
  66 H     1.0000    0     1.008    0.545051    1.158995   -6.367318
  67 H     1.0000    0     1.008    1.310660    1.496967   -2.150386
  68 H     1.0000    0     1.008   -0.454986    6.219931    0.268510
  69 H     1.0000    0     1.008    4.544841    5.044502   -1.320975
  70 H     1.0000    0     1.008    7.059300    5.681073    3.570144
  71 H     1.0000    0     1.008    8.695044    7.861058   -0.292878
  72 H     1.0000    0     1.008   11.007163    5.738226    0.927884
  73 H     1.0000    0     1.008    9.198370    4.884333   -1.786206
  74 H     1.0000    0     1.008   -2.175826    3.744990    3.910291
  75 H     1.0000    0     1.008   -1.453966    0.895867    2.381567
  76 H     1.0000    0     1.008   -4.389275    1.932246   -1.131738
  77 H     1.0000    0     1.008   -4.396730    6.610041   -1.046924
  78 H     1.0000    0     1.008   -7.513906    5.453683   -0.630741
  79 H     1.0000    0     1.008   -5.797397    6.594822    2.019044
  80 H     1.0000    0     1.008   -5.809553   -0.637426    2.569309
  81 H     1.0000    0     1.008   -6.812375    2.157552    4.139649
  82 H     1.0000    0     1.008   -8.338975    1.181923    1.311994
  83 H     1.0000    0     1.008   -2.440070    1.589824  -10.394689
  84 H     1.0000    0     1.008   -3.571444    4.721024  -10.751252
  85 H     1.0000    0     1.008   -4.900657    4.754129   -6.200147
  86 H     1.0000    0     1.008   -3.382479    1.851442   -5.660339
  87 H     1.0000    0     1.008   -6.340223   -0.312450   -8.665162
  88 H     1.0000    0     1.008   -8.080977    2.523214   -8.952464
  89 H     1.0000    0     1.008   -8.836904    2.544771   -4.265304
  90 H     1.0000    0     1.008   -6.872384   -0.112870   -3.935833
  91 H     1.0000    0     1.008   -9.961301   -2.630455   -6.647460
  92 H     1.0000    0     1.008  -11.975492    0.025235   -6.684536
  93 H     1.0000    0     1.008  -13.507975   -2.721475   -3.365099
  94 H     1.0000    0     1.008  -12.083706   -0.116022   -1.856429
  95 H     1.0000    0     1.008   -8.097768   -2.754896   -1.251856
  96 H     1.0000    0     1.008   -9.667584   -5.340407   -2.642208
  97 H     1.0000    0     1.008  -12.895000   -5.226600    0.842615
  98 H     1.0000    0     1.008  -11.371474   -2.579668    2.171073
  99 H     1.0000    0     1.008  -10.046948   -6.558747    4.411479
 100 H     1.0000    0     1.008   -8.924293   -7.838966    1.517491
 101 H     1.0000    0     1.008   -7.417551   -5.164015    2.863963
 102 H     1.0000    0     1.008    4.428803    6.774057   -5.613610
 103 H     1.0000    0     1.008   -2.184708   -1.513932   -2.133643
 104 H     1.0000    0     1.008   -2.600578   -4.448824   -0.607316
 105 H     1.0000    0     1.008   -5.274081   -4.295120   -4.420954
 106 H     1.0000    0     1.008   -2.602517   -3.670234   -6.382965
 107 H     1.0000    0     1.008   -2.899104   -6.629209   -4.851638
 108 H     1.0000    0     1.008    1.078410   -1.123271    4.715133
 109 H     1.0000    0     1.008   -1.891421   -4.776652    3.887755
 110 H     1.0000    0     1.008   -1.147478   -6.052106    6.896664
 111 H     1.0000    0     1.008   -2.750442   -3.108027    6.671056
 112 H     1.0000    0     1.008    3.783086   -0.991732    8.475619
 113 H     1.0000    0     1.008    0.544862   -0.912165    9.335224
 114 H     1.0000    0     1.008    2.324630   -3.754676    9.707324

--------------------------------
INTERNAL COORDINATES (ANGSTROEM)
--------------------------------
 O      0   0   0     0.000000000000     0.00000000     0.00000000
 C      1   0   0     1.229155060648     0.00000000     0.00000000
 C      2   1   0     1.561449435175   122.30836219     0.00000000
 C      3   2   1     1.525641379460   111.22849331   346.58358356
 C      4   3   2     1.535626464443   102.59269975   275.79253461
 C      5   4   3     1.535009988399   103.97558678   321.22343663
 N      6   5   4     1.480659248257   103.73988943    26.08470420
 C      7   6   5     1.343069436869   125.67130086   176.59544717
 O      8   7   6     1.254687494418   122.00332380   184.33121167
 N      2   1   3     1.352746359398   125.66574449   180.01784203
 C     10   2   1     1.456636164456   125.64603988     2.41884698
 C     11  10   2     1.537162808116   106.43097347   217.90538434
 N     12  11  10     1.384028990926   113.36129844   296.48985520
 C     13  12  11     1.456163451499   120.88552013   186.57095415
 C     14  13  12     1.532193121036   113.76532718   226.63680599
 N     15  14  13     1.375894472155   117.85144247   349.09872255
 C     16  15  14     1.463926414091   118.88195035   180.20761629
 C     17  16  15     1.538837207813   116.14613327    95.86673025
 C     18  17  16     1.549868842600   113.40129173   324.70411971
 C     19  18  17     1.540218343644   109.39363000   103.70846311
 N     20  19  18     1.359902114403   113.12770247   279.56964743
 C     21  20  19     1.454276630662   123.73860178   168.15250205
 C     22  21  20     1.544104773279   109.79571846   249.36368255
 N     23  22  21     1.359207146333   115.39614692    42.89388907
 C     24  23  22     1.452163856575   118.89112271   184.14183410
 C     25  24  23     1.529912230699   110.65326509   187.08260716
 O     23  22  21     1.235935509794   122.35457150   222.31807231
 C     22  21  20     1.529640749898   111.93328523   124.90120512
 C     28  22  21     1.533474380468   114.39532040   303.52075453
 C     29  28  22     1.532012221771   112.59426026   300.39989749
 C     29  28  22     1.530870840288   109.73749117   175.89683018
 O     20  19  18     1.230528204415   122.60527960    97.32580684
 C     19  18  17     1.532283754636   113.58044900   224.39009454
 C     33  19  18     1.519491032234   115.52002989   155.48633612
 C     34  33  19     1.534489111572   115.70505366    38.54093437
 C     35  34  33     1.529624749501   114.75121996   193.55306421
 C     36  35  34     1.530274738044   110.72044579   172.72966992
 C     37  36  35     1.529506868331   115.10188745   186.45074255
 C     38  37  36     1.535960669358   112.99116344   173.29889235
 C     39  38  37     1.531829943681   113.77722467   291.05966489
 C     40  39  38     1.529625659645   113.97220478   176.09828547
 C     41  40  39     1.529619350415   112.67604695   181.58606607
 O     33  19  18     1.218537939850   121.34488431   338.12640559
 O     18  17  16     1.449217790451   108.24411895    89.20072917
 O     15  14  13     1.232748608339   120.06462000   174.65458471
 C     14  13  12     1.551377137169   110.45114564   101.07298043
 C     46  14  13     1.526722422414   115.69908592   192.91063085
 O     12  11  10     1.223709414609   123.50426806   113.59342824
 C     11  10   2     1.549754975566   112.16168184    94.36316418
 C     49  11  10     1.531422183081   110.80804596   172.43054180
 C     49  11  10     1.529547495361   111.22014773   297.11551500
 H      3   2   1     1.099702234125   108.14057716   112.53538032
 H      4   3   2     1.099754794233   110.02029042   157.38300420
 H      4   3   2     1.095407057224   110.71096916    36.26473631
 H      5   4   3     1.098688272970   109.21907789    78.84164362
 H      5   4   3     1.096786061206   113.40927053   199.48432350
 H      6   5   4     1.098352037933   112.95710706   145.11298135
 H      6   5   4     1.101243752704   111.31578447   267.99352788
 H     10   2   1     1.027882635608   116.02691362   185.92272899
 H     11  10   2     1.098690237171   108.58764270   332.86684592
 H     13  12  11     1.019274812333   115.52741311   338.44236673
 H     14  13  12     1.100569580246   105.66006914   343.71786984
 H     16  15  14     1.027679805209   120.82874238    23.52947599
 H     17  16  15     1.098431943311   107.12682642   335.50345024
 H     17  16  15     1.097412909192   108.27390102   217.95684984
 H     18  17  16     1.101219649734   107.86768365   205.34401271
 H     19  18  17     1.098922536957   108.99232103   344.18160869
 H     21  20  19     1.022541065509   114.54407908     9.45480154
 H     22  21  20     1.101860864623   105.55314786     5.01541825
 H     24  23  22     1.028249122012   121.07568707   347.47695350
 H     25  24  23     1.097340687872   107.59232246   307.44749656
 H     26  25  24     1.097939528038   110.13420598    59.68787493
 H     26  25  24     1.098215070773   110.32639008   179.42194751
 H     26  25  24     1.097380644522   110.57587686   299.70497120
 H     28  22  21     1.100446613458   108.20894721   179.92192844
 H     28  22  21     1.103558557143   109.07824290    65.75345405
 H     29  28  22     1.103522736118   107.63465253    58.78314329
 H     30  29  28     1.098874691495   112.06204105    62.57878251
 H     30  29  28     1.099660391097   110.44208477   182.41532910
 H     30  29  28     1.101959814004   110.78227614   301.51846641
 H     31  29  28     1.100337143249   111.42845625   303.48639415
 H     31  29  28     1.101330204836   110.89417824    63.42193132
 H     31  29  28     1.099010165422   111.05859472   183.18295981
 H     34  33  19     1.107706225053   104.70410045   279.09462016
 H     34  33  19     1.098686591450   108.15229609   165.43121537
 H     35  34  33     1.100536139946   109.48549474    69.04355293
 H     35  34  33     1.101635125880   109.47085877   313.44242818
 H     36  35  34     1.104002625753   109.21819469    52.52403492
 H     36  35  34     1.103005391702   110.69093719   295.68922620
 H     37  36  35     1.103990789905   109.55541876    62.81291332
 H     37  36  35     1.102282859621   107.68497740   308.41347904
 H     38  37  36     1.104514843094   109.30097447    51.51622078
 H     38  37  36     1.102447043636   109.35240128   295.74655606
 H     39  38  37     1.102558209867   109.54654800   168.91104110
 H     39  38  37     1.104991933579   109.11571366    53.33343507
 H     40  39  38     1.102441124733   109.86872528    54.43013030
 H     40  39  38     1.104444975449   109.16366316   298.67937428
 H     41  40  39     1.103175801437   109.46539515    59.02705303
 H     41  40  39     1.103374960777   109.04173983   303.46000269
 H     42  41  40     1.099163871110   111.78628115   179.91094825
 H     42  41  40     1.100493836954   111.18864358   300.39132184
 H     42  41  40     1.100996986745   110.94677453    59.82574532
 H     44  18  17     0.976626604218   106.71459272   175.22174455
 H     46  14  13     1.104344231279   108.94789446    68.19371041
 H     46  14  13     1.101177139558   105.79141604   314.32753202
 H     47  46  14     1.098150382680   109.92590475   175.04348421
 H     47  46  14     1.095553488352   111.70072828   296.05887752
 H     47  46  14     1.099269708578   110.77003572    55.87078538
 H     49  11  10     1.105564826491   107.58726883    53.17956910
 H     50  49  11     1.100159679113   112.26157604   301.53235938
 H     50  49  11     1.100387212147   110.88803249    61.68639845
 H     50  49  11     1.098809215343   110.44414680   181.23093666
 H     51  49  11     1.096674084544   111.26786486    59.36005052
 H     51  49  11     1.099131791461   110.00050422   178.66834679
 H     51  49  11     1.099521901006   111.08649962   298.95519961

---------------------------
INTERNAL COORDINATES (A.U.)
---------------------------
 O      0   0   0     0.000000000000     0.00000000     0.00000000
 C      1   0   0     2.322766440748     0.00000000     0.00000000
 C      2   1   0     2.950711804446   122.30836219     0.00000000
 C      3   2   1     2.883044385757   111.22849331   346.58358356
 C      4   3   2     2.901913461799   102.59269975   275.79253461
 C      5   4   3     2.900748490908   103.97558678   321.22343663
 N      6   5   4     2.798040476864   103.73988943    26.08470420
 C      7   6   5     2.538033414522   125.67130086   176.59544717
 O      8   7   6     2.371015748106   122.00332380   184.33121167
 N      2   1   3     2.556320147922   125.66574449   180.01784203
 C     10   2   1     2.752643427588   125.64603988     2.41884698
 C     11  10   2     2.904816730588   106.43097347   217.90538434
 N     12  11  10     2.615435754258   113.36129844   296.48985520
 C     13  12  11     2.751750129559   120.88552013   186.57095415
 C     14  13  12     2.895425383036   113.76532718   226.63680599
 N     15  14  13     2.600063741549   117.85144247   349.09872255
 C     16  15  14     2.766420002846   118.88195035   180.20761629
 C     17  16  15     2.907980887455   116.14613327    95.86673025
 C     18  17  16     2.928827656011   113.40129173   324.70411971
 C     19  18  17     2.910590855929   109.39363000   103.70846311
 N     20  19  18     2.569842565163   113.12770247   279.56964743
 C     21  20  19     2.748184554913   123.73860178   168.15250205
 C     22  21  20     2.917935143577   109.79571846   249.36368255
 N     23  22  21     2.568529265838   115.39614692    42.89388907
 C     24  23  22     2.744191990505   118.89112271   184.14183410
 C     25  24  23     2.891115124958   110.65326509   187.08260716
 O     23  22  21     2.335579632699   122.35457150   222.31807231
 C     22  21  20     2.890602100594   111.93328523   124.90120512
 C     28  22  21     2.897846612469   114.39532040   303.52075453
 C     29  28  22     2.895083532968   112.59426026   300.39989749
 C     29  28  22     2.892926634550   109.73749117   175.89683018
 O     20  19  18     2.325361306409   122.60527960    97.32580684
 C     19  18  17     2.895596655718   113.58044900   224.39009454
 C     33  19  18     2.871421913872   115.52002989   155.48633612
 C     34  33  19     2.899764176355   115.70505366    38.54093437
 C     35  34  33     2.890571864224   114.75121996   193.55306421
 C     36  35  34     2.891800164562   110.72044579   172.72966992
 C     37  36  35     2.890349101097   115.10188745   186.45074255
 C     38  37  36     2.902545017561   112.99116344   173.29889235
 C     39  38  37     2.894739077298   113.77722467   291.05966489
 C     40  39  38     2.890573584148   113.97220478   176.09828547
 C     41  40  39     2.890561661432   112.67604695   181.58606607
 O     33  19  18     2.302702990109   121.34488431   338.12640559
 O     18  17  16     2.738624732359   108.24411895    89.20072917
 O     15  14  13     2.329557261732   120.06462000   174.65458471
 C     14  13  12     2.931677919676   110.45114564   101.07298043
 C     46  14  13     2.885087260879   115.69908592   192.91063085
 O     12  11  10     2.312475661111   123.50426806   113.59342824
 C     11  10   2     2.928612478502   112.16168184    94.36316418
 C     49  11  10     2.893968521435   110.80804596   172.43054180
 C     49  11  10     2.890425875057   111.22014773   297.11551500
 H      3   2   1     2.078136051358   108.14057716   112.53538032
 H      4   3   2     2.078235375568   110.02029042   157.38300420
 H      4   3   2     2.070019343317   110.71096916    36.26473631
 H      5   4   3     2.076219942464   109.21907789    78.84164362
 H      5   4   3     2.072625283182   113.40927053   199.48432350
 H      6   5   4     2.075584550329   112.95710706   145.11298135
[...]
freq.      84.79  E(vib)   ...       0.48 
freq.      87.85  E(vib)   ...       0.48 
freq.      92.63  E(vib)   ...       0.47 
freq.      98.17  E(vib)   ...       0.46 
freq.      99.76  E(vib)   ...       0.46 
freq.     108.55  E(vib)   ...       0.45 
freq.     115.98  E(vib)   ...       0.44 
freq.     119.56  E(vib)   ...       0.44 
freq.     122.60  E(vib)   ...       0.43 
freq.     125.60  E(vib)   ...       0.43 
freq.     131.58  E(vib)   ...       0.42 
freq.     140.82  E(vib)   ...       0.41 
freq.     148.18  E(vib)   ...       0.41 
freq.     152.76  E(vib)   ...       0.40 
freq.     159.39  E(vib)   ...       0.39 
freq.     167.90  E(vib)   ...       0.38 
freq.     168.96  E(vib)   ...       0.38 
freq.     175.53  E(vib)   ...       0.38 
freq.     182.08  E(vib)   ...       0.37 
freq.     187.41  E(vib)   ...       0.36 
freq.     196.51  E(vib)   ...       0.36 
freq.     200.92  E(vib)   ...       0.35 
freq.     206.06  E(vib)   ...       0.35 
freq.     211.42  E(vib)   ...       0.34 
freq.     214.26  E(vib)   ...       0.34 
freq.     224.19  E(vib)   ...       0.33 
freq.     226.47  E(vib)   ...       0.33 
freq.     229.59  E(vib)   ...       0.32 
freq.     233.81  E(vib)   ...       0.32 
freq.     235.28  E(vib)   ...       0.32 
freq.     238.18  E(vib)   ...       0.32 
freq.     243.78  E(vib)   ...       0.31 
freq.     244.24  E(vib)   ...       0.31 
freq.     251.59  E(vib)   ...       0.30 
freq.     255.71  E(vib)   ...       0.30 
freq.     262.09  E(vib)   ...       0.29 
freq.     265.42  E(vib)   ...       0.29 
freq.     269.39  E(vib)   ...       0.29 
freq.     282.82  E(vib)   ...       0.28 
freq.     288.48  E(vib)   ...       0.27 
freq.     295.05  E(vib)   ...       0.27 
freq.     320.48  E(vib)   ...       0.25 
freq.     328.86  E(vib)   ...       0.24 
freq.     330.29  E(vib)   ...       0.24 
freq.     346.37  E(vib)   ...       0.23 
freq.     350.41  E(vib)   ...       0.23 
freq.     350.78  E(vib)   ...       0.23 
freq.     352.68  E(vib)   ...       0.22 
freq.     361.77  E(vib)   ...       0.22 
freq.     374.25  E(vib)   ...       0.21 
freq.     385.66  E(vib)   ...       0.20 
freq.     389.08  E(vib)   ...       0.20 
freq.     394.95  E(vib)   ...       0.20 
freq.     403.03  E(vib)   ...       0.19 
freq.     408.39  E(vib)   ...       0.19 
freq.     414.60  E(vib)   ...       0.19 
freq.     416.36  E(vib)   ...       0.18 
freq.     420.96  E(vib)   ...       0.18 
freq.     429.53  E(vib)   ...       0.18 
freq.     438.90  E(vib)   ...       0.17 
freq.     453.67  E(vib)   ...       0.16 
freq.     463.03  E(vib)   ...       0.16 
freq.     494.82  E(vib)   ...       0.14 
freq.     495.26  E(vib)   ...       0.14 
freq.     511.35  E(vib)   ...       0.14 
freq.     521.88  E(vib)   ...       0.13 
freq.     538.65  E(vib)   ...       0.12 
freq.     551.03  E(vib)   ...       0.12 
freq.     564.63  E(vib)   ...       0.11 
freq.     573.81  E(vib)   ...       0.11 
freq.     583.80  E(vib)   ...       0.11 
freq.     595.32  E(vib)   ...       0.10 
freq.     612.10  E(vib)   ...       0.10 
freq.     619.27  E(vib)   ...       0.09 
freq.     642.15  E(vib)   ...       0.09 
freq.     647.72  E(vib)   ...       0.09 
freq.     678.01  E(vib)   ...       0.08 
freq.     694.54  E(vib)   ...       0.07 
freq.     704.02  E(vib)   ...       0.07 
freq.     707.98  E(vib)   ...       0.07 
freq.     710.58  E(vib)   ...       0.07 
freq.     713.00  E(vib)   ...       0.07 
freq.     715.35  E(vib)   ...       0.07 
freq.     718.48  E(vib)   ...       0.07 
freq.     727.55  E(vib)   ...       0.06 
freq.     735.84  E(vib)   ...       0.06 
freq.     744.52  E(vib)   ...       0.06 
freq.     752.31  E(vib)   ...       0.06 
freq.     761.35  E(vib)   ...       0.06 
freq.     763.80  E(vib)   ...       0.06 
freq.     768.10  E(vib)   ...       0.06 
freq.     777.71  E(vib)   ...       0.05 
freq.     805.21  E(vib)   ...       0.05 
freq.     809.94  E(vib)   ...       0.05 
freq.     822.06  E(vib)   ...       0.05 
freq.     823.38  E(vib)   ...       0.05 
freq.     834.50  E(vib)   ...       0.04 
freq.     840.33  E(vib)   ...       0.04 
freq.     845.83  E(vib)   ...       0.04 
freq.     851.69  E(vib)   ...       0.04 
freq.     856.93  E(vib)   ...       0.04 
freq.     865.82  E(vib)   ...       0.04 
freq.     871.08  E(vib)   ...       0.04 
freq.     877.73  E(vib)   ...       0.04 
freq.     880.99  E(vib)   ...       0.04 
freq.     890.57  E(vib)   ...       0.04 
freq.     899.89  E(vib)   ...       0.03 
freq.     903.00  E(vib)   ...       0.03 
freq.     904.51  E(vib)   ...       0.03 
freq.     905.30  E(vib)   ...       0.03 
freq.     910.03  E(vib)   ...       0.03 
freq.     910.26  E(vib)   ...       0.03 
freq.     914.97  E(vib)   ...       0.03 
freq.     922.91  E(vib)   ...       0.03 
freq.     934.56  E(vib)   ...       0.03 
freq.     940.44  E(vib)   ...       0.03 
freq.     943.39  E(vib)   ...       0.03 
freq.     945.02  E(vib)   ...       0.03 
freq.     951.54  E(vib)   ...       0.03 
freq.     952.80  E(vib)   ...       0.03 
freq.     957.90  E(vib)   ...       0.03 
freq.     964.61  E(vib)   ...       0.03 
freq.     975.99  E(vib)   ...       0.03 
freq.     979.70  E(vib)   ...       0.03 
freq.     987.66  E(vib)   ...       0.02 
freq.    1005.67  E(vib)   ...       0.02 
freq.    1009.79  E(vib)   ...       0.02 
freq.    1023.15  E(vib)   ...       0.02 
freq.    1025.34  E(vib)   ...       0.02 
freq.    1028.77  E(vib)   ...       0.02 
freq.    1030.07  E(vib)   ...       0.02 
freq.    1032.27  E(vib)   ...       0.02 
freq.    1038.47  E(vib)   ...       0.02 
freq.    1049.25  E(vib)   ...       0.02 
freq.    1051.58  E(vib)   ...       0.02 
freq.    1058.02  E(vib)   ...       0.02 
freq.    1061.47  E(vib)   ...       0.02 
freq.    1064.48  E(vib)   ...       0.02 
freq.    1072.09  E(vib)   ...       0.02 
freq.    1080.30  E(vib)   ...       0.02 
freq.    1081.54  E(vib)   ...       0.02 
freq.    1084.75  E(vib)   ...       0.02 
freq.    1088.92  E(vib)   ...       0.02 
freq.    1094.45  E(vib)   ...       0.02 
freq.    1096.97  E(vib)   ...       0.02 
freq.    1110.17  E(vib)   ...       0.02 
freq.    1114.73  E(vib)   ...       0.01 
freq.    1119.66  E(vib)   ...       0.01 
freq.    1125.28  E(vib)   ...       0.01 
freq.    1127.22  E(vib)   ...       0.01 
freq.    1138.10  E(vib)   ...       0.01 
freq.    1142.67  E(vib)   ...       0.01 
freq.    1158.02  E(vib)   ...       0.01 
freq.    1158.31  E(vib)   ...       0.01 
freq.    1162.02  E(vib)   ...       0.01 
freq.    1162.74  E(vib)   ...       0.01 
freq.    1165.15  E(vib)   ...       0.01 
freq.    1173.06  E(vib)   ...       0.01 
freq.    1179.31  E(vib)   ...       0.01 
freq.    1195.81  E(vib)   ...       0.01 
freq.    1201.30  E(vib)   ...       0.01 
freq.    1204.63  E(vib)   ...       0.01 
freq.    1205.77  E(vib)   ...       0.01 
freq.    1208.62  E(vib)   ...       0.01 
freq.    1214.20  E(vib)   ...       0.01 
freq.    1228.11  E(vib)   ...       0.01 
freq.    1229.65  E(vib)   ...       0.01 
freq.    1231.69  E(vib)   ...       0.01 
freq.    1233.79  E(vib)   ...       0.01 
freq.    1239.43  E(vib)   ...       0.01 
freq.    1242.82  E(vib)   ...       0.01 
freq.    1243.84  E(vib)   ...       0.01 
freq.    1247.45  E(vib)   ...       0.01 
freq.    1249.72  E(vib)   ...       0.01 
freq.    1255.99  E(vib)   ...       0.01 
freq.    1258.60  E(vib)   ...       0.01 
freq.    1262.19  E(vib)   ...       0.01 
freq.    1269.17  E(vib)   ...       0.01 
freq.    1272.13  E(vib)   ...       0.01 
freq.    1273.98  E(vib)   ...       0.01 
freq.    1276.74  E(vib)   ...       0.01 
freq.    1281.20  E(vib)   ...       0.01 
freq.    1282.22  E(vib)   ...       0.01 
freq.    1284.48  E(vib)   ...       0.01 
freq.    1287.25  E(vib)   ...       0.01 
freq.    1294.55  E(vib)   ...       0.01 
freq.    1298.58  E(vib)   ...       0.01 
freq.    1300.54  E(vib)   ...       0.01 
freq.    1302.70  E(vib)   ...       0.01 
freq.    1303.11  E(vib)   ...       0.01 
freq.    1305.37  E(vib)   ...       0.01 
freq.    1307.16  E(vib)   ...       0.01 
freq.    1309.54  E(vib)   ...       0.01 
freq.    1316.96  E(vib)   ...       0.01 
freq.    1318.15  E(vib)   ...       0.01 
freq.    1323.02  E(vib)   ...       0.01 
freq.    1325.40  E(vib)   ...       0.01 
freq.    1327.34  E(vib)   ...       0.01 
freq.    1331.07  E(vib)   ...       0.01 
freq.    1333.78  E(vib)   ...       0.01 
freq.    1335.52  E(vib)   ...       0.01 
freq.    1341.66  E(vib)   ...       0.01 
freq.    1349.35  E(vib)   ...       0.01 
freq.    1350.99  E(vib)   ...       0.01 
freq.    1352.68  E(vib)   ...       0.01 
freq.    1353.30  E(vib)   ...       0.01 
freq.    1354.67  E(vib)   ...       0.01 
freq.    1357.96  E(vib)   ...       0.01 
freq.    1358.98  E(vib)   ...       0.01 
freq.    1363.03  E(vib)   ...       0.01 
freq.    1365.69  E(vib)   ...       0.01 
freq.    1372.55  E(vib)   ...       0.01 
freq.    1374.14  E(vib)   ...       0.01 
freq.    1383.46  E(vib)   ...       0.00 
freq.    1399.07  E(vib)   ...       0.00 
freq.    1403.25  E(vib)   ...       0.00 
freq.    1421.36  E(vib)   ...       0.00 
freq.    1423.99  E(vib)   ...       0.00 
freq.    1426.05  E(vib)   ...       0.00 
freq.    1426.23  E(vib)   ...       0.00 
freq.    1429.02  E(vib)   ...       0.00 
freq.    1431.66  E(vib)   ...       0.00 
freq.    1433.16  E(vib)   ...       0.00 
freq.    1435.46  E(vib)   ...       0.00 
freq.    1437.24  E(vib)   ...       0.00 
freq.    1440.57  E(vib)   ...       0.00 
freq.    1441.14  E(vib)   ...       0.00 
freq.    1443.94  E(vib)   ...       0.00 
freq.    1444.13  E(vib)   ...       0.00 
freq.    1444.42  E(vib)   ...       0.00 
freq.    1445.29  E(vib)   ...       0.00 
freq.    1446.62  E(vib)   ...       0.00 
freq.    1449.49  E(vib)   ...       0.00 
freq.    1450.45  E(vib)   ...       0.00 
freq.    1450.84  E(vib)   ...       0.00 
freq.    1452.18  E(vib)   ...       0.00 
freq.    1453.15  E(vib)   ...       0.00 
freq.    1456.33  E(vib)   ...       0.00 
freq.    1457.37  E(vib)   ...       0.00 
freq.    1457.69  E(vib)   ...       0.00 
freq.    1460.15  E(vib)   ...       0.00 
freq.    1462.47  E(vib)   ...       0.00 
freq.    1465.17  E(vib)   ...       0.00 
freq.    1467.13  E(vib)   ...       0.00 
freq.    1469.95  E(vib)   ...       0.00 
freq.    1500.92  E(vib)   ...       0.00 
freq.    1517.75  E(vib)   ...       0.00 
freq.    1545.43  E(vib)   ...       0.00 
freq.    1600.17  E(vib)   ...       0.00 
freq.    1655.09  E(vib)   ...       0.00 
freq.    1659.89  E(vib)   ...       0.00 
freq.    1680.92  E(vib)   ...       0.00 
freq.    1698.76  E(vib)   ...       0.00 
freq.    1710.17  E(vib)   ...       0.00 
freq.    1723.56  E(vib)   ...       0.00 
freq.    2921.04  E(vib)   ...       0.00 
freq.    2926.96  E(vib)   ...       0.00 
freq.    2927.73  E(vib)   ...       0.00 
freq.    2931.12  E(vib)   ...       0.00 
freq.    2934.56  E(vib)   ...       0.00 
freq.    2936.26  E(vib)   ...       0.00 
freq.    2939.63  E(vib)   ...       0.00 
freq.    2943.49  E(vib)   ...       0.00 
freq.    2945.27  E(vib)   ...       0.00 
freq.    2946.38  E(vib)   ...       0.00 
freq.    2948.91  E(vib)   ...       0.00 
freq.    2951.94  E(vib)   ...       0.00 
freq.    2956.23  E(vib)   ...       0.00 
freq.    2956.99  E(vib)   ...       0.00 
freq.    2957.62  E(vib)   ...       0.00 
freq.    2958.96  E(vib)   ...       0.00 
freq.    2960.62  E(vib)   ...       0.00 
freq.    2961.60  E(vib)   ...       0.00 
freq.    2963.09  E(vib)   ...       0.00 
freq.    2970.68  E(vib)   ...       0.00 
freq.    2971.51  E(vib)   ...       0.00 
freq.    2972.63  E(vib)   ...       0.00 
freq.    2972.98  E(vib)   ...       0.00 
freq.    2978.70  E(vib)   ...       0.00 
freq.    2980.30  E(vib)   ...       0.00 
freq.    2984.07  E(vib)   ...       0.00 
freq.    2986.22  E(vib)   ...       0.00 
freq.    2986.33  E(vib)   ...       0.00 
freq.    2989.88  E(vib)   ...       0.00 
freq.    2992.50  E(vib)   ...       0.00 
freq.    2998.38  E(vib)   ...       0.00 
freq.    2999.40  E(vib)   ...       0.00 
freq.    3003.20  E(vib)   ...       0.00 
freq.    3003.72  E(vib)   ...       0.00 
freq.    3006.15  E(vib)   ...       0.00 
freq.    3007.01  E(vib)   ...       0.00 
freq.    3008.65  E(vib)   ...       0.00 
freq.    3016.16  E(vib)   ...       0.00 
freq.    3017.27  E(vib)   ...       0.00 
freq.    3018.77  E(vib)   ...       0.00 
freq.    3019.37  E(vib)   ...       0.00 
freq.    3019.62  E(vib)   ...       0.00 
freq.    3020.38  E(vib)   ...       0.00 
freq.    3024.21  E(vib)   ...       0.00 
freq.    3027.53  E(vib)   ...       0.00 
freq.    3030.14  E(vib)   ...       0.00 
freq.    3032.29  E(vib)   ...       0.00 
freq.    3034.15  E(vib)   ...       0.00 
freq.    3035.58  E(vib)   ...       0.00 
freq.    3037.79  E(vib)   ...       0.00 
freq.    3042.63  E(vib)   ...       0.00 
freq.    3050.82  E(vib)   ...       0.00 
freq.    3052.61  E(vib)   ...       0.00 
freq.    3052.68  E(vib)   ...       0.00 
freq.    3057.51  E(vib)   ...       0.00 
freq.    3064.20  E(vib)   ...       0.00 
freq.    3067.84  E(vib)   ...       0.00 
freq.    3069.53  E(vib)   ...       0.00 
freq.    3270.69  E(vib)   ...       0.00 
freq.    3295.41  E(vib)   ...       0.00 
freq.    3325.37  E(vib)   ...       0.00 
freq.    3373.58  E(vib)   ...       0.00 
freq.    3453.32  E(vib)   ...       0.00 
freq.    3639.60  E(vib)   ...       0.00 

------------
INNER ENERGY
------------

The inner energy is: U= E(el) + E(ZPE) + E(vib) + E(rot) + E(trans)
    E(el)   - is the total energy from the electronic structure calculation
              = E(kin-el) + E(nuc-el) + E(el-el) + E(nuc-nuc)
    E(ZPE)  - the the zero temperature vibrational energy from the frequency calculation
    E(vib)  - the the finite temperature correction to E(ZPE) due to population
              of excited vibrational states
    E(rot)  - is the rotational thermal energy
    E(trans)- is the translational thermal energy

Summary of contributions to the inner energy U:
Electronic energy                ...  -2380.09242727 Eh
Zero point energy                ...      0.97815863 Eh     613.80 kcal/mol
Thermal vibrational correction   ...      0.05518789 Eh      34.63 kcal/mol
Thermal rotational correction    ...      0.00141627 Eh       0.89 kcal/mol
Thermal translational correction ...      0.00141627 Eh       0.89 kcal/mol
-----------------------------------------------------------------------
Total thermal energy                  -2379.05624821 Eh


Summary of corrections to the electronic energy:
(perhaps to be used in another calculation)
Total thermal correction                  0.05802043 Eh      36.41 kcal/mol
Non-thermal (ZPE) correction              0.97815863 Eh     613.80 kcal/mol
-----------------------------------------------------------------------
Total correction                          1.03617906 Eh     650.21 kcal/mol


--------
ENTHALPY
--------

The enthalpy is H = U + kB*T
                kB is Boltzmann's constant
Total free energy                 ...  -2379.05624821 Eh 
Thermal Enthalpy correction       ...      0.00094421 Eh       0.59 kcal/mol
-----------------------------------------------------------------------
Total Enthalpy                    ...  -2379.05530400 Eh


Note: Only C1 symmetry has been detected, increase convergence thresholds 
      if your molecule has a higher symmetry. Symmetry factor of 1.0 is   
      used for the rotational entropy correction. 
 

Note: Rotational entropy computed according to Herzberg 
Infrared and Raman Spectra, Chapter V,1, Van Nostrand Reinhold, 1945 
Point Group:  C1, Symmetry Number:   1  
Rotational constants in cm-1:     0.002609     0.001559     0.001236 

Vibrational entropy computed according to the QRRHO of S. Grimme
Chem.Eur.J. 2012 18 9955


-------
ENTROPY
-------

The entropy contributions are T*S = T*(S(el)+S(vib)+S(rot)+S(trans))
     S(el)   - electronic entropy
     S(vib)  - vibrational entropy
     S(rot)  - rotational entropy
     S(trans)- translational entropy
The entropies will be listed as mutliplied by the temperature to get
units of energy

Electronic entropy                ...      0.00000000 Eh      0.00 kcal/mol
Vibrational entropy               ...      0.10044433 Eh     63.03 kcal/mol
Rotational entropy                ...      0.01853143 Eh     11.63 kcal/mol
Translational entropy             ...      0.02166895 Eh     13.60 kcal/mol
-----------------------------------------------------------------------
Final entropy term                ...      0.14064471 Eh     88.26 kcal/mol

In case the symmetry of your molecule has not been determined correctly
or in case you have a reason to use a different symmetry number we print 
out the resulting rotational entropy values for sn=1,12 :
 --------------------------------------------------------
|  sn= 1 | S(rot)=       0.01853143 Eh     11.63 kcal/mol|
|  sn= 2 | S(rot)=       0.01787698 Eh     11.22 kcal/mol|
|  sn= 3 | S(rot)=       0.01749414 Eh     10.98 kcal/mol|
|  sn= 4 | S(rot)=       0.01722252 Eh     10.81 kcal/mol|
|  sn= 5 | S(rot)=       0.01701183 Eh     10.68 kcal/mol|
|  sn= 6 | S(rot)=       0.01683969 Eh     10.57 kcal/mol|
|  sn= 7 | S(rot)=       0.01669414 Eh     10.48 kcal/mol|
|  sn= 8 | S(rot)=       0.01656806 Eh     10.40 kcal/mol|
|  sn= 9 | S(rot)=       0.01645685 Eh     10.33 kcal/mol|
|  sn=10 | S(rot)=       0.01635738 Eh     10.26 kcal/mol|
|  sn=11 | S(rot)=       0.01626739 Eh     10.21 kcal/mol|
|  sn=12 | S(rot)=       0.01618523 Eh     10.16 kcal/mol|
 --------------------------------------------------------


-------------------
GIBBS FREE ENERGY
-------------------

The Gibbs free energy is G = H - T*S

Total enthalpy                    ...  -2379.05530400 Eh 
Total entropy correction          ...     -0.14064471 Eh    -88.26 kcal/mol
-----------------------------------------------------------------------
Final Gibbs free energy         ...  -2379.19594872 Eh

For completeness - the Gibbs free energy minus the electronic energy
G-E(el)                           ...      0.89647855 Eh    562.55 kcal/mol

--------------------------------------------------------------------------
WARNING: No preset parameters were found for the device that Open MPI
detected:

  Local host:            eu-g1-049-2
  Device name:           mlx5_0
  Device vendor ID:      0x02c9
  Device vendor part ID: 4123

Default device parameters will be used, which may result in lower
performance.  You can edit any of the files specified by the
btl_openib_device_param_files MCA parameter to set values for your
device.

NOTE: You can turn off this warning by setting the MCA parameter
      btl_openib_warn_no_device_params_found to 0.
--------------------------------------------------------------------------
--------------------------------------------------------------------------
WARNING: There was an error initializing an OpenFabrics device.

  Local host:   eu-g1-049-2
  Local device: mlx5_0
--------------------------------------------------------------------------

Timings for individual modules:

Sum of individual times         ...    30209.037 sec (= 503.484 min)
GTO integral calculation        ...       59.266 sec (=   0.988 min)   0.2 %
SCF iterations                  ...     1431.582 sec (=  23.860 min)   4.7 %
SCF Gradient evaluation         ...      656.841 sec (=  10.947 min)   2.2 %
Geometry relaxation             ...       26.833 sec (=   0.447 min)   0.1 %
Analytical frequency calculation...    28034.515 sec (= 467.242 min)  92.8 %
                             ****ORCA TERMINATED NORMALLY****
TOTAL RUN TIME: 0 days 8 hours 24 minutes 3 seconds 100 msec
