
                                 *****************
                                 * O   R   C   A *
                                 *****************

           --- An Ab Initio, DFT and Semiempirical electronic structure package ---

                  #######################################################
                  #                        -***-                        #
                  #          Department of theory and spectroscopy      #
                  #               Directorship: Frank Neese             #
                  #        Max Planck Institute fuer Kohlenforschung    #
                  #                Kaiser Wilhelm Platz 1               #
                  #                 D-45470 Muelheim/Ruhr               #
                  #                      Germany                        #
                  #                                                     #
                  #                  All rights reserved                #
                  #                        -***-                        #
                  #######################################################


                         Program Version 4.2.0 -  RELEASE  -


 With contributions from (in alphabetic order):
   Daniel Aravena         : Magnetic Suceptibility
   Michael Atanasov       : Ab Initio Ligand Field Theory (pilot matlab implementation)
   Alexander A. Auer      : GIAO ZORA, VPT2
   Ute Becker             : Parallelization
   Giovanni Bistoni       : ED, misc. LED, open-shell LED, HFLED
   Martin Brehm           : Molecular dynamics
   Dmytro Bykov           : SCF Hessian
   Vijay G. Chilkuri      : MRCI spin determinant printing, contributions to CSF-ICE
   Dipayan Datta          : RHF DLPNO-CCSD density
   Achintya Kumar Dutta   : EOM-CC, STEOM-CC
   Dmitry Ganyushin       : Spin-Orbit,Spin-Spin,Magnetic field MRCI
   Miquel Garcia          : C-PCM Hessian, Gaussian charge scheme
   Yang Guo               : DLPNO-NEVPT2, CIM, IAO-localization
   Andreas Hansen         : Spin unrestricted coupled pair/coupled cluster methods
   Benjamin Helmich-Paris : CASSCF linear response (MC-RPA)
   Lee Huntington         : MR-EOM, pCC
   Robert Izsak           : Overlap fitted RIJCOSX, COSX-SCS-MP3, EOM
   Christian Kollmar      : KDIIS, OOCD, Brueckner-CCSD(T), CCSD density
   Simone Kossmann        : Meta GGA functionals, TD-DFT gradient, OOMP2, MP2 Hessian
   Martin Krupicka        : AUTO-CI
   Lucas Lang             : DCDCAS
   Dagmar Lenk            : GEPOL surface, SMD
   Dimitrios Liakos       : Extrapolation schemes; Compound Job, initial MDCI parallelization
   Dimitrios Manganas     : Further ROCIS development; embedding schemes
   Dimitrios Pantazis     : SARC Basis sets
   Taras Petrenko         : DFT Hessian,TD-DFT gradient, ASA, ECA, R-Raman, ABS, FL, XAS/XES, NRVS
   Peter Pinski           : DLPNO-MP2, DLPNO-MP2 Gradient
   Christoph Reimann      : Effective Core Potentials
   Marius Retegan         : Local ZFS, SOC
   Christoph Riplinger    : Optimizer, TS searches, QM/MM, DLPNO-CCSD(T), (RO)-DLPNO pert. Triples
   Tobias Risthaus        : Range-separated hybrids, TD-DFT gradient, RPA, STAB
   Michael Roemelt        : Original ROCIS implementation
   Masaaki Saitow         : Open-shell DLPNO-CCSD energy and density
   Barbara Sandhoefer     : DKH picture change effects
   Avijit Sen             : IP-ROCIS
   Kantharuban Sivalingam : CASSCF convergence, NEVPT2, FIC-MRCI
   Bernardo de Souza      : ESD, SOC TD-DFT
   Georgi Stoychev        : AutoAux, RI-MP2 NMR
   Willem Van den Heuvel  : Paramagnetic NMR
   Boris Wezisla          : Elementary symmetry handling
   Frank Wennmohs         : Technical directorship


 We gratefully acknowledge several colleagues who have allowed us to
 interface, adapt or use parts of their codes:
   Stefan Grimme, W. Hujo, H. Kruse,             : VdW corrections, initial TS optimization,
                  C. Bannwarth                     DFT functionals, gCP, sTDA/sTD-DF
   Ed Valeev, F. Pavosevic, A. Kumar             : LibInt (2-el integral package), F12 methods
   Garnet Chan, S. Sharma, J. Yang, R. Olivares  : DMRG
   Ulf Ekstrom                                   : XCFun DFT Library
   Mihaly Kallay                                 : mrcc  (arbitrary order and MRCC methods)
   Andreas Klamt, Michael Diedenhofen            : otool_cosmo (COSMO solvation model)
   Jiri Pittner, Ondrej Demel                    : Mk-CCSD
   Frank Weinhold                                : gennbo (NPA and NBO analysis)
   Christopher J. Cramer and Donald G. Truhlar   : smd solvation model
   Lars Goerigk                                  : TD-DFT with DH, B97 family of functionals
   V. Asgeirsson, H. Jonsson                     : NEB implementation
   FAccTs GmbH                                   : IRC, NEB, NEB-TS, Multilevel, MM, QM/MM, CI optimization
   S Lehtola, MJT Oliveira, MAL Marques          : LibXC Library


 Your calculation uses the libint2 library for the computation of 2-el integrals
 For citations please refer to: http://libint.valeyev.net

 Your ORCA version has been built with support for libXC version: 4.2.3
 For citations please refer to: https://tddft.org/programs/libxc/

 This ORCA versions uses:
   CBLAS   interface :  Fast vector & matrix operations
   LAPACKE interface :  Fast linear algebra routines
   SCALAPACK package :  Parallel linear algebra routines




***************************************
The coordinates will be read from file: 36.xyz
***************************************


Your calculation utilizes the atom-pairwise dispersion correction
with the Becke-Johnson damping scheme (D3BJ)
Cite in your paper:
S.Grimme, S.Ehrlich, L.Goerigk, J Comput Chem, (2011), 32, 1456–1465 
S.Grimme, J.Antony, S.Ehrlich and H.Krieg, J.Chem.Phys., 132, (2010), 154104 
   

----- Orbital basis set information -----
Your calculation utilizes the basis: def2-TZVP
   F. Weigend and R. Ahlrichs, Phys. Chem. Chem. Phys. 7, 3297 (2005).

----- AuxJ basis set information -----
Your calculation utilizes the auxiliary basis: def2/J
   F. Weigend, Phys. Chem. Chem. Phys. 8, 1057 (2006).

================================================================================
                                        WARNINGS
                       Please study these warnings very carefully!
================================================================================


WARNING: Geometry Optimization
  ===> : Switching off AutoStart
         For restart on a previous wavefunction, please use MOREAD

INFO   : the flag for use of LIBINT has been found!

================================================================================
                                       INPUT FILE
================================================================================
NAME = 36.inp
|  1> !RI BP86 def2-tzvp def2/J D3BJ TIGHTSCF TightOpt Grid5 FinalGrid6 freq
|  2> %maxcore 4000
|  3> %pal nprocs 24
|  4> end
|  5> * xyzfile 0 1 36.xyz 
|  6> 
|  7>                          ****END OF INPUT****
================================================================================

                       *****************************
                       * Geometry Optimization Run *
                       *****************************

Geometry optimization settings:
Update method            Update   .... BFGS
Choice of coordinates    CoordSys .... Z-matrix Internals
Initial Hessian          InHess   .... Almoef's Model

Convergence Tolerances:
Energy Change            TolE     ....  1.0000e-06 Eh
Max. Gradient            TolMAXG  ....  1.0000e-04 Eh/bohr
RMS Gradient             TolRMSG  ....  3.0000e-05 Eh/bohr
Max. Displacement        TolMAXD  ....  1.0000e-03 bohr
RMS Displacement         TolRMSD  ....  6.0000e-04 bohr
Strict Convergence                ....  False
------------------------------------------------------------------------------
                        ORCA OPTIMIZATION COORDINATE SETUP
------------------------------------------------------------------------------

The optimization will be done in new redundant internal coordinates
Making redundant internal coordinates   ...  (new redundants) done
Evaluating the initial hessian          ...  (Almloef) done
Evaluating the coordinates              ...  done
Calculating the B-matrix                .... done
Calculating the G-matrix                .... done
Diagonalizing the G-matrix              .... done
Small eigenvalue found = 1.206e-03
Small eigenvalue found = 1.527e-03
Small eigenvalue found = 1.855e-03
Small eigenvalue found = 2.584e-03
Small eigenvalue found = 3.589e-03
Small eigenvalue found = 4.120e-03
Small eigenvalue found = 6.097e-03
Small eigenvalue found = 6.623e-03
Small eigenvalue found = 8.169e-03
Small eigenvalue found = 9.626e-03
Small eigenvalue found = 9.944e-03
Small eigenvalue found = 1.202e-02
Small eigenvalue found = 1.324e-02
Small eigenvalue found = 1.398e-02
Small eigenvalue found = 1.520e-02
Small eigenvalue found = 1.916e-02
Small eigenvalue found = 2.395e-02
Small eigenvalue found = 2.473e-02
Small eigenvalue found = 2.972e-02
The first mode is                       ....  325
The number of degrees of freedom        ....  339

    -----------------------------------------------------------------
                    Redundant Internal Coordinates


    -----------------------------------------------------------------
         Definition                    Initial Value    Approx d2E/dq
    -----------------------------------------------------------------
      1. B(C   1,O   0)                  1.2316         1.001283   
      2. B(C   2,C   1)                  1.5418         0.357786   
      3. B(C   3,C   2)                  1.5443         0.354423   
      4. B(C   4,C   3)                  1.5348         0.367032   
      5. B(C   5,C   4)                  1.5322         0.370546   
      6. B(N   6,C   5)                  1.4791         0.403347   
      7. B(N   6,C   2)                  1.4577         0.436365   
      8. B(C   7,N   6)                  1.3594         0.626179   
      9. B(O   8,C   7)                  1.2353         0.988012   
     10. B(N   9,C   1)                  1.3615         0.621422   
     11. B(C  10,N   9)                  1.4601         0.432499   
     12. B(C  11,C  10)                  1.5453         0.353136   
     13. B(N  12,C  11)                  1.3635         0.616794   
     14. B(C  13,N  12)                  1.4529         0.444076   
     15. B(C  14,C  13)                  1.5468         0.351205   
     16. B(N  15,C  14)                  1.3543         0.637952   
     17. B(C  16,N  15)                  1.4499         0.449056   
     18. B(C  17,C  16)                  1.5329         0.369623   
     19. B(C  18,C  17)                  1.5536         0.342507   
     20. B(C  19,C  18)                  1.5369         0.364270   
     21. B(N  20,C  19)                  1.3615         0.621268   
     22. B(C  21,N  20)                  1.4537         0.442758   
     23. B(C  22,C  21)                  1.5306         0.372743   
     24. B(N  23,C  22)                  1.3555         0.635321   
     25. B(C  24,N  23)                  1.4637         0.426862   
     26. B(C  24,C   7)                  1.5414         0.358305   
     27. B(C  25,C  24)                  1.5258         0.379401   
     28. B(O  26,C  22)                  1.2382         0.977310   
     29. B(C  27,C  21)                  1.5434         0.355689   
     30. B(C  28,C  27)                  1.5359         0.365610   
     31. B(C  29,C  28)                  1.5336         0.368655   
     32. B(C  30,C  28)                  1.5331         0.369345   
     33. B(O  31,C  19)                  1.2306         1.004991   
     34. B(C  32,C  18)                  1.5350         0.366717   
     35. B(C  33,C  32)                  1.5150         0.394690   
     36. B(C  34,C  33)                  1.5318         0.371122   
     37. B(C  35,C  34)                  1.5368         0.364332   
     38. B(C  36,C  35)                  1.5403         0.359746   
     39. B(C  37,C  36)                  1.5317         0.371273   
     40. B(C  38,C  37)                  1.5288         0.375166   
     41. B(C  39,C  38)                  1.5298         0.373795   
     42. B(C  40,C  39)                  1.5299         0.373757   
     43. B(C  41,C  40)                  1.5288         0.375199   
     44. B(O  42,C  32)                  1.2220         1.037210   
     45. B(O  43,C  17)                  1.4192         0.502699   
     46. B(O  44,C  14)                  1.2336         0.993919   
     47. B(C  45,C  13)                  1.5335         0.368847   
     48. B(C  46,C  45)                  1.5270         0.377670   
     49. B(O  47,C  11)                  1.2272         1.017783   
     50. B(C  48,C  10)                  1.5413         0.358372   
     51. B(C  49,C  48)                  1.5312         0.371907   
     52. B(C  50,C  48)                  1.5336         0.368620   
     53. B(H  51,C   2)                  1.1002         0.346827   
     54. B(H  52,C   3)                  1.1001         0.346982   
     55. B(H  53,C   3)                  1.0986         0.348936   
     56. B(H  54,C   4)                  1.0996         0.347604   
     57. B(H  55,C   4)                  1.0969         0.351026   
     58. B(H  56,C   5)                  1.0967         0.351354   
     59. B(H  57,C   5)                  1.1036         0.342595   
     60. B(H  58,N   9)                  1.0160         0.423327   
     61. B(H  59,C  10)                  1.1019         0.344718   
     62. B(H  60,N  12)                  1.0158         0.423525   
     63. B(H  61,C  13)                  1.1020         0.344571   
     64. B(H  62,H  54)                  2.7545         0.000152   
     65. B(H  62,N  15)                  1.0210         0.415502   
     66. B(H  63,C  16)                  1.0974         0.350450   
     67. B(H  64,C  16)                  1.1001         0.346962   
     68. B(H  65,C  17)                  1.1044         0.341507   
     69. B(H  66,C  18)                  1.1040         0.342066   
     70. B(H  67,N  20)                  1.0178         0.420413   
     71. B(H  68,C  21)                  1.0998         0.347310   
     72. B(H  69,N  23)                  1.0169         0.421926   
     73. B(H  70,C  24)                  1.0963         0.351916   
     74. B(H  71,C  25)                  1.0978         0.349975   
     75. B(H  72,C  25)                  1.0985         0.349007   
     76. B(H  73,C  25)                  1.0978         0.349873   
     77. B(H  74,C  27)                  1.1018         0.344845   
     78. B(H  75,C  27)                  1.1018         0.344762   
     79. B(H  76,C  28)                  1.1042         0.341748   
     80. B(H  77,C  29)                  1.0997         0.347459   
     81. B(H  78,C  29)                  1.1008         0.346126   
     82. B(H  79,C  29)                  1.0994         0.347844   
     83. B(H  80,C  30)                  1.0998         0.347385   
     84. B(H  81,C  30)                  1.0997         0.347513   
     85. B(H  82,C  30)                  1.1013         0.345405   
     86. B(H  83,C  33)                  1.1055         0.340211   
     87. B(H  84,C  33)                  1.1021         0.344432   
     88. B(H  85,C  34)                  1.1010         0.345803   
     89. B(H  86,C  34)                  1.1008         0.346038   
     90. B(H  87,C  35)                  1.1017         0.344899   
     91. B(H  88,C  35)                  1.1052         0.340503   
     92. B(H  89,C  36)                  1.1021         0.344495   
     93. B(H  90,C  36)                  1.1028         0.343539   
     94. B(H  91,C  37)                  1.1049         0.340977   
     95. B(H  92,C  37)                  1.1018         0.344853   
     96. B(H  93,C  38)                  1.1035         0.342693   
     97. B(H  94,C  38)                  1.1047         0.341219   
     98. B(H  95,C  39)                  1.1055         0.340167   
     99. B(H  96,H  64)                  2.4793         0.000419   
    100. B(H  96,C  39)                  1.1040         0.342079   
    101. B(H  97,C  40)                  1.1006         0.346300   
    102. B(H  98,C  40)                  1.1040         0.341989   
    103. B(H  99,C  41)                  1.0999         0.347227   
    104. B(H 100,C  41)                  1.0996         0.347658   
    105. B(H 101,C  41)                  1.1017         0.344897   
    106. B(H 102,O   0)                  4.8424         0.000000   
    107. B(H 102,O  43)                  0.9774         0.487776   
    108. B(H 103,H 100)                  3.6256         0.000006   
    109. B(H 103,C  45)                  1.0982         0.349372   
    110. B(H 104,C  45)                  1.1049         0.340946   
    111. B(H 105,C  46)                  1.0988         0.348625   
    112. B(H 106,C  46)                  1.0997         0.347462   
    113. B(H 107,C  46)                  1.1000         0.347138   
    114. B(H 108,C  48)                  1.1006         0.346410   
    115. B(H 109,C  49)                  1.0990         0.348380   
    116. B(H 110,C  49)                  1.1013         0.345479   
    117. B(H 111,C  49)                  1.0990         0.348405   
    118. B(H 112,C  50)                  1.0992         0.348168   
    119. B(H 113,C  50)                  1.0985         0.348981   
    120. B(H 114,C  50)                  1.1031         0.343229   
    121. A(O   0,C   1,N   9)          122.6986         0.467500   
    122. A(C   2,C   1,N   9)          114.4857         0.391341   
    123. A(O   0,C   1,C   2)          122.5296         0.425812   
    124. A(C   1,C   2,H  51)          109.2577         0.320057   
    125. A(N   6,C   2,H  51)          110.5266         0.328689   
    126. A(C   1,C   2,N   6)          110.1427         0.368091   
    127. A(C   1,C   2,C   3)          110.7800         0.357466   
    128. A(C   3,C   2,H  51)          112.9449         0.319564   
    129. A(C   3,C   2,N   6)          103.0599         0.367495   
    130. A(C   4,C   3,H  53)          113.7619         0.321715   
    131. A(C   4,C   3,H  52)          110.8481         0.321419   
    132. A(C   2,C   3,C   4)          102.8909         0.359021   
    133. A(C   2,C   3,H  53)          112.5869         0.319881   
    134. A(C   2,C   3,H  52)          109.2792         0.319588   
    135. A(H  52,C   3,H  53)          107.4309         0.287730   
    136. A(H  54,C   4,H  55)          108.2292         0.288079   
    137. A(C   3,C   4,H  55)          113.0648         0.322030   
    138. A(C   3,C   4,C   5)          103.0549         0.361753   
    139. A(C   3,C   4,H  54)          110.1694         0.321514   
    140. A(C   5,C   4,H  55)          112.3074         0.322533   
    141. A(C   5,C   4,H  54)          109.9500         0.322016   
    142. A(H  56,C   5,H  57)          108.7086         0.287468   
    143. A(C   4,C   5,N   6)          103.2339         0.365348   
    144. A(C   4,C   5,H  56)          112.8664         0.322582   
    145. A(N   6,C   5,H  57)          109.8422         0.323805   
    146. A(N   6,C   5,H  56)          111.1970         0.325150   
    147. A(C   4,C   5,H  57)          110.9082         0.321251   
    148. A(C   5,N   6,C   7)          128.1896         0.397631   
    149. A(C   2,N   6,C   7)          118.3396         0.403177   
    150. A(C   2,N   6,C   5)          112.5320         0.373406   
    151. A(O   8,C   7,C  24)          120.5039         0.424906   
    152. A(N   6,C   7,O   8)          121.8873         0.467011   
    153. A(N   6,C   7,C  24)          117.5813         0.391962   
    154. A(C   1,N   9,C  10)          122.5559         0.402004   
    155. A(C  10,N   9,H  58)          118.2400         0.336329   
    156. A(C   1,N   9,H  58)          118.6040         0.357473   
    157. A(C  48,C  10,H  59)          109.0439         0.319824   
    158. A(C  11,C  10,H  59)          103.9873         0.319057   
    159. A(N   9,C  10,C  11)          114.1211         0.366706   
    160. A(N   9,C  10,C  48)          111.4499         0.367632   
    161. A(N   9,C  10,H  59)          107.3899         0.327877   
    162. A(C  11,C  10,C  48)          110.4344         0.357345   
    163. A(N  12,C  11,O  47)          124.1687         0.468261   
    164. A(C  10,C  11,O  47)          119.8184         0.426061   
    165. A(C  10,C  11,N  12)          115.9998         0.389937   
    166. A(C  13,N  12,H  60)          118.2975         0.337839   
    167. A(C  11,N  12,C  13)          123.7486         0.403349   
    168. A(C  11,N  12,H  60)          117.1559         0.357048   
    169. A(C  14,C  13,C  45)          110.5139         0.358765   
    170. A(N  12,C  13,H  61)          105.7498         0.329286   
    171. A(C  14,C  13,H  61)          105.8899         0.318749   
    172. A(N  12,C  13,C  14)          113.0653         0.368025   
    173. A(C  45,C  13,H  61)          109.7619         0.321312   
    174. A(N  12,C  13,C  45)          111.5582         0.371137   
    175. A(C  13,C  14,N  15)          115.9591         0.391867   
    176. A(N  15,C  14,O  44)          123.7821         0.469120   
    177. A(C  13,C  14,O  44)          120.2537         0.423840   
    178. A(C  14,N  15,H  62)          119.8110         0.357935   
    179. A(C  16,N  15,H  62)          115.1650         0.337390   
    180. A(C  14,N  15,C  16)          122.5520         0.406558   
    181. A(H  63,C  16,H  64)          109.3188         0.287922   
    182. A(C  17,C  16,H  64)          109.0738         0.321787   
    183. A(N  15,C  16,H  63)          106.2822         0.330818   
    184. A(C  17,C  16,H  63)          110.5705         0.322314   
    185. A(N  15,C  16,C  17)          112.0624         0.371985   
    186. A(N  15,C  16,H  64)          109.4755         0.330271   
    187. A(O  43,C  17,H  65)          110.3297         0.335626   
    188. A(C  18,C  17,H  65)          106.9240         0.316987   
    189. A(C  16,C  17,H  65)          108.0116         0.320953   
    190. A(C  16,C  17,C  18)          112.4943         0.357366   
    191. A(C  18,C  17,O  43)          111.4555         0.374342   
    192. A(C  16,C  17,O  43)          107.5859         0.379305   
    193. A(C  19,C  18,H  66)          109.7083         0.320274   
    194. A(C  17,C  18,H  66)          109.3694         0.317072   
    195. A(C  17,C  18,C  32)          110.0926         0.356887   
    196. A(C  17,C  18,C  19)          110.9962         0.356481   
    197. A(C  19,C  18,C  32)          107.9958         0.360648   
    198. A(C  32,C  18,H  66)          108.6357         0.320625   
    199. A(C  18,C  19,N  20)          115.0118         0.392555   
    200. A(N  20,C  19,O  31)          122.6041         0.467796   
    201. A(C  18,C  19,O  31)          122.3351         0.427467   
    202. A(C  19,N  20,H  67)          122.1442         0.357039   
    203. A(C  19,N  20,C  21)          121.7153         0.403652   
    204. A(C  21,N  20,H  67)          115.4557         0.337257   
    205. A(C  27,C  21,H  68)          109.6606         0.319823   
    206. A(C  22,C  21,H  68)          111.3647         0.322283   
    207. A(N  20,C  21,H  68)          107.0096         0.329555   
    208. A(N  20,C  21,C  22)          106.2245         0.371619   
    209. A(C  22,C  21,C  27)          110.9860         0.360185   
    210. A(N  20,C  21,C  27)          111.4942         0.368639   
    211. A(C  21,C  22,N  23)          115.8526         0.395688   
    212. A(C  21,C  22,O  26)          120.4611         0.427089   
    213. A(N  23,C  22,O  26)          123.6440         0.467319   
    214. A(C  22,N  23,C  24)          123.4521         0.402642   
    215. A(C  24,N  23,H  69)          117.0286         0.335411   
    216. A(C  22,N  23,H  69)          118.6983         0.358618   
    217. A(C  25,C  24,H  70)          110.7135         0.323919   
    218. A(N  23,C  24,H  70)          105.6388         0.328285   
    219. A(C   7,C  24,H  70)          111.3766         0.320897   
    220. A(N  23,C  24,C  25)          110.8682         0.370415   
    221. A(C   7,C  24,N  23)          107.4230         0.366795   
    222. A(C   7,C  24,C  25)          110.6655         0.361726   
    223. A(H  71,C  25,H  73)          109.6124         0.288237   
    224. A(C  24,C  25,H  73)          110.2957         0.323610   
    225. A(H  71,C  25,H  72)          108.7406         0.288126   
    226. A(C  24,C  25,H  72)          110.2915         0.323478   
    227. A(C  24,C  25,H  71)          110.1004         0.323625   
    228. A(H  72,C  25,H  73)          107.7515         0.288112   
    229. A(C  28,C  27,H  75)          109.3832         0.320878   
    230. A(C  21,C  27,C  28)          115.7818         0.359002   
    231. A(H  74,C  27,H  75)          107.3165         0.286912   
    232. A(C  21,C  27,H  75)          106.4792         0.319439   
    233. A(C  28,C  27,H  74)          109.8508         0.320891   
    234. A(C  21,C  27,H  74)          107.6712         0.319451   
    235. A(C  29,C  28,C  30)          110.5327         0.361825   
    236. A(C  27,C  28,C  30)          109.7012         0.361314   
    237. A(C  27,C  28,C  29)          112.1297         0.361199   
    238. A(C  30,C  28,H  76)          107.7420         0.320951   
    239. A(C  29,C  28,H  76)          108.3114         0.320853   
    240. A(C  27,C  28,H  76)          108.2882         0.320418   
    241. A(C  28,C  29,H  79)          110.8853         0.321782   
    242. A(H  78,C  29,H  79)          107.9722         0.287478   
    243. A(H  77,C  29,H  79)          107.3244         0.287650   
    244. A(H  77,C  29,H  78)          107.0142         0.287428   
    245. A(C  28,C  29,H  78)          110.6207         0.321522   
    246. A(C  28,C  29,H  77)          112.8043         0.321724   
    247. A(H  81,C  30,H  82)          107.6937         0.287341   
    248. A(H  80,C  30,H  82)          107.7881         0.287325   
    249. A(C  28,C  30,H  82)          110.7058         0.321510   
    250. A(H  80,C  30,H  81)          108.0189         0.287598   
    251. A(C  28,C  30,H  81)          111.1602         0.321831   
    252. A(C  28,C  30,H  80)          111.3209         0.321811   
    253. A(C  33,C  32,O  42)          122.5352         0.436138   
    254. A(C  18,C  32,O  42)          120.5466         0.430410   
    255. A(C  18,C  32,C  33)          116.8314         0.365624   
    256. A(C  32,C  33,C  34)          114.9397         0.366373   
    257. A(C  34,C  33,H  84)          111.9315         0.321614   
    258. A(H  83,C  33,H  84)          105.6489         0.286264   
    259. A(C  32,C  33,H  84)          109.7442         0.324879   
    260. A(C  34,C  33,H  83)          110.2615         0.320966   
    261. A(C  32,C  33,H  83)          103.6045         0.324221   
    262. A(C  33,C  34,C  35)          115.8113         0.361394   
    263. A(H  85,C  34,H  86)          106.6261         0.287202   
    264. A(C  35,C  34,H  86)          108.1973         0.320888   
    265. A(C  33,C  34,H  86)          108.3385         0.321859   
    266. A(C  35,C  34,H  85)          109.4822         0.320853   
    267. A(C  33,C  34,H  85)          108.0082         0.321824   
    268. A(C  34,C  35,C  36)          116.5267         0.359481   
    269. A(H  87,C  35,H  88)          105.7066         0.286363   
    270. A(C  36,C  35,H  88)          109.0571         0.319382   
    271. A(C  34,C  35,H  88)          109.3114         0.320043   
    272. A(C  36,C  35,H  87)          108.7319         0.320052   
    273. A(C  34,C  35,H  87)          106.9577         0.320715   
    274. A(C  35,C  36,C  37)          114.8837         0.360639   
    275. A(H  89,C  36,H  90)          106.1650         0.286708   
    276. A(C  37,C  36,H  90)          107.6387         0.321499   
    277. A(C  35,C  36,H  90)          108.7712         0.319845   
    278. A(C  37,C  36,H  89)          109.5426         0.321645   
    279. A(C  35,C  36,H  89)          109.4657         0.319990   
    280. A(C  36,C  37,C  38)          113.7032         0.363232   
    281. A(H  91,C  37,H  92)          105.2854         0.286419   
    282. A(C  38,C  37,H  92)          108.4791         0.322250   
    283. A(C  36,C  37,H  92)          110.5842         0.321700   
    284. A(C  38,C  37,H  91)          109.4062         0.321654   
    285. A(C  36,C  37,H  91)          109.0394         0.321105   
    286. A(C  37,C  38,C  39)          113.3320         0.363652   
    287. A(H  93,C  38,H  94)          106.0467         0.286170   
    288. A(C  39,C  38,H  94)          109.5456         0.321499   
    289. A(C  37,C  38,H  94)          109.0428         0.321691   
    290. A(C  39,C  38,H  93)          109.1798         0.321726   
    291. A(C  37,C  38,H  93)          109.4358         0.321918   
    292. A(C  38,C  39,C  40)          113.6456         0.363418   
    293. A(H  95,C  39,H  96)          106.5255         0.285953   
    294. A(C  40,C  39,H  96)          108.4438         0.321626   
    295. A(C  38,C  39,H  96)          109.1474         0.321631   
    296. A(C  40,C  39,H  95)          109.4276         0.321331   
    297. A(C  38,C  39,H  95)          109.4020         0.321336   
    298. A(C  39,C  40,C  41)          112.7333         0.363651   
    299. A(H  97,C  40,H  98)          106.9633         0.286739   
    300. A(C  41,C  40,H  98)          110.0115         0.321815   
    301. A(C  39,C  40,H  98)          109.1280         0.321612   
    302. A(C  41,C  40,H  97)          109.0545         0.322476   
    303. A(C  39,C  40,H  97)          108.7771         0.322272   
    304. A(H 100,C  41,H 101)          108.2693         0.287294   
    305. A(H  99,C  41,H 101)          107.7031         0.287238   
    306. A(C  40,C  41,H 101)          111.3631         0.322262   
    307. A(H  99,C  41,H 100)          107.7086         0.287596   
    308. A(C  40,C  41,H 100)          110.0761         0.322683   
    309. A(C  40,C  41,H  99)          111.5782         0.322617   
    310. A(C  17,O  43,H 102)          105.4958         0.353235   
    311. A(C  13,C  45,C  46)          112.8857         0.363238   
    312. A(C  46,C  45,H 104)          110.4347         0.322000   
    313. A(C  13,C  45,H 104)          108.7070         0.320756   
    314. A(C  46,C  45,H 103)          111.2088         0.323291   
    315. A(C  13,C  45,H 103)          107.0906         0.322041   
    316. A(H 103,C  45,H 104)          106.2311         0.286998   
    317. A(H 106,C  46,H 107)          107.4825         0.287559   
    318. A(H 105,C  46,H 107)          107.8564         0.287710   
    319. A(C  45,C  46,H 107)          111.4473         0.322951   
    320. A(H 105,C  46,H 106)          107.9505         0.287752   
    321. A(C  45,C  46,H 106)          110.8626         0.323000   
    322. A(C  45,C  46,H 105)          111.0785         0.323178   
    323. A(C  50,C  48,H 108)          107.8564         0.321560   
    324. A(C  49,C  48,H 108)          108.7970         0.322027   
    325. A(C  10,C  48,H 108)          104.0219         0.320080   
    326. A(C  49,C  48,C  50)          112.0644         0.362247   
    327. A(C  10,C  48,C  50)          112.1620         0.359964   
    328. A(C  10,C  48,C  49)          111.5060         0.360509   
    329. A(H 110,C  49,H 111)          107.3405         0.287466   
    330. A(H 109,C  49,H 111)          108.1096         0.287842   
    331. A(C  48,C  49,H 111)          110.5248         0.322330   
    332. A(H 109,C  49,H 110)          107.4829         0.287463   
    333. A(C  48,C  49,H 110)          111.9667         0.321886   
    334. A(C  48,C  49,H 109)          111.2342         0.322327   
    335. A(H 113,C  50,H 114)          106.5641         0.287247   
    336. A(H 112,C  50,H 114)          107.9920         0.287142   
    337. A(C  48,C  50,H 114)          112.3611         0.321075   
    338. A(H 112,C  50,H 113)          107.8532         0.287889   
    339. A(C  48,C  50,H 113)          110.3481         0.321949   
    340. A(C  48,C  50,H 112)          111.4920         0.321826   
    341. D(H  51,C   2,C   1,N   9)     43.9994         0.009636   
    342. D(C   3,C   2,C   1,N   9)    -81.0482         0.009636   
    343. D(N   6,C   2,C   1,N   9)    165.5847         0.009636   
    344. D(N   6,C   2,C   1,O   0)    -20.4097         0.009636   
    345. D(C   3,C   2,C   1,O   0)     92.9574         0.009636   
    346. D(H  51,C   2,C   1,O   0)   -141.9950         0.009636   
    347. D(C   4,C   3,C   2,N   6)     32.2657         0.010101   
    348. D(H  53,C   3,C   2,H  51)    -85.5729         0.010101   
    349. D(H  53,C   3,C   2,C   1)     37.3641         0.010101   
    350. D(C   4,C   3,C   2,H  51)    151.5458         0.010101   
    351. D(H  53,C   3,C   2,N   6)    155.1469         0.010101   
    352. D(H  52,C   3,C   2,H  51)     33.7167         0.010101   
    353. D(C   4,C   3,C   2,C   1)    -85.5172         0.010101   
    354. D(H  52,C   3,C   2,C   1)    156.6536         0.010101   
    355. D(H  52,C   3,C   2,N   6)    -85.5635         0.010101   
    356. D(H  55,C   4,C   3,H  53)     77.2056         0.010780   
    357. D(H  55,C   4,C   3,H  52)    -43.9855         0.010780   
    358. D(H  54,C   4,C   3,H  52)   -165.2251         0.010780   
    359. D(H  55,C   4,C   3,C   2)   -160.7031         0.010780   
    360. D(H  54,C   4,C   3,H  53)    -44.0340         0.010780   
    361. D(C   5,C   4,C   3,C   2)    -39.2208         0.010780   
    362. D(H  54,C   4,C   3,C   2)     78.0572         0.010780   
    363. D(C   5,C   4,C   3,H  53)   -161.3121         0.010780   
    364. D(C   5,C   4,C   3,H  52)     77.4968         0.010780   
    365. D(N   6,C   5,C   4,C   3)     30.7884         0.010974   
    366. D(H  57,C   5,C   4,C   3)    -86.7996         0.010974   
    367. D(H  56,C   5,C   4,H  55)    -87.0653         0.010974   
    368. D(H  56,C   5,C   4,C   3)    150.9405         0.010974   
    369. D(H  57,C   5,C   4,H  54)    155.7675         0.010974   
    370. D(H  56,C   5,C   4,H  54)     33.5076         0.010974   
    371. D(H  57,C   5,C   4,H  55)     35.1946         0.010974   
    372. D(N   6,C   5,C   4,H  54)    -86.6445         0.010974   
    373. D(N   6,C   5,C   4,H  55)    152.7826         0.010974   
    374. D(C   5,N   6,C   2,C   3)    -13.4800         0.016235   
    375. D(C   7,N   6,C   5,H  57)    -83.9638         0.013886   
    376. D(C   7,N   6,C   5,H  56)     36.4133         0.013886   
    377. D(C   7,N   6,C   5,C   4)    157.7024         0.013886   
    378. D(C   2,N   6,C   5,H  57)    107.4500         0.013886   
    379. D(C   2,N   6,C   5,H  56)   -132.1728         0.013886   
    380. D(C   7,N   6,C   2,H  51)     55.7559         0.016235   
    381. D(C   2,N   6,C   5,C   4)    -10.8838         0.013886   
    382. D(C   7,N   6,C   2,C   3)    176.6987         0.016235   
    383. D(C   5,N   6,C   2,C   1)    104.7500         0.016235   
    384. D(C   7,N   6,C   2,C   1)    -65.0714         0.016235   
    385. D(C   5,N   6,C   2,H  51)   -134.4227         0.016235   
    386. D(C  24,C   7,N   6,C   5)      3.4489         0.031800   
    387. D(C  24,C   7,N   6,C   2)    171.4626         0.031800   
    388. D(O   8,C   7,N   6,C   5)   -174.6518         0.031800   
    389. D(O   8,C   7,N   6,C   2)     -6.6381         0.031800   
    390. D(H  58,N   9,C   1,O   0)    175.1848         0.031281   
    391. D(C  10,N   9,C   1,C   2)    178.2241         0.031281   
    392. D(H  58,N   9,C   1,C   2)    -10.8210         0.031281   
    393. D(C  10,N   9,C   1,O   0)      4.2299         0.031281   
    394. D(H  59,C  10,N   9,C   1)     39.1056         0.015948   
    395. D(C  48,C  10,N   9,H  58)    -12.5126         0.015948   
    396. D(C  48,C  10,N   9,C   1)    158.4736         0.015948   
    397. D(C  11,C  10,N   9,C   1)    -75.5870         0.015948   
    398. D(H  59,C  10,N   9,H  58)   -131.8806         0.015948   
    399. D(C  11,C  10,N   9,H  58)    113.4268         0.015948   
    400. D(O  47,C  11,C  10,N   9)    175.3006         0.009408   
    401. D(N  12,C  11,C  10,H  59)   -120.1225         0.009408   
    402. D(N  12,C  11,C  10,C  48)    123.0278         0.009408   
    403. D(N  12,C  11,C  10,N   9)     -3.4425         0.009408   
    404. D(O  47,C  11,C  10,H  59)     58.6206         0.009408   
    405. D(O  47,C  11,C  10,C  48)    -58.2291         0.009408   
    406. D(H  60,N  12,C  11,O  47)    178.9782         0.030781   
    407. D(H  60,N  12,C  11,C  10)     -2.3398         0.030781   
    408. D(C  13,N  12,C  11,O  47)    -11.4484         0.030781   
    409. D(C  13,N  12,C  11,C  10)    167.2336         0.030781   
    410. D(H  61,C  13,N  12,C  11)     16.0221         0.016818   
    411. D(H  61,C  13,N  12,H  60)   -174.5155         0.016818   
    412. D(C  45,C  13,N  12,H  60)    -55.2308         0.016818   
    413. D(C  45,C  13,N  12,C  11)    135.3068         0.016818   
    414. D(C  14,C  13,N  12,C  11)    -99.3997         0.016818   
    415. D(C  14,C  13,N  12,H  60)     70.0627         0.016818   
    416. D(O  44,C  14,C  13,C  45)    -48.0857         0.009314   
    417. D(O  44,C  14,C  13,N  12)   -173.9407         0.009314   
    418. D(N  15,C  14,C  13,H  61)   -110.0737         0.009314   
    419. D(N  15,C  14,C  13,C  45)    131.1195         0.009314   
    420. D(O  44,C  14,C  13,H  61)     70.7211         0.009314   
    421. D(N  15,C  14,C  13,N  12)      5.2645         0.009314   
    422. D(H  62,N  15,C  14,O  44)   -170.7847         0.033108   
    423. D(H  62,N  15,C  14,C  13)     10.0414         0.033108   
    424. D(C  16,N  15,C  14,O  44)     -9.4927         0.033108   
    425. D(C  16,N  15,C  14,C  13)    171.3333         0.033108   
    426. D(H  64,C  16,N  15,H  62)   -150.4784         0.017201   
    427. D(H  64,C  16,N  15,C  14)     47.4294         0.017201   
    428. D(H  63,C  16,N  15,H  62)    -32.5184         0.017201   
    429. D(H  63,C  16,N  15,C  14)    165.3894         0.017201   
    430. D(C  17,C  16,N  15,C  14)    -73.7240         0.017201   
    431. D(C  17,C  16,N  15,H  62)     88.3682         0.017201   
    432. D(H  65,C  17,C  16,H  64)    -51.4644         0.010923   
    433. D(H  65,C  17,C  16,H  63)   -171.7058         0.010923   
    434. D(H  65,C  17,C  16,N  15)     69.9204         0.010923   
    435. D(O  43,C  17,C  16,H  64)   -170.5614         0.010923   
    436. D(O  43,C  17,C  16,H  63)     69.1973         0.010923   
    437. D(O  43,C  17,C  16,N  15)    -49.1766         0.010923   
    438. D(C  18,C  17,C  16,H  64)     66.3075         0.010923   
    439. D(C  18,C  17,C  16,H  63)    -53.9339         0.010923   
    440. D(C  18,C  17,C  16,N  15)   -172.3077         0.010923   
    441. D(H  66,C  18,C  17,H  65)     71.5297         0.009486   
    442. D(H  66,C  18,C  17,O  43)   -167.8215         0.009486   
    443. D(H  66,C  18,C  17,C  16)    -46.8834         0.009486   
    444. D(C  32,C  18,C  17,O  43)     72.8858         0.009486   
    445. D(C  32,C  18,C  17,C  16)   -166.1762         0.009486   
    446. D(C  32,C  18,C  17,H  65)    -47.7631         0.009486   
    447. D(C  19,C  18,C  17,H  65)   -167.2849         0.009486   
    448. D(C  19,C  18,C  17,O  43)    -46.6361         0.009486   
    449. D(C  19,C  18,C  17,C  16)     74.3020         0.009486   
    450. D(O  31,C  19,C  18,H  66)   -146.3707         0.009960   
    451. D(O  31,C  19,C  18,C  32)    -28.1250         0.009960   
    452. D(O  31,C  19,C  18,C  17)     92.6434         0.009960   
    453. D(N  20,C  19,C  18,H  66)     36.1155         0.009960   
    454. D(N  20,C  19,C  18,C  17)    -84.8704         0.009960   
    455. D(N  20,C  19,C  18,C  32)    154.3612         0.009960   
    456. D(H  67,N  20,C  19,O  31)    178.7810         0.031264   
    457. D(H  67,N  20,C  19,C  18)     -3.7126         0.031264   
    458. D(C  21,N  20,C  19,O  31)    -11.1353         0.031264   
    459. D(C  21,N  20,C  19,C  18)    166.3711         0.031264   
    460. D(H  68,C  21,N  20,H  67)    143.3273         0.016718   
    461. D(H  68,C  21,N  20,C  19)    -27.3794         0.016718   
    462. D(C  27,C  21,N  20,H  67)    -96.7652         0.016718   
    463. D(C  27,C  21,N  20,C  19)     92.5282         0.016718   
    464. D(C  22,C  21,N  20,H  67)     24.2632         0.016718   
    465. D(C  22,C  21,N  20,C  19)   -146.4434         0.016718   
    466. D(N  23,C  22,C  21,C  27)    -94.6580         0.010394   
    467. D(N  23,C  22,C  21,N  20)    143.9874         0.010394   
    468. D(O  26,C  22,C  21,H  68)   -154.4590         0.010394   
    469. D(O  26,C  22,C  21,C  27)     83.0620         0.010394   
    470. D(O  26,C  22,C  21,N  20)    -38.2927         0.010394   
    471. D(N  23,C  22,C  21,H  68)     27.8211         0.010394   
    472. D(H  69,N  23,C  22,O  26)    170.4712         0.032813   
    473. D(H  69,N  23,C  22,C  21)    -11.8897         0.032813   
    474. D(C  24,N  23,C  22,O  26)      1.1684         0.032813   
    475. D(C  24,N  23,C  22,C  21)    178.8076         0.032813   
    476. D(H  70,C  24,N  23,H  69)    176.7247         0.015535   
    477. D(H  70,C  24,N  23,C  22)    -13.8071         0.015535   
    478. D(C  25,C  24,N  23,H  69)     56.7383         0.015535   
    479. D(C  25,C  24,N  23,C  22)   -133.7936         0.015535   
    480. D(C   7,C  24,N  23,H  69)    -64.2916         0.015535   
    481. D(C   7,C  24,N  23,C  22)    105.1765         0.015535   
    482. D(H  70,C  24,C   7,O   8)   -166.9856         0.009661   
    483. D(H  70,C  24,C   7,N   6)     14.8862         0.009661   
    484. D(C  25,C  24,C   7,O   8)    -43.3725         0.009661   
    485. D(C  25,C  24,C   7,N   6)    138.4993         0.009661   
    486. D(N  23,C  24,C   7,O   8)     77.7849         0.009661   
    487. D(N  23,C  24,C   7,N   6)   -100.3434         0.009661   
    488. D(H  73,C  25,C  24,H  70)    179.2589         0.011474   
    489. D(H  73,C  25,C  24,N  23)    -63.8311         0.011474   
    490. D(H  73,C  25,C  24,C   7)     55.2647         0.011474   
    491. D(H  72,C  25,C  24,H  70)     60.3563         0.011474   
    492. D(H  72,C  25,C  24,N  23)    177.2663         0.011474   
    493. D(H  72,C  25,C  24,C   7)    -63.6378         0.011474   
    494. D(H  71,C  25,C  24,H  70)    -59.6483         0.011474   
    495. D(H  71,C  25,C  24,N  23)     57.2617         0.011474   
    496. D(H  71,C  25,C  24,C   7)    176.3576         0.011474   
    497. D(H  75,C  27,C  21,H  68)     64.3751         0.010168   
    498. D(H  75,C  27,C  21,C  22)   -172.1629         0.010168   
    499. D(H  75,C  27,C  21,N  20)    -53.9551         0.010168   
    500. D(H  74,C  27,C  21,H  68)    179.2107         0.010168   
    501. D(H  74,C  27,C  21,C  22)    -57.3273         0.010168   
    502. D(H  74,C  27,C  21,N  20)     60.8805         0.010168   
    503. D(C  28,C  27,C  21,H  68)    -57.4448         0.010168   
    504. D(C  28,C  27,C  21,C  22)     66.0172         0.010168   
    505. D(C  28,C  27,C  21,N  20)   -175.7750         0.010168   
    506. D(H  76,C  28,C  27,H  75)   -177.6384         0.010702   
    507. D(H  76,C  28,C  27,H  74)     64.8140         0.010702   
    508. D(H  76,C  28,C  27,C  21)    -57.3803         0.010702   
    509. D(C  30,C  28,C  27,H  75)     65.0237         0.010702   
    510. D(C  30,C  28,C  27,H  74)    -52.5239         0.010702   
    511. D(C  30,C  28,C  27,C  21)   -174.7182         0.010702   
    512. D(C  29,C  28,C  27,H  75)    -58.1921         0.010702   
    513. D(C  29,C  28,C  27,H  74)   -175.7397         0.010702   
    514. D(C  29,C  28,C  27,C  21)     62.0660         0.010702   
    515. D(H  79,C  29,C  28,C  30)     55.9547         0.010869   
    516. D(H  79,C  29,C  28,C  27)    178.7012         0.010869   
    517. D(H  78,C  29,C  28,H  76)    178.3690         0.010869   
    518. D(H  78,C  29,C  28,C  30)    -63.8101         0.010869   
    519. D(H  78,C  29,C  28,C  27)     58.9363         0.010869   
    520. D(H  77,C  29,C  28,H  76)     58.5436         0.010869   
    521. D(H  77,C  29,C  28,C  30)    176.3644         0.010869   
    522. D(H  79,C  29,C  28,H  76)    -61.8661         0.010869   
    523. D(H  77,C  29,C  28,C  27)    -60.8891         0.010869   
    524. D(H  82,C  30,C  28,H  76)   -179.7985         0.010907   
    525. D(H  82,C  30,C  28,C  29)     62.0320         0.010907   
    526. D(H  82,C  30,C  28,C  27)    -62.1195         0.010907   
    527. D(H  81,C  30,C  28,H  76)     60.5506         0.010907   
    528. D(H  81,C  30,C  28,C  29)    -57.6189         0.010907   
    529. D(H  81,C  30,C  28,C  27)    178.2296         0.010907   
    530. D(H  80,C  30,C  28,H  76)    -59.9231         0.010907   
    531. D(H  80,C  30,C  28,C  29)   -178.0925         0.010907   
    532. D(H  80,C  30,C  28,C  27)     57.7560         0.010907   
    533. D(O  42,C  32,C  18,H  66)   -134.3131         0.010084   
    534. D(O  42,C  32,C  18,C  19)    106.7568         0.010084   
    535. D(O  42,C  32,C  18,C  17)    -14.5740         0.010084   
    536. D(C  33,C  32,C  18,H  66)     48.9886         0.010084   
    537. D(C  33,C  32,C  18,C  19)    -69.9415         0.010084   
    538. D(C  33,C  32,C  18,C  17)    168.7277         0.010084   
    539. D(H  84,C  33,C  32,O  42)    149.3990         0.011576   
    540. D(H  84,C  33,C  32,C  18)    -33.9739         0.011576   
    541. D(H  83,C  33,C  32,O  42)    -98.1605         0.011576   
    542. D(H  83,C  33,C  32,C  18)     78.4666         0.011576   
    543. D(C  34,C  33,C  32,O  42)     22.2030         0.011576   
    544. D(C  34,C  33,C  32,C  18)   -161.1700         0.011576   
    545. D(H  86,C  34,C  33,H  84)     80.0504         0.011006   
    546. D(H  86,C  34,C  33,H  83)    -37.2462         0.011006   
    547. D(H  86,C  34,C  33,C  32)   -153.8732         0.011006   
    548. D(H  85,C  34,C  33,H  84)   -164.8170         0.011006   
    549. D(H  85,C  34,C  33,H  83)     77.8863         0.011006   
    550. D(H  85,C  34,C  33,C  32)    -38.7406         0.011006   
    551. D(C  35,C  34,C  33,H  84)    -41.6701         0.011006   
    552. D(C  35,C  34,C  33,H  83)   -158.9668         0.011006   
    553. D(C  35,C  34,C  33,C  32)     84.4062         0.011006   
    554. D(H  88,C  35,C  34,H  86)    -60.5702         0.010632   
    555. D(H  88,C  35,C  34,H  85)   -176.4048         0.010632   
    556. D(H  88,C  35,C  34,C  33)     61.2257         0.010632   
    557. D(H  87,C  35,C  34,H  86)     53.4301         0.010632   
    558. D(H  87,C  35,C  34,H  85)    -62.4046         0.010632   
    559. D(H  87,C  35,C  34,C  33)    175.2260         0.010632   
    560. D(C  36,C  35,C  34,H  86)    175.2633         0.010632   
    561. D(C  36,C  35,C  34,H  85)     59.4286         0.010632   
    562. D(C  36,C  35,C  34,C  33)    -62.9408         0.010632   
    563. D(H  90,C  36,C  35,H  87)    -31.8165         0.010384   
    564. D(H  90,C  36,C  35,C  34)   -152.7126         0.010384   
    565. D(H  89,C  36,C  35,H  88)   -161.4149         0.010384   
    566. D(H  89,C  36,C  35,H  87)     83.7778         0.010384   
    567. D(H  89,C  36,C  35,C  34)    -37.1183         0.010384   
    568. D(C  37,C  36,C  35,H  88)    -37.7017         0.010384   
    569. D(C  37,C  36,C  35,H  87)   -152.5090         0.010384   
    570. D(H  90,C  36,C  35,H  88)     82.9908         0.010384   
    571. D(C  37,C  36,C  35,C  34)     86.5949         0.010384   
    572. D(H  92,C  37,C  36,H  90)   -179.8516         0.011015   
    573. D(H  92,C  37,C  36,H  89)     65.1331         0.011015   
    574. D(H  92,C  37,C  36,C  35)    -58.5393         0.011015   
    575. D(H  91,C  37,C  36,H  90)    -64.5421         0.011015   
    576. D(H  91,C  37,C  36,H  89)   -179.5574         0.011015   
    577. D(H  91,C  37,C  36,C  35)     56.7703         0.011015   
    578. D(C  38,C  37,C  36,H  90)     57.8280         0.011015   
    579. D(C  38,C  37,C  36,H  89)    -57.1873         0.011015   
    580. D(C  38,C  37,C  36,C  35)    179.1404         0.011015   
    581. D(H  94,C  38,C  37,H  92)    177.3589         0.011233   
    582. D(H  94,C  38,C  37,H  91)     63.0013         0.011233   
    583. D(H  94,C  38,C  37,C  36)    -59.1662         0.011233   
    584. D(H  93,C  38,C  37,H  92)    -67.0537         0.011233   
    585. D(H  93,C  38,C  37,H  91)    178.5887         0.011233   
    586. D(H  93,C  38,C  37,C  36)     56.4212         0.011233   
    587. D(C  39,C  38,C  37,H  92)     55.0608         0.011233   
    588. D(C  39,C  38,C  37,H  91)    -59.2968         0.011233   
    589. D(C  39,C  38,C  37,C  36)    178.5357         0.011233   
    590. D(H  95,C  39,C  38,H  94)    -70.6076         0.011156   
    591. D(H  95,C  39,C  38,H  93)    173.6675         0.011156   
    592. D(H  95,C  39,C  38,C  37)     51.4105         0.011156   
    593. D(C  40,C  39,C  38,H  94)     52.0193         0.011156   
    594. D(C  40,C  39,C  38,H  93)    -63.7056         0.011156   
    595. D(C  40,C  39,C  38,C  37)    174.0374         0.011156   
    596. D(H  96,C  39,C  38,H  94)    173.1918         0.011156   
    597. D(H  96,C  39,C  38,H  93)     57.4670         0.011156   
    598. D(H  96,C  39,C  38,C  37)    -64.7900         0.011156   
    599. D(H  98,C  40,C  39,H  95)     62.4244         0.011154   
    600. D(H  98,C  40,C  39,C  38)    -60.1884         0.011154   
    601. D(H  97,C  40,C  39,H  96)    -65.3890         0.011154   
    602. D(H  97,C  40,C  39,H  95)    178.7892         0.011154   
    603. D(H  97,C  40,C  39,C  38)     56.1764         0.011154   
    604. D(C  41,C  40,C  39,H  96)     55.6963         0.011154   
    605. D(C  41,C  40,C  39,H  95)    -60.1255         0.011154   
    606. D(H  98,C  40,C  39,H  96)    178.2463         0.011154   
    607. D(C  41,C  40,C  39,C  38)    177.2617         0.011154   
    608. D(H 101,C  41,C  40,H  98)    -63.8976         0.011235   
    609. D(H 101,C  41,C  40,H  97)    179.0827         0.011235   
    610. D(H 101,C  41,C  40,C  39)     58.1555         0.011235   
    611. D(H 100,C  41,C  40,H  98)    176.0134         0.011235   
    612. D(H 100,C  41,C  40,H  97)     58.9937         0.011235   
    613. D(H 100,C  41,C  40,C  39)    -61.9334         0.011235   
    614. D(H  99,C  41,C  40,H  98)     56.4885         0.011235   
    615. D(H  99,C  41,C  40,H  97)    -60.5312         0.011235   
    616. D(H  99,C  41,C  40,C  39)    178.5417         0.011235   
    617. D(H 102,O  43,C  17,H  65)     56.5951         0.019985   
    618. D(H 102,O  43,C  17,C  18)    -62.0359         0.019985   
    619. D(H 102,O  43,C  17,C  16)    174.1984         0.019985   
    620. D(H 104,C  45,C  13,H  61)    175.6324         0.010880   
    621. D(H 104,C  45,C  13,C  14)    -67.9413         0.010880   
    622. D(H 104,C  45,C  13,N  12)     58.7565         0.010880   
    623. D(H 103,C  45,C  13,H  61)    -69.9838         0.010880   
    624. D(H 103,C  45,C  13,C  14)     46.4425         0.010880   
    625. D(H 103,C  45,C  13,N  12)    173.1402         0.010880   
    626. D(C  46,C  45,C  13,H  61)     52.7412         0.010880   
    627. D(C  46,C  45,C  13,C  14)    169.1674         0.010880   
    628. D(C  46,C  45,C  13,N  12)    -64.1348         0.010880   
    629. D(H 107,C  46,C  45,H 104)    -63.0559         0.011375   
    630. D(H 107,C  46,C  45,H 103)    179.2639         0.011375   
    631. D(H 107,C  46,C  45,C  13)     58.8678         0.011375   
    632. D(H 106,C  46,C  45,H 104)    177.2657         0.011375   
    633. D(H 106,C  46,C  45,H 103)     59.5855         0.011375   
    634. D(H 106,C  46,C  45,C  13)    -60.8106         0.011375   
    635. D(H 105,C  46,C  45,H 104)     57.2415         0.011375   
    636. D(H 105,C  46,C  45,H 103)    -60.4387         0.011375   
    637. D(H 105,C  46,C  45,C  13)    179.1651         0.011375   
    638. D(H 108,C  48,C  10,H  59)    -63.3769         0.010310   
    639. D(H 108,C  48,C  10,C  11)     50.2940         0.010310   
    640. D(H 108,C  48,C  10,N   9)    178.2423         0.010310   
    641. D(C  50,C  48,C  10,H  59)   -179.6713         0.010310   
    642. D(C  50,C  48,C  10,C  11)    -66.0004         0.010310   
    643. D(C  50,C  48,C  10,N   9)     61.9479         0.010310   
    644. D(C  49,C  48,C  10,H  59)     53.7117         0.010310   
    645. D(C  49,C  48,C  10,C  11)    167.3825         0.010310   
    646. D(C  49,C  48,C  10,N   9)    -64.6692         0.010310   
    647. D(H 111,C  49,C  48,C  50)     57.9469         0.011050   
    648. D(H 111,C  49,C  48,C  10)   -175.3828         0.011050   
    649. D(H 110,C  49,C  48,H 108)    179.1574         0.011050   
    650. D(H 110,C  49,C  48,C  50)    -61.6682         0.011050   
    651. D(H 110,C  49,C  48,C  10)     65.0021         0.011050   
    652. D(H 109,C  49,C  48,H 108)     58.8751         0.011050   
    653. D(H 109,C  49,C  48,C  50)    178.0495         0.011050   
    654. D(H 111,C  49,C  48,H 108)    -61.2274         0.011050   
    655. D(H 109,C  49,C  48,C  10)    -55.2802         0.011050   
    656. D(H 114,C  50,C  48,H 108)    178.6381         0.010867   
    657. D(H 114,C  50,C  48,C  49)     58.9120         0.010867   
    658. D(H 114,C  50,C  48,C  10)    -67.4031         0.010867   
    659. D(H 113,C  50,C  48,H 108)     59.8645         0.010867   
    660. D(H 113,C  50,C  48,C  49)    -59.8617         0.010867   
    661. D(H 113,C  50,C  48,C  10)    173.8232         0.010867   
    662. D(H 112,C  50,C  48,H 108)    -59.9668         0.010867   
    663. D(H 112,C  50,C  48,C  49)   -179.6930         0.010867   
    664. D(H 112,C  50,C  48,C  10)     53.9920         0.010867   
    -----------------------------------------------------------------

Number of atoms                         .... 115
Number of degrees of freedom            .... 664

         *************************************************************
         *                GEOMETRY OPTIMIZATION CYCLE   1            *
         *************************************************************
---------------------------------
CARTESIAN COORDINATES (ANGSTROEM)
---------------------------------
  O      3.269154   -0.237429    0.616530
  C      4.038482   -0.823561    1.379077
  C      4.076502   -0.543841    2.894768
  C      3.151762   -1.519240    3.655291
  C      1.783959   -0.827719    3.574340
  C      2.132562    0.652193    3.764132
  N      3.487197    0.758617    3.179790
  C      4.112445    1.867892    2.703829
  O      5.214601    1.808356    2.149246
  N      4.829095   -1.855986    0.975789
  C      4.897725   -2.296455   -0.414629
  C      3.670606   -3.112353   -0.879913
  N      2.731216   -3.374920    0.072852
  C      1.403245   -3.885405   -0.221997
  C      0.318163   -2.783065   -0.229674
  N      0.762415   -1.512844   -0.076759
  C     -0.099826   -0.359300   -0.244397
  C     -0.427553   -0.094755   -1.718296
  C     -1.189708    1.242919   -1.926935
  C     -0.245828    2.445207   -1.767093
  N     -0.064468    2.868339   -0.485741
  C      1.003486    3.787678   -0.128421
  C      1.448821    3.397963    1.283158
  N      2.774526    3.517792    1.538892
  C      3.376123    3.215290    2.838508
  C      4.343286    4.317719    3.259546
  O      0.616637    3.041766    2.128012
  C      0.525200    5.254408   -0.171931
  C      1.602964    6.316571    0.090978
  C      2.716908    6.282405   -0.962548
  C      0.956970    7.705851    0.145642
  O      0.338429    2.954963   -2.722713
  C     -1.787970    1.294192   -3.339667
  C     -2.779732    2.404045   -3.622437
  C     -3.676997    2.173164   -4.842272
  C     -4.936904    1.328327   -4.595898
  C     -4.711768   -0.129600   -4.152968
  C     -4.545753   -0.326134   -2.643047
  C     -4.344728   -1.784773   -2.231557
  C     -4.144376   -1.967486   -0.725939
  C     -4.086929   -3.432164   -0.287860
  C     -3.819767   -3.591069    1.209024
  O     -1.421011    0.506119   -4.198521
  O      0.794622   -0.113797   -2.439420
  O     -0.871877   -3.083193   -0.354478
  C      1.010626   -5.019281    0.732832
  C      1.901645   -6.251162    0.590068
  O      3.578613   -3.460778   -2.052983
  C      6.198748   -3.073442   -0.696168
  C      7.431827   -2.179443   -0.538342
  C      6.302590   -4.351845    0.144627
  H      5.119023   -0.580446    3.244484
  H      3.488664   -1.599589    4.699448
  H      3.162294   -2.530968    3.227324
  H      1.338363   -0.983846    2.581254
  H      1.074632   -1.188541    4.329295
  H      1.428635    1.324087    3.258385
  H      2.165058    0.914892    4.835481
  H      5.494277   -2.246345    1.637106
  H      4.873430   -1.394661   -1.047341
  H      2.923751   -3.049806    1.015805
  H      1.452181   -4.267793   -1.254367
  H      1.763487   -1.316559   -0.119876
  H      0.438330    0.492789    0.189893
  H     -1.037023   -0.518340    0.309340
  H     -1.093435   -0.902471   -2.070379
  H     -2.011352    1.314498   -1.193067
  H     -0.565076    2.453662    0.297488
  H      1.812542    3.640467   -0.858772
  H      3.410018    3.672314    0.760243
  H      2.538748    3.144423    3.542469
  H      3.823641    5.284230    3.289701
  H      4.752026    4.105497    4.256859
  H      5.185547    4.373921    2.557624
  H     -0.291942    5.361561    0.559316
  H      0.092446    5.412487   -1.172833
  H      2.053541    6.115879    1.078928
  H      3.249174    5.320432   -0.989031
  H      2.303843    6.449782   -1.969059
  H      3.464350    7.064890   -0.768165
  H      0.178510    7.754639    0.920979
  H      1.704005    8.482662    0.364292
  H      0.487311    7.955128   -0.818844
  H     -2.139219    3.291031   -3.780725
  H     -3.366489    2.619243   -2.714665
  H     -3.067335    1.702503   -5.629071
  H     -3.991304    3.153718   -5.231608
  H     -5.512266    1.327827   -5.535468
  H     -5.578071    1.836359   -3.852697
  H     -3.834021   -0.541262   -4.677019
  H     -5.574477   -0.735882   -4.476013
  H     -5.433199    0.081987   -2.126734
  H     -3.694266    0.263328   -2.266992
  H     -3.473532   -2.200418   -2.766292
  H     -5.216962   -2.376191   -2.562778
  H     -4.957587   -1.452649   -0.182098
  H     -3.203616   -1.475305   -0.423467
  H     -3.288892   -3.939383   -0.851126
  H     -5.036092   -3.927749   -0.556941
  H     -3.807932   -4.649587    1.507686
  H     -2.841217   -3.160188    1.465614
  H     -4.589763   -3.081874    1.810407
  H      0.543531   -0.037225   -3.380899
  H     -0.040534   -5.263461    0.528980
  H      1.043600   -4.637339    1.769070
  H      1.604082   -7.038162    1.296809
  H      1.836432   -6.666019   -0.426316
  H      2.957383   -6.008207    0.780710
  H      6.108822   -3.370374   -1.752083
  H      7.358658   -1.284824   -1.172471
  H      7.563356   -1.838689    0.500605
  H      8.342478   -2.725493   -0.821742
  H      5.415507   -4.988851    0.020185
  H      7.182240   -4.936825   -0.156703
  H      6.420447   -4.138202    1.220364

----------------------------
CARTESIAN COORDINATES (A.U.)
----------------------------
  NO LB      ZA    FRAG     MASS         X           Y           Z
   0 O     8.0000    0    15.999    6.177806   -0.448675    1.165073
   1 C     6.0000    0    12.011    7.631625   -1.556305    2.606077
   2 C     6.0000    0    12.011    7.703473   -1.027711    5.470319
   3 C     6.0000    0    12.011    5.955968   -2.870947    6.907499
   4 C     6.0000    0    12.011    3.371193   -1.564162    6.754524
   5 C     6.0000    0    12.011    4.029959    1.232467    7.113179
   6 N     7.0000    0    14.007    6.589848    1.433579    6.008932
   7 C     6.0000    0    12.011    7.771395    3.529804    5.109497
   8 O     8.0000    0    15.999    9.854167    3.417298    4.061486
   9 N     7.0000    0    14.007    9.125667   -3.507306    1.843973
  10 C     6.0000    0    12.011    9.255358   -4.339670   -0.783536
  11 C     6.0000    0    12.011    6.936440   -5.881495   -1.662795
  12 N     7.0000    0    14.007    5.161250   -6.377675    0.137670
  13 C     6.0000    0    12.011    2.651748   -7.342351   -0.419514
  14 C     6.0000    0    12.011    0.601240   -5.259230   -0.434021
  15 N     7.0000    0    14.007    1.440755   -2.858860   -0.145054
  16 C     6.0000    0    12.011   -0.188643   -0.678978   -0.461844
  17 C     6.0000    0    12.011   -0.807958   -0.179061   -3.247109
  18 C     6.0000    0    12.011   -2.248222    2.348777   -3.641379
  19 C     6.0000    0    12.011   -0.464547    4.620773   -3.339322
  20 N     7.0000    0    14.007   -0.121827    5.420375   -0.917917
  21 C     6.0000    0    12.011    1.896314    7.157675   -0.242680
  22 C     6.0000    0    12.011    2.737875    6.421220    2.424818
  23 N     7.0000    0    14.007    5.243095    6.647663    2.908085
  24 C     6.0000    0    12.011    6.379947    6.076018    5.364002
  25 C     6.0000    0    12.011    8.207620    8.159306    6.159650
  26 O     8.0000    0    15.999    1.165274    5.748105    4.021361
  27 C     6.0000    0    12.011    0.992485    9.929391   -0.324902
  28 C     6.0000    0    12.011    3.029162   11.936589    0.171924
  29 C     6.0000    0    12.011    5.134212   11.872024   -1.818952
  30 C     6.0000    0    12.011    1.808410   14.561947    0.275223
  31 O     8.0000    0    15.999    0.639539    5.584071   -5.145182
  32 C     6.0000    0    12.011   -3.378773    2.445668   -6.311056
  33 C     6.0000    0    12.011   -5.252931    4.542987   -6.845414
  34 C     6.0000    0    12.011   -6.948518    4.106685   -9.150568
  35 C     6.0000    0    12.011   -9.329396    2.510175   -8.684989
  36 C     6.0000    0    12.011   -8.903951   -0.244908   -7.847973
  37 C     6.0000    0    12.011   -8.590229   -0.616304   -4.994634
  38 C     6.0000    0    12.011   -8.210345   -3.372731   -4.217031
  39 C     6.0000    0    12.011   -7.831736   -3.718010   -1.371826
  40 C     6.0000    0    12.011   -7.723176   -6.485850   -0.543977
  41 C     6.0000    0    12.011   -7.218314   -6.786137    2.284723
  42 O     8.0000    0    15.999   -2.685322    0.956426   -7.934055
  43 O     8.0000    0    15.999    1.501618   -0.215046   -4.609836
  44 O     8.0000    0    15.999   -1.647608   -5.826391   -0.669866
  45 C     6.0000    0    12.011    1.909806   -9.485066    1.384851
  46 C     6.0000    0    12.011    3.593588  -11.812983    1.115068
  47 O     8.0000    0    15.999    6.762598   -6.539922   -3.879575
  48 C     6.0000    0    12.011   11.713936   -5.807964   -1.315567
  49 C     6.0000    0    12.011   14.044117   -4.118550   -1.017319
  50 C     6.0000    0    12.011   11.910170   -8.223796    0.273305
  51 H     1.0000    0     1.008    9.673552   -1.096884    6.131187
  52 H     1.0000    0     1.008    6.592620   -3.022786    8.880669
  53 H     1.0000    0     1.008    5.975870   -4.782837    6.098758
  54 H     1.0000    0     1.008    2.529140   -1.859199    4.877864
  55 H     1.0000    0     1.008    2.030761   -2.246017    8.181181
  56 H     1.0000    0     1.008    2.699729    2.502161    6.157455
  57 H     1.0000    0     1.008    4.091367    1.728896    9.137735
  58 H     1.0000    0     1.008   10.382680   -4.244977    3.093682
  59 H     1.0000    0     1.008    9.209447   -2.635526   -1.979189
  60 H     1.0000    0     1.008    5.525089   -5.763297    1.919592
  61 H     1.0000    0     1.008    2.744225   -8.064959   -2.370409
  62 H     1.0000    0     1.008    3.332507   -2.487936   -0.226533
  63 H     1.0000    0     1.008    0.828323    0.931236    0.358846
  64 H     1.0000    0     1.008   -1.959689   -0.979521    0.584567
  65 H     1.0000    0     1.008   -2.066292   -1.705424   -3.912450
  66 H     1.0000    0     1.008   -3.800904    2.484041   -2.254569
  67 H     1.0000    0     1.008   -1.067839    4.636750    0.562170
  68 H     1.0000    0     1.008    3.425209    6.879485   -1.622845
  69 H     1.0000    0     1.008    6.444001    6.939668    1.436652
  70 H     1.0000    0     1.008    4.797538    5.942097    6.694297
  71 H     1.0000    0     1.008    7.225635    9.985748    6.216633
  72 H     1.0000    0     1.008    8.980028    7.758265    8.044298
  73 H     1.0000    0     1.008    9.799265    8.265512    4.833209
  74 H     1.0000    0     1.008   -0.551691   10.131883    1.056955
  75 H     1.0000    0     1.008    0.174698   10.228118   -2.216333
  76 H     1.0000    0     1.008    3.880630   11.557336    2.038879
  77 H     1.0000    0     1.008    6.140050   10.054159   -1.868997
  78 H     1.0000    0     1.008    4.353632   12.188322   -3.720982
  79 H     1.0000    0     1.008    6.546673   13.350707   -1.451621
  80 H     1.0000    0     1.008    0.337335   14.654145    1.740398
  81 H     1.0000    0     1.008    3.220104   16.029909    0.688412
  82 H     1.0000    0     1.008    0.920884   15.033014   -1.547392
  83 H     1.0000    0     1.008   -4.042537    6.219147   -7.144535
  84 H     1.0000    0     1.008   -6.361743    4.949652   -5.129974
  85 H     1.0000    0     1.008   -5.796423    3.217265  -10.637402
  86 H     1.0000    0     1.008   -7.542472    5.959663   -9.886306
  87 H     1.0000    0     1.008  -10.416673    2.509230  -10.460518
  88 H     1.0000    0     1.008  -10.541027    3.470215   -7.280543
  89 H     1.0000    0     1.008   -7.245250   -1.022837   -8.838285
  90 H     1.0000    0     1.008  -10.534234   -1.390616   -8.458439
  91 H     1.0000    0     1.008  -10.267259    0.154933   -4.018944
  92 H     1.0000    0     1.008   -6.981152    0.497618   -4.283994
  93 H     1.0000    0     1.008   -6.564024   -4.158187   -5.227534
  94 H     1.0000    0     1.008   -9.858629   -4.490349   -4.842948
  95 H     1.0000    0     1.008   -9.368483   -2.745109   -0.344115
  96 H     1.0000    0     1.008   -6.053957   -2.787922   -0.800237
  97 H     1.0000    0     1.008   -6.215105   -7.444355   -1.608395
  98 H     1.0000    0     1.008   -9.516835   -7.422369   -1.052466
  99 H     1.0000    0     1.008   -7.195948   -8.786447    2.849114
 100 H     1.0000    0     1.008   -5.369122   -5.971890    2.769610
 101 H     1.0000    0     1.008   -8.673394   -5.823897    3.421174
 102 H     1.0000    0     1.008    1.027125   -0.070345   -6.388974
 103 H     1.0000    0     1.008   -0.076597   -9.946501    0.999627
 104 H     1.0000    0     1.008    1.972118   -8.763301    3.343058
 105 H     1.0000    0     1.008    3.031276  -13.300199    2.450613
 106 H     1.0000    0     1.008    3.470354  -12.596950   -0.805620
 107 H     1.0000    0     1.008    5.588644  -11.353865    1.475329
 108 H     1.0000    0     1.008   11.544001   -6.369083   -3.310958
 109 H     1.0000    0     1.008   13.905849   -2.427965   -2.215649
 110 H     1.0000    0     1.008   14.292671   -3.474620    0.946007
 111 H     1.0000    0     1.008   15.765000   -5.150436   -1.552867
 112 H     1.0000    0     1.008   10.233824   -9.427562    0.038144
 113 H     1.0000    0     1.008   13.572467   -9.329248   -0.296126
 114 H     1.0000    0     1.008   12.132886   -7.820069    2.306155

--------------------------------
INTERNAL COORDINATES (ANGSTROEM)
--------------------------------
 O      0   0   0     0.000000000000     0.00000000     0.00000000
 C      1   0   0     1.231622296521     0.00000000     0.00000000
 C      2   1   0     1.541755122427   122.52955201     0.00000000
 C      3   2   1     1.544325394151   110.77995640    92.95742995
 C      4   3   2     1.534809738739   102.89086640   274.48279482
 C      5   4   3     1.532216064072   103.05493095   320.77919920
 N      3   2   1     1.457709359580   110.14268529   339.59031274
 C      7   3   2     1.359398307595   118.33960740   294.92862476
 O      8   7   3     1.235254483805   121.88730167   353.36190736
 N      2   1   3     1.361474131800   122.69860597   173.51536435
 C     10   2   1     1.460131780129   122.55585605     4.22989048
 C     11  10   2     1.545315483493   114.12107050   284.41297712
 N     12  11  10     1.363509133209   115.99984292   356.55748149
 C     13  12  11     1.452940989988   123.74855937   167.23363479
 C     14  13  12     1.546808323405   113.06525517   260.60033269
 N     15  14  13     1.354328047304   115.95907231     5.26445336
 C     16  15  14     1.449904985313   122.55201490   171.33331633
 C     17  16  15     1.532895053160   112.06235277   286.27596433
 C     18  17  16     1.553634719289   112.49433187   187.69225405
 C     19  18  17     1.536865670861   110.99622599    74.30197811
 N     20  19  18     1.361541555838   115.01175942   275.12955149
 C     21  20  19     1.453749732852   121.71533826   166.37109428
 C     22  21  20     1.530606497541   106.22451921   213.55655747
 N     23  22  21     1.355452871957   115.85260369   143.98735669
 C     24  23  22     1.463702800685   123.45205339   178.80760821
 C     25  24  23     1.525787047302   110.86818083   226.20640942
 O     23  22  21     1.238218966104   120.46114788   321.70729510
 C     22  21  20     1.543355195582   111.49415744    92.52815301
 C     28  22  21     1.535866476476   115.78178244   184.22499440
 C     29  28  22     1.533608665888   112.12971008    62.06600231
 C     29  28  22     1.533099824994   109.70123025   185.28177165
 O     20  19  18     1.230616247750   122.33506727    92.64335216
 C     19  18  17     1.535043712747   110.09263195   193.82383352
 C     33  19  18     1.515033032928   116.83141873   168.72770690
 C     34  33  19     1.531792793268   114.93969494   198.83004448
 C     35  34  33     1.536819460287   115.81134242    84.40624580
 C     36  35  34     1.540267894433   116.52667119   297.05915024
 C     37  36  35     1.531682320392   114.88366828    86.59493643
 C     38  37  36     1.528843249563   113.70324376   179.14039269
 C     39  38  37     1.529839803771   113.33201492   178.53565264
 C     40  39  38     1.529867207191   113.64562518   174.03740579
 C     41  40  39     1.528818937544   112.73327229   177.26170468
 O     33  19  18     1.222026467717   120.54659597   345.42597989
 O     18  17  16     1.419188127041   107.58594047   310.82336925
 O     15  14  13     1.233631651635   120.25372077   186.05926934
 C     14  13  12     1.533467195299   111.55816416   135.30680114
 C     46  14  13     1.527031959736   112.88568218   295.86518659
 O     12  11  10     1.227173343232   119.81844847   175.30061672
 C     11  10   2     1.541309544911   111.44986937   158.47359841
 C     49  11  10     1.531217602419   111.50602246   295.33080245
 C     49  11  10     1.533634417962   112.16195294    61.94786322
 H      3   2   1     1.100223315410   109.25766711   218.00502076
 H      4   3   2     1.100101156721   109.27915099   156.65362471
 H      4   3   2     1.098572526226   112.58693225    37.36405137
 H      5   4   3     1.099613733540   110.16940720    78.05723604
 H      5   4   3     1.096946952769   113.06478655   199.29687522
 H      6   5   4     1.096692742741   112.86640985   150.94051343
 H      6   5   4     1.103564700428   110.90815520   273.20039113
 H     10   2   1     1.015966571402   118.60398052   175.18477019
 H     11  10   2     1.101883543893   107.38992473    39.10555891
 H     13  12  11     1.015839113014   117.15594518   357.66024601
 H     14  13  12     1.101999215958   105.74983298    16.02210339
 H     16  15  14     1.021044851995   119.81097169    10.04136414
 H     17  16  15     1.097394240865   106.28218496   165.38941725
 H     17  16  15     1.100116760970   109.47553636    47.42939041
 H     18  17  16     1.104430635398   108.01163108    69.92036329
 H     19  18  17     1.103985582722   109.36941540   313.11660426
 H     21  20  19     1.017846721274   122.14418967   356.28737842
 H     22  21  20     1.099844113065   107.00957226   332.62061570
 H     24  23  22     1.016868541118   118.69828838   348.11032320
 H     25  24  23     1.096257883015   105.63884039   346.19289436
 H     26  25  24     1.097763208638   110.10042122    57.26172872
 H     26  25  24     1.098517031817   110.29149311   177.26632270
 H     26  25  24     1.097842806141   110.29574988   296.16889165
 H     28  22  21     1.101783227528   107.67120947    60.88049376
 H     28  22  21     1.101848723384   106.47920495   306.04488867
 H     29  28  22     1.104238502347   108.28823494   302.61973247
 H     30  29  28     1.099727567482   112.80432509   299.11085449
 H     30  29  28     1.100773406163   110.62073897    58.93632314
 H     30  29  28     1.099426230659   110.88525579   178.70117488
 H     31  29  28     1.099785178214   111.32092438    57.75597841
 H     31  29  28     1.099684850017   111.16018953   178.22963863
 H     31  29  28     1.101341375052   110.70582103   297.88054662
 H     34  33  19     1.105465956923   103.60445279    78.46663793
 H     34  33  19     1.102109202746   109.74417888   326.02606362
 H     35  34  33     1.101027695209   108.00824103   321.25935563
 H     35  34  33     1.100843341808   108.33852543   206.12683010
 H     36  35  34     1.101740593474   106.95765292   175.22597246
 H     36  35  34     1.105232578426   109.31143974    61.22570264
 H     37  36  35     1.102059342745   109.46570407   322.88172267
 H     37  36  35     1.102815811619   108.77121207   207.28744818
 H     38  37  36     1.104853737999   109.03936191    56.77028662
 H     38  37  36     1.101777147311   110.58421478   301.46074461
 H     39  38  37     1.103487431901   109.43584588    56.42119747
 H     39  38  37     1.104660514583   109.04279657   300.83375873
 H     40  39  38     1.105501357680   109.40204323    51.41052052
 H     40  39  38     1.103975046655   109.14743290   295.20998123
 H     41  40  39     1.100637007764   108.77710629    56.17641039
 H     41  40  39     1.104046758838   109.12801317   299.81163061
 H     42  41  40     1.099909437517   111.57817487   178.54165129
 H     42  41  40     1.099571750598   110.07606390   298.06655727
 H     42  41  40     1.101741699409   111.36311771    58.15554526
 H     44  18  17     0.977390840937   105.49576980   174.19842073
 H     46  14  13     1.098233124413   107.09064420   173.14024103
 H     46  14  13     1.104878479145   108.70701070    58.75645355
 H     47  46  14     1.098815252833   111.07849527   179.16512079
 H     47  46  14     1.099725237670   110.86260353   299.18936184
 H     47  46  14     1.099979338140   111.44725869    58.86776184
 H     49  11  10     1.100550584699   104.02188212   178.24225447
 H     50  49  11     1.099006769505   111.23420175   304.71981801
 H     50  49  11     1.101282966965   111.96671140    65.00210318
 H     50  49  11     1.098987630058   110.52483695   184.61724919
 H     51  49  11     1.099172222757   111.49200613    53.99196146
 H     51  49  11     1.098537643768   110.34812071   173.82324737
 H     51  49  11     1.103061651832   112.36107018   292.59689019

---------------------------
INTERNAL COORDINATES (A.U.)
---------------------------
 O      0   0   0     0.000000000000     0.00000000     0.00000000
 C      1   0   0     2.327428840855     0.00000000     0.00000000
 C      2   1   0     2.913494946957   122.52955201     0.00000000
 C      3   2   1     2.918352056605   110.77995640    92.95742995
 C      4   3   2     2.900370073893   102.89086640   274.48279482
 C      5   4   3     2.895468739090   103.05493095   320.77919920
 N      3   2   1     2.754671472460   110.14268529   339.59031274
 C      7   3   2     2.568890508270   118.33960740   294.92862476
 O      8   7   3     2.334292680090   121.88730167   353.36190736
 N      2   1   3     2.572813247521   122.69860597   173.51536435
 C     10   2   1     2.759249183878   122.55585605     4.22989048
 C     11  10   2     2.920223054310   114.12107050   284.41297712
 N     12  11  10     2.576658842866   115.99984292   356.55748149
 C     13  12  11     2.745660559825   123.74855937   167.23363479
 C     14  13  12     2.923044112905   113.06525517   260.60033269
 N     15  14  13     2.559309104893   115.95907231     5.26445336
 C     16  15  14     2.739923342449   122.55201490   171.33331633
 C     17  16  15     2.896751842516   112.06235277   286.27596433
 C     18  17  16     2.935944131608   112.49433187   187.69225405
 C     19  18  17     2.904255222552   110.99622599    74.30197811
 N     20  19  18     2.572940660487   115.01175942   275.12955149
 C     21  20  19     2.747188862351   121.71533826   166.37109428
 C     22  21  20     2.892427099153   106.22451921   213.55655747
 N     23  22  21     2.561434715435   115.85260369   143.98735669
 C     24  23  22     2.765997434749   123.45205339   178.80760821
 C     25  24  23     2.883319658085   110.86818083   226.20640942
 O     23  22  21     2.339894739763   120.46114788   321.70729510
 C     22  21  20     2.916518647014   111.49415744    92.52815301
 C     28  22  21     2.902367018810   115.78178244   184.22499440
 C     29  28  22     2.898100375136   112.12971008    62.06600231
 C     29  28  22     2.897138805202   109.70123025   185.28177165
 O     20  19  18     2.325527684201   122.33506727    92.64335216
 C     19  18  17     2.900812220690   110.09263195   193.82383352
 C     33  19  18     2.862997516077   116.83141873   168.72770690
 C     34  33  19     2.894668873191   114.93969494   198.83004448
 C     35  34  33     2.904167897223   115.81134242    84.40624580
 C     36  35  34     2.910684493349   116.52667119   297.05915024
 C     37  36  35     2.894460109709   114.88366828    86.59493643
 C     38  37  36     2.889095043368   113.70324376   179.14039269
 C     39  38  37     2.890978257899   113.33201492   178.53565264
 C     40  39  38     2.891030042857   113.64562518   174.03740579
 C     41  40  39     2.889049100311   112.73327229   177.26170468
 O     33  19  18     2.309295352389   120.54659597   345.42597989
 O     18  17  16     2.681876892620   107.58594047   310.82336925
 O     15  14  13     2.331225971727   120.25372077   186.05926934
 C     14  13  12     2.897833034468   111.55816416   135.30680114
 C     46  14  13     2.885672201646   112.88568218   295.86518659
 O     12  11  10     2.319021537557   119.81844847   175.30061672
 C     11  10   2     2.912652927481   111.44986937   158.47359841
 C     49  11  10     2.893581920011   111.50602246   295.33080245
 C     49  11  10     2.898149039504   112.16195294    61.94786322
 H      3   2   1     2.079120752280   109.25766711   218.00502076
 H      4   3   2     2.078889905812   109.27915099   156.65362471
 H      4   3   2     2.076001212818   112.58693225    37.36405137
 H      5   4   3     2.077968809490   110.16940720    78.05723604
 H      5   4   3     2.072929324174   113.06478655   199.29687522
 H      6   5   4     2.072448936839   112.86640985   150.94051343
 H      6   5   4     2.085435054872   110.90815520   273.20039113
 H     10   2   1     1.919898581169   118.60398052   175.18477019
[...]
freq.      73.54  E(vib)   ...       0.49 
freq.      87.65  E(vib)   ...       0.48 
freq.      90.96  E(vib)   ...       0.47 
freq.      96.36  E(vib)   ...       0.47 
freq.     100.68  E(vib)   ...       0.46 
freq.     106.19  E(vib)   ...       0.45 
freq.     112.09  E(vib)   ...       0.45 
freq.     118.48  E(vib)   ...       0.44 
freq.     120.59  E(vib)   ...       0.44 
freq.     126.49  E(vib)   ...       0.43 
freq.     128.87  E(vib)   ...       0.43 
freq.     136.70  E(vib)   ...       0.42 
freq.     138.32  E(vib)   ...       0.42 
freq.     146.70  E(vib)   ...       0.41 
freq.     151.38  E(vib)   ...       0.40 
freq.     154.26  E(vib)   ...       0.40 
freq.     162.70  E(vib)   ...       0.39 
freq.     164.16  E(vib)   ...       0.39 
freq.     168.07  E(vib)   ...       0.38 
freq.     185.73  E(vib)   ...       0.37 
freq.     193.93  E(vib)   ...       0.36 
freq.     203.81  E(vib)   ...       0.35 
freq.     208.22  E(vib)   ...       0.34 
freq.     210.46  E(vib)   ...       0.34 
freq.     212.66  E(vib)   ...       0.34 
freq.     221.71  E(vib)   ...       0.33 
freq.     223.77  E(vib)   ...       0.33 
freq.     227.34  E(vib)   ...       0.33 
freq.     230.00  E(vib)   ...       0.32 
freq.     232.33  E(vib)   ...       0.32 
freq.     239.23  E(vib)   ...       0.31 
freq.     241.78  E(vib)   ...       0.31 
freq.     242.14  E(vib)   ...       0.31 
freq.     243.56  E(vib)   ...       0.31 
freq.     251.46  E(vib)   ...       0.30 
freq.     265.27  E(vib)   ...       0.29 
freq.     278.83  E(vib)   ...       0.28 
freq.     279.55  E(vib)   ...       0.28 
freq.     282.72  E(vib)   ...       0.28 
freq.     285.26  E(vib)   ...       0.28 
freq.     298.08  E(vib)   ...       0.27 
freq.     300.36  E(vib)   ...       0.26 
freq.     305.62  E(vib)   ...       0.26 
freq.     307.37  E(vib)   ...       0.26 
freq.     319.98  E(vib)   ...       0.25 
freq.     321.42  E(vib)   ...       0.25 
freq.     322.66  E(vib)   ...       0.25 
freq.     334.38  E(vib)   ...       0.24 
freq.     354.04  E(vib)   ...       0.22 
freq.     363.18  E(vib)   ...       0.22 
freq.     378.52  E(vib)   ...       0.21 
freq.     386.17  E(vib)   ...       0.20 
freq.     393.66  E(vib)   ...       0.20 
freq.     401.47  E(vib)   ...       0.19 
freq.     406.01  E(vib)   ...       0.19 
freq.     413.52  E(vib)   ...       0.19 
freq.     425.15  E(vib)   ...       0.18 
freq.     434.65  E(vib)   ...       0.17 
freq.     448.52  E(vib)   ...       0.17 
freq.     449.02  E(vib)   ...       0.17 
freq.     456.57  E(vib)   ...       0.16 
freq.     471.75  E(vib)   ...       0.15 
freq.     480.22  E(vib)   ...       0.15 
freq.     485.23  E(vib)   ...       0.15 
freq.     495.74  E(vib)   ...       0.14 
freq.     508.67  E(vib)   ...       0.14 
freq.     512.48  E(vib)   ...       0.13 
freq.     528.90  E(vib)   ...       0.13 
freq.     533.48  E(vib)   ...       0.13 
freq.     537.59  E(vib)   ...       0.12 
freq.     544.01  E(vib)   ...       0.12 
freq.     570.23  E(vib)   ...       0.11 
freq.     592.19  E(vib)   ...       0.10 
freq.     593.76  E(vib)   ...       0.10 
freq.     608.32  E(vib)   ...       0.10 
freq.     620.28  E(vib)   ...       0.09 
freq.     632.20  E(vib)   ...       0.09 
freq.     655.96  E(vib)   ...       0.08 
freq.     669.51  E(vib)   ...       0.08 
freq.     680.21  E(vib)   ...       0.08 
freq.     692.60  E(vib)   ...       0.07 
freq.     700.51  E(vib)   ...       0.07 
freq.     711.53  E(vib)   ...       0.07 
freq.     724.24  E(vib)   ...       0.06 
freq.     728.48  E(vib)   ...       0.06 
freq.     734.91  E(vib)   ...       0.06 
freq.     746.78  E(vib)   ...       0.06 
freq.     758.26  E(vib)   ...       0.06 
freq.     761.29  E(vib)   ...       0.06 
freq.     771.40  E(vib)   ...       0.05 
freq.     774.25  E(vib)   ...       0.05 
freq.     781.32  E(vib)   ...       0.05 
freq.     792.35  E(vib)   ...       0.05 
freq.     807.23  E(vib)   ...       0.05 
freq.     810.62  E(vib)   ...       0.05 
freq.     815.13  E(vib)   ...       0.05 
freq.     817.89  E(vib)   ...       0.05 
freq.     841.26  E(vib)   ...       0.04 
freq.     849.27  E(vib)   ...       0.04 
freq.     854.95  E(vib)   ...       0.04 
freq.     856.46  E(vib)   ...       0.04 
freq.     867.44  E(vib)   ...       0.04 
freq.     870.40  E(vib)   ...       0.04 
freq.     874.56  E(vib)   ...       0.04 
freq.     880.80  E(vib)   ...       0.04 
freq.     888.98  E(vib)   ...       0.04 
freq.     896.12  E(vib)   ...       0.03 
freq.     899.23  E(vib)   ...       0.03 
freq.     903.84  E(vib)   ...       0.03 
freq.     905.50  E(vib)   ...       0.03 
freq.     906.59  E(vib)   ...       0.03 
freq.     909.81  E(vib)   ...       0.03 
freq.     919.90  E(vib)   ...       0.03 
freq.     930.14  E(vib)   ...       0.03 
freq.     937.10  E(vib)   ...       0.03 
freq.     939.06  E(vib)   ...       0.03 
freq.     944.11  E(vib)   ...       0.03 
freq.     944.49  E(vib)   ...       0.03 
freq.     948.98  E(vib)   ...       0.03 
freq.     951.87  E(vib)   ...       0.03 
freq.     958.98  E(vib)   ...       0.03 
freq.     966.15  E(vib)   ...       0.03 
freq.     977.25  E(vib)   ...       0.03 
freq.     979.51  E(vib)   ...       0.03 
freq.     995.99  E(vib)   ...       0.02 
freq.     997.33  E(vib)   ...       0.02 
freq.    1008.22  E(vib)   ...       0.02 
freq.    1010.72  E(vib)   ...       0.02 
freq.    1016.40  E(vib)   ...       0.02 
freq.    1019.56  E(vib)   ...       0.02 
freq.    1027.39  E(vib)   ...       0.02 
freq.    1030.80  E(vib)   ...       0.02 
freq.    1035.02  E(vib)   ...       0.02 
freq.    1039.13  E(vib)   ...       0.02 
freq.    1049.22  E(vib)   ...       0.02 
freq.    1051.85  E(vib)   ...       0.02 
freq.    1056.50  E(vib)   ...       0.02 
freq.    1072.88  E(vib)   ...       0.02 
freq.    1076.12  E(vib)   ...       0.02 
freq.    1081.93  E(vib)   ...       0.02 
freq.    1084.22  E(vib)   ...       0.02 
freq.    1086.98  E(vib)   ...       0.02 
freq.    1090.00  E(vib)   ...       0.02 
freq.    1091.58  E(vib)   ...       0.02 
freq.    1096.53  E(vib)   ...       0.02 
freq.    1102.78  E(vib)   ...       0.02 
freq.    1114.09  E(vib)   ...       0.01 
freq.    1114.90  E(vib)   ...       0.01 
freq.    1122.68  E(vib)   ...       0.01 
freq.    1125.73  E(vib)   ...       0.01 
freq.    1131.36  E(vib)   ...       0.01 
freq.    1140.84  E(vib)   ...       0.01 
freq.    1143.39  E(vib)   ...       0.01 
freq.    1149.90  E(vib)   ...       0.01 
freq.    1152.16  E(vib)   ...       0.01 
freq.    1158.67  E(vib)   ...       0.01 
freq.    1166.60  E(vib)   ...       0.01 
freq.    1167.44  E(vib)   ...       0.01 
freq.    1180.28  E(vib)   ...       0.01 
freq.    1180.68  E(vib)   ...       0.01 
freq.    1185.39  E(vib)   ...       0.01 
freq.    1185.61  E(vib)   ...       0.01 
freq.    1190.09  E(vib)   ...       0.01 
freq.    1197.98  E(vib)   ...       0.01 
freq.    1204.61  E(vib)   ...       0.01 
freq.    1214.03  E(vib)   ...       0.01 
freq.    1215.93  E(vib)   ...       0.01 
freq.    1220.67  E(vib)   ...       0.01 
freq.    1232.93  E(vib)   ...       0.01 
freq.    1234.78  E(vib)   ...       0.01 
freq.    1238.45  E(vib)   ...       0.01 
freq.    1243.83  E(vib)   ...       0.01 
freq.    1248.94  E(vib)   ...       0.01 
freq.    1250.17  E(vib)   ...       0.01 
freq.    1252.30  E(vib)   ...       0.01 
freq.    1256.51  E(vib)   ...       0.01 
freq.    1262.93  E(vib)   ...       0.01 
freq.    1264.47  E(vib)   ...       0.01 
freq.    1277.01  E(vib)   ...       0.01 
freq.    1280.03  E(vib)   ...       0.01 
freq.    1280.66  E(vib)   ...       0.01 
freq.    1284.40  E(vib)   ...       0.01 
freq.    1285.96  E(vib)   ...       0.01 
freq.    1290.35  E(vib)   ...       0.01 
freq.    1294.22  E(vib)   ...       0.01 
freq.    1294.73  E(vib)   ...       0.01 
freq.    1298.19  E(vib)   ...       0.01 
freq.    1303.41  E(vib)   ...       0.01 
freq.    1307.41  E(vib)   ...       0.01 
freq.    1310.86  E(vib)   ...       0.01 
freq.    1316.43  E(vib)   ...       0.01 
freq.    1320.00  E(vib)   ...       0.01 
freq.    1322.36  E(vib)   ...       0.01 
freq.    1323.83  E(vib)   ...       0.01 
freq.    1324.85  E(vib)   ...       0.01 
freq.    1326.58  E(vib)   ...       0.01 
freq.    1329.63  E(vib)   ...       0.01 
freq.    1329.76  E(vib)   ...       0.01 
freq.    1333.78  E(vib)   ...       0.01 
freq.    1341.55  E(vib)   ...       0.01 
freq.    1342.43  E(vib)   ...       0.01 
freq.    1344.74  E(vib)   ...       0.01 
freq.    1345.02  E(vib)   ...       0.01 
freq.    1347.54  E(vib)   ...       0.01 
freq.    1348.72  E(vib)   ...       0.01 
freq.    1351.05  E(vib)   ...       0.01 
freq.    1355.57  E(vib)   ...       0.01 
freq.    1356.02  E(vib)   ...       0.01 
freq.    1357.67  E(vib)   ...       0.01 
freq.    1357.78  E(vib)   ...       0.01 
freq.    1363.79  E(vib)   ...       0.01 
freq.    1373.46  E(vib)   ...       0.01 
freq.    1378.22  E(vib)   ...       0.01 
freq.    1382.82  E(vib)   ...       0.01 
freq.    1397.48  E(vib)   ...       0.00 
freq.    1401.68  E(vib)   ...       0.00 
freq.    1420.10  E(vib)   ...       0.00 
freq.    1426.87  E(vib)   ...       0.00 
freq.    1427.19  E(vib)   ...       0.00 
freq.    1429.09  E(vib)   ...       0.00 
freq.    1431.65  E(vib)   ...       0.00 
freq.    1432.85  E(vib)   ...       0.00 
freq.    1435.91  E(vib)   ...       0.00 
freq.    1436.12  E(vib)   ...       0.00 
freq.    1437.49  E(vib)   ...       0.00 
freq.    1437.94  E(vib)   ...       0.00 
freq.    1438.04  E(vib)   ...       0.00 
freq.    1443.03  E(vib)   ...       0.00 
freq.    1443.43  E(vib)   ...       0.00 
freq.    1444.91  E(vib)   ...       0.00 
freq.    1446.85  E(vib)   ...       0.00 
freq.    1447.92  E(vib)   ...       0.00 
freq.    1449.07  E(vib)   ...       0.00 
freq.    1449.72  E(vib)   ...       0.00 
freq.    1451.50  E(vib)   ...       0.00 
freq.    1453.69  E(vib)   ...       0.00 
freq.    1454.77  E(vib)   ...       0.00 
freq.    1455.43  E(vib)   ...       0.00 
freq.    1455.60  E(vib)   ...       0.00 
freq.    1457.81  E(vib)   ...       0.00 
freq.    1458.61  E(vib)   ...       0.00 
freq.    1458.82  E(vib)   ...       0.00 
freq.    1462.90  E(vib)   ...       0.00 
freq.    1468.21  E(vib)   ...       0.00 
freq.    1479.58  E(vib)   ...       0.00 
freq.    1482.88  E(vib)   ...       0.00 
freq.    1493.45  E(vib)   ...       0.00 
freq.    1511.49  E(vib)   ...       0.00 
freq.    1652.58  E(vib)   ...       0.00 
freq.    1655.00  E(vib)   ...       0.00 
freq.    1671.49  E(vib)   ...       0.00 
freq.    1673.70  E(vib)   ...       0.00 
freq.    1681.02  E(vib)   ...       0.00 
freq.    1696.54  E(vib)   ...       0.00 
freq.    1706.87  E(vib)   ...       0.00 
freq.    2920.26  E(vib)   ...       0.00 
freq.    2927.17  E(vib)   ...       0.00 
freq.    2930.24  E(vib)   ...       0.00 
freq.    2933.94  E(vib)   ...       0.00 
freq.    2934.68  E(vib)   ...       0.00 
freq.    2934.88  E(vib)   ...       0.00 
freq.    2936.99  E(vib)   ...       0.00 
freq.    2937.48  E(vib)   ...       0.00 
freq.    2939.58  E(vib)   ...       0.00 
freq.    2943.92  E(vib)   ...       0.00 
freq.    2945.06  E(vib)   ...       0.00 
freq.    2946.77  E(vib)   ...       0.00 
freq.    2951.63  E(vib)   ...       0.00 
freq.    2954.28  E(vib)   ...       0.00 
freq.    2954.37  E(vib)   ...       0.00 
freq.    2956.27  E(vib)   ...       0.00 
freq.    2957.75  E(vib)   ...       0.00 
freq.    2959.77  E(vib)   ...       0.00 
freq.    2961.64  E(vib)   ...       0.00 
freq.    2963.70  E(vib)   ...       0.00 
freq.    2964.47  E(vib)   ...       0.00 
freq.    2970.66  E(vib)   ...       0.00 
freq.    2976.99  E(vib)   ...       0.00 
freq.    2978.30  E(vib)   ...       0.00 
freq.    2978.65  E(vib)   ...       0.00 
freq.    2980.78  E(vib)   ...       0.00 
freq.    2981.86  E(vib)   ...       0.00 
freq.    2983.42  E(vib)   ...       0.00 
freq.    2986.41  E(vib)   ...       0.00 
freq.    2987.65  E(vib)   ...       0.00 
freq.    2988.64  E(vib)   ...       0.00 
freq.    2989.16  E(vib)   ...       0.00 
freq.    2991.06  E(vib)   ...       0.00 
freq.    2994.09  E(vib)   ...       0.00 
freq.    2995.54  E(vib)   ...       0.00 
freq.    2999.72  E(vib)   ...       0.00 
freq.    3007.11  E(vib)   ...       0.00 
freq.    3008.60  E(vib)   ...       0.00 
freq.    3014.80  E(vib)   ...       0.00 
freq.    3017.08  E(vib)   ...       0.00 
freq.    3018.02  E(vib)   ...       0.00 
freq.    3019.96  E(vib)   ...       0.00 
freq.    3023.77  E(vib)   ...       0.00 
freq.    3025.02  E(vib)   ...       0.00 
freq.    3025.61  E(vib)   ...       0.00 
freq.    3029.09  E(vib)   ...       0.00 
freq.    3030.48  E(vib)   ...       0.00 
freq.    3030.86  E(vib)   ...       0.00 
freq.    3031.53  E(vib)   ...       0.00 
freq.    3036.80  E(vib)   ...       0.00 
freq.    3038.15  E(vib)   ...       0.00 
freq.    3038.94  E(vib)   ...       0.00 
freq.    3040.14  E(vib)   ...       0.00 
freq.    3041.93  E(vib)   ...       0.00 
freq.    3045.19  E(vib)   ...       0.00 
freq.    3048.57  E(vib)   ...       0.00 
freq.    3052.43  E(vib)   ...       0.00 
freq.    3062.79  E(vib)   ...       0.00 
freq.    3414.53  E(vib)   ...       0.00 
freq.    3481.46  E(vib)   ...       0.00 
freq.    3499.37  E(vib)   ...       0.00 
freq.    3502.94  E(vib)   ...       0.00 
freq.    3503.00  E(vib)   ...       0.00 
freq.    3618.21  E(vib)   ...       0.00 

------------
INNER ENERGY
------------

The inner energy is: U= E(el) + E(ZPE) + E(vib) + E(rot) + E(trans)
    E(el)   - is the total energy from the electronic structure calculation
              = E(kin-el) + E(nuc-el) + E(el-el) + E(nuc-nuc)
    E(ZPE)  - the the zero temperature vibrational energy from the frequency calculation
    E(vib)  - the the finite temperature correction to E(ZPE) due to population
              of excited vibrational states
    E(rot)  - is the rotational thermal energy
    E(trans)- is the translational thermal energy

Summary of contributions to the inner energy U:
Electronic energy                ...  -2380.07416676 Eh
Zero point energy                ...      0.97643377 Eh     612.72 kcal/mol
Thermal vibrational correction   ...      0.05625598 Eh      35.30 kcal/mol
Thermal rotational correction    ...      0.00141627 Eh       0.89 kcal/mol
Thermal translational correction ...      0.00141627 Eh       0.89 kcal/mol
-----------------------------------------------------------------------
Total thermal energy                  -2379.03864447 Eh


Summary of corrections to the electronic energy:
(perhaps to be used in another calculation)
Total thermal correction                  0.05908852 Eh      37.08 kcal/mol
Non-thermal (ZPE) correction              0.97643377 Eh     612.72 kcal/mol
-----------------------------------------------------------------------
Total correction                          1.03552229 Eh     649.80 kcal/mol


--------
ENTHALPY
--------

The enthalpy is H = U + kB*T
                kB is Boltzmann's constant
Total free energy                 ...  -2379.03864447 Eh 
Thermal Enthalpy correction       ...      0.00094421 Eh       0.59 kcal/mol
-----------------------------------------------------------------------
Total Enthalpy                    ...  -2379.03770026 Eh


Note: Only C1 symmetry has been detected, increase convergence thresholds 
      if your molecule has a higher symmetry. Symmetry factor of 1.0 is   
      used for the rotational entropy correction. 
 

Note: Rotational entropy computed according to Herzberg 
Infrared and Raman Spectra, Chapter V,1, Van Nostrand Reinhold, 1945 
Point Group:  C1, Symmetry Number:   1  
Rotational constants in cm-1:     0.001854     0.001560     0.001054 

Vibrational entropy computed according to the QRRHO of S. Grimme
Chem.Eur.J. 2012 18 9955


-------
ENTROPY
-------

The entropy contributions are T*S = T*(S(el)+S(vib)+S(rot)+S(trans))
     S(el)   - electronic entropy
     S(vib)  - vibrational entropy
     S(rot)  - rotational entropy
     S(trans)- translational entropy
The entropies will be listed as mutliplied by the temperature to get
units of energy

Electronic entropy                ...      0.00000000 Eh      0.00 kcal/mol
Vibrational entropy               ...      0.10412025 Eh     65.34 kcal/mol
Rotational entropy                ...      0.01876780 Eh     11.78 kcal/mol
Translational entropy             ...      0.02166895 Eh     13.60 kcal/mol
-----------------------------------------------------------------------
Final entropy term                ...      0.14455701 Eh     90.71 kcal/mol

In case the symmetry of your molecule has not been determined correctly
or in case you have a reason to use a different symmetry number we print 
out the resulting rotational entropy values for sn=1,12 :
 --------------------------------------------------------
|  sn= 1 | S(rot)=       0.01876780 Eh     11.78 kcal/mol|
|  sn= 2 | S(rot)=       0.01811335 Eh     11.37 kcal/mol|
|  sn= 3 | S(rot)=       0.01773052 Eh     11.13 kcal/mol|
|  sn= 4 | S(rot)=       0.01745889 Eh     10.96 kcal/mol|
|  sn= 5 | S(rot)=       0.01724820 Eh     10.82 kcal/mol|
|  sn= 6 | S(rot)=       0.01707606 Eh     10.72 kcal/mol|
|  sn= 7 | S(rot)=       0.01693051 Eh     10.62 kcal/mol|
|  sn= 8 | S(rot)=       0.01680444 Eh     10.54 kcal/mol|
|  sn= 9 | S(rot)=       0.01669323 Eh     10.48 kcal/mol|
|  sn=10 | S(rot)=       0.01659375 Eh     10.41 kcal/mol|
|  sn=11 | S(rot)=       0.01650376 Eh     10.36 kcal/mol|
|  sn=12 | S(rot)=       0.01642160 Eh     10.30 kcal/mol|
 --------------------------------------------------------


-------------------
GIBBS FREE ENERGY
-------------------

The Gibbs free energy is G = H - T*S

Total enthalpy                    ...  -2379.03770026 Eh 
Total entropy correction          ...     -0.14455701 Eh    -90.71 kcal/mol
-----------------------------------------------------------------------
Final Gibbs free energy         ...  -2379.18225727 Eh

For completeness - the Gibbs free energy minus the electronic energy
G-E(el)                           ...      0.89190949 Eh    559.68 kcal/mol

--------------------------------------------------------------------------
WARNING: No preset parameters were found for the device that Open MPI
detected:

  Local host:            eu-g1-035-3
  Device name:           mlx5_0
  Device vendor ID:      0x02c9
  Device vendor part ID: 4123

Default device parameters will be used, which may result in lower
performance.  You can edit any of the files specified by the
btl_openib_device_param_files MCA parameter to set values for your
device.

NOTE: You can turn off this warning by setting the MCA parameter
      btl_openib_warn_no_device_params_found to 0.
--------------------------------------------------------------------------
--------------------------------------------------------------------------
WARNING: There was an error initializing an OpenFabrics device.

  Local host:   eu-g1-035-3
  Local device: mlx5_0
--------------------------------------------------------------------------

Timings for individual modules:

Sum of individual times         ...    33888.368 sec (= 564.806 min)
GTO integral calculation        ...       44.868 sec (=   0.748 min)   0.1 %
SCF iterations                  ...      969.582 sec (=  16.160 min)   2.9 %
SCF Gradient evaluation         ...      442.258 sec (=   7.371 min)   1.3 %
Geometry relaxation             ...       18.463 sec (=   0.308 min)   0.1 %
Analytical frequency calculation...    32413.198 sec (= 540.220 min)  95.6 %
                             ****ORCA TERMINATED NORMALLY****
TOTAL RUN TIME: 0 days 9 hours 25 minutes 16 seconds 956 msec
