
                                 *****************
                                 * O   R   C   A *
                                 *****************

           --- An Ab Initio, DFT and Semiempirical electronic structure package ---

                  #######################################################
                  #                        -***-                        #
                  #          Department of theory and spectroscopy      #
                  #               Directorship: Frank Neese             #
                  #        Max Planck Institute fuer Kohlenforschung    #
                  #                Kaiser Wilhelm Platz 1               #
                  #                 D-45470 Muelheim/Ruhr               #
                  #                      Germany                        #
                  #                                                     #
                  #                  All rights reserved                #
                  #                        -***-                        #
                  #######################################################


                         Program Version 4.2.0 -  RELEASE  -


 With contributions from (in alphabetic order):
   Daniel Aravena         : Magnetic Suceptibility
   Michael Atanasov       : Ab Initio Ligand Field Theory (pilot matlab implementation)
   Alexander A. Auer      : GIAO ZORA, VPT2
   Ute Becker             : Parallelization
   Giovanni Bistoni       : ED, misc. LED, open-shell LED, HFLED
   Martin Brehm           : Molecular dynamics
   Dmytro Bykov           : SCF Hessian
   Vijay G. Chilkuri      : MRCI spin determinant printing, contributions to CSF-ICE
   Dipayan Datta          : RHF DLPNO-CCSD density
   Achintya Kumar Dutta   : EOM-CC, STEOM-CC
   Dmitry Ganyushin       : Spin-Orbit,Spin-Spin,Magnetic field MRCI
   Miquel Garcia          : C-PCM Hessian, Gaussian charge scheme
   Yang Guo               : DLPNO-NEVPT2, CIM, IAO-localization
   Andreas Hansen         : Spin unrestricted coupled pair/coupled cluster methods
   Benjamin Helmich-Paris : CASSCF linear response (MC-RPA)
   Lee Huntington         : MR-EOM, pCC
   Robert Izsak           : Overlap fitted RIJCOSX, COSX-SCS-MP3, EOM
   Christian Kollmar      : KDIIS, OOCD, Brueckner-CCSD(T), CCSD density
   Simone Kossmann        : Meta GGA functionals, TD-DFT gradient, OOMP2, MP2 Hessian
   Martin Krupicka        : AUTO-CI
   Lucas Lang             : DCDCAS
   Dagmar Lenk            : GEPOL surface, SMD
   Dimitrios Liakos       : Extrapolation schemes; Compound Job, initial MDCI parallelization
   Dimitrios Manganas     : Further ROCIS development; embedding schemes
   Dimitrios Pantazis     : SARC Basis sets
   Taras Petrenko         : DFT Hessian,TD-DFT gradient, ASA, ECA, R-Raman, ABS, FL, XAS/XES, NRVS
   Peter Pinski           : DLPNO-MP2, DLPNO-MP2 Gradient
   Christoph Reimann      : Effective Core Potentials
   Marius Retegan         : Local ZFS, SOC
   Christoph Riplinger    : Optimizer, TS searches, QM/MM, DLPNO-CCSD(T), (RO)-DLPNO pert. Triples
   Tobias Risthaus        : Range-separated hybrids, TD-DFT gradient, RPA, STAB
   Michael Roemelt        : Original ROCIS implementation
   Masaaki Saitow         : Open-shell DLPNO-CCSD energy and density
   Barbara Sandhoefer     : DKH picture change effects
   Avijit Sen             : IP-ROCIS
   Kantharuban Sivalingam : CASSCF convergence, NEVPT2, FIC-MRCI
   Bernardo de Souza      : ESD, SOC TD-DFT
   Georgi Stoychev        : AutoAux, RI-MP2 NMR
   Willem Van den Heuvel  : Paramagnetic NMR
   Boris Wezisla          : Elementary symmetry handling
   Frank Wennmohs         : Technical directorship


 We gratefully acknowledge several colleagues who have allowed us to
 interface, adapt or use parts of their codes:
   Stefan Grimme, W. Hujo, H. Kruse,             : VdW corrections, initial TS optimization,
                  C. Bannwarth                     DFT functionals, gCP, sTDA/sTD-DF
   Ed Valeev, F. Pavosevic, A. Kumar             : LibInt (2-el integral package), F12 methods
   Garnet Chan, S. Sharma, J. Yang, R. Olivares  : DMRG
   Ulf Ekstrom                                   : XCFun DFT Library
   Mihaly Kallay                                 : mrcc  (arbitrary order and MRCC methods)
   Andreas Klamt, Michael Diedenhofen            : otool_cosmo (COSMO solvation model)
   Jiri Pittner, Ondrej Demel                    : Mk-CCSD
   Frank Weinhold                                : gennbo (NPA and NBO analysis)
   Christopher J. Cramer and Donald G. Truhlar   : smd solvation model
   Lars Goerigk                                  : TD-DFT with DH, B97 family of functionals
   V. Asgeirsson, H. Jonsson                     : NEB implementation
   FAccTs GmbH                                   : IRC, NEB, NEB-TS, Multilevel, MM, QM/MM, CI optimization
   S Lehtola, MJT Oliveira, MAL Marques          : LibXC Library


 Your calculation uses the libint2 library for the computation of 2-el integrals
 For citations please refer to: http://libint.valeyev.net

 Your ORCA version has been built with support for libXC version: 4.2.3
 For citations please refer to: https://tddft.org/programs/libxc/

 This ORCA versions uses:
   CBLAS   interface :  Fast vector & matrix operations
   LAPACKE interface :  Fast linear algebra routines
   SCALAPACK package :  Parallel linear algebra routines




***************************************
The coordinates will be read from file: 37.xyz
***************************************


Your calculation utilizes the atom-pairwise dispersion correction
with the Becke-Johnson damping scheme (D3BJ)
Cite in your paper:
S.Grimme, S.Ehrlich, L.Goerigk, J Comput Chem, (2011), 32, 1456–1465 
S.Grimme, J.Antony, S.Ehrlich and H.Krieg, J.Chem.Phys., 132, (2010), 154104 
   

----- Orbital basis set information -----
Your calculation utilizes the basis: def2-TZVP
   F. Weigend and R. Ahlrichs, Phys. Chem. Chem. Phys. 7, 3297 (2005).

----- AuxJ basis set information -----
Your calculation utilizes the auxiliary basis: def2/J
   F. Weigend, Phys. Chem. Chem. Phys. 8, 1057 (2006).

================================================================================
                                        WARNINGS
                       Please study these warnings very carefully!
================================================================================


WARNING: Geometry Optimization
  ===> : Switching off AutoStart
         For restart on a previous wavefunction, please use MOREAD

INFO   : the flag for use of LIBINT has been found!

================================================================================
                                       INPUT FILE
================================================================================
NAME = 37.inp
|  1> !RI BP86 def2-tzvp def2/J D3BJ TIGHTSCF TightOpt Grid5 FinalGrid6 freq
|  2> %maxcore 4000
|  3> %pal nprocs 24
|  4> end
|  5> * xyzfile 0 1 37.xyz 
|  6> 
|  7>                          ****END OF INPUT****
================================================================================

                       *****************************
                       * Geometry Optimization Run *
                       *****************************

Geometry optimization settings:
Update method            Update   .... BFGS
Choice of coordinates    CoordSys .... Z-matrix Internals
Initial Hessian          InHess   .... Almoef's Model

Convergence Tolerances:
Energy Change            TolE     ....  1.0000e-06 Eh
Max. Gradient            TolMAXG  ....  1.0000e-04 Eh/bohr
RMS Gradient             TolRMSG  ....  3.0000e-05 Eh/bohr
Max. Displacement        TolMAXD  ....  1.0000e-03 bohr
RMS Displacement         TolRMSD  ....  6.0000e-04 bohr
Strict Convergence                ....  False
------------------------------------------------------------------------------
                        ORCA OPTIMIZATION COORDINATE SETUP
------------------------------------------------------------------------------

The optimization will be done in new redundant internal coordinates
Making redundant internal coordinates   ...  (new redundants) done
Evaluating the initial hessian          ...  (Almloef) done
Evaluating the coordinates              ...  done
Calculating the B-matrix                .... done
Calculating the G-matrix                .... done
Diagonalizing the G-matrix              .... done
Small eigenvalue found = 2.583e-04
Small eigenvalue found = 7.707e-04
Small eigenvalue found = 2.260e-03
Small eigenvalue found = 2.960e-03
Small eigenvalue found = 3.539e-03
Small eigenvalue found = 4.984e-03
Small eigenvalue found = 5.407e-03
Small eigenvalue found = 7.042e-03
Small eigenvalue found = 7.881e-03
Small eigenvalue found = 8.887e-03
Small eigenvalue found = 1.198e-02
Small eigenvalue found = 1.250e-02
Small eigenvalue found = 1.413e-02
Small eigenvalue found = 1.669e-02
Small eigenvalue found = 1.842e-02
Small eigenvalue found = 1.969e-02
Small eigenvalue found = 2.173e-02
Small eigenvalue found = 2.227e-02
Small eigenvalue found = 2.668e-02
The first mode is                       ....  324
The number of degrees of freedom        ....  339

    -----------------------------------------------------------------
                    Redundant Internal Coordinates


    -----------------------------------------------------------------
         Definition                    Initial Value    Approx d2E/dq
    -----------------------------------------------------------------
      1. B(C   1,O   0)                  1.2261         1.021680   
      2. B(C   2,C   1)                  1.5399         0.360235   
      3. B(C   3,C   2)                  1.5413         0.358390   
      4. B(C   4,C   3)                  1.5354         0.366191   
      5. B(C   5,C   4)                  1.5337         0.368593   
      6. B(N   6,C   2)                  1.4731         0.412374   
      7. B(N   6,C   5)                  1.4760         0.408079   
      8. B(C   7,N   6)                  1.3646         0.614315   
      9. B(O   8,C   7)                  1.2357         0.986289   
     10. B(N   9,C   1)                  1.3679         0.607029   
     11. B(C  10,N   9)                  1.4549         0.440929   
     12. B(C  11,C  10)                  1.5361         0.365361   
     13. B(N  12,C  11)                  1.3593         0.626473   
     14. B(C  13,N  12)                  1.4516         0.446205   
     15. B(C  14,C  13)                  1.5281         0.376237   
     16. B(N  15,C  14)                  1.3564         0.633189   
     17. B(C  16,N  15)                  1.4550         0.440785   
     18. B(C  17,C  16)                  1.5310         0.372190   
     19. B(C  18,C  17)                  1.5472         0.350751   
     20. B(C  19,C  18)                  1.5376         0.363355   
     21. B(N  20,C  19)                  1.3574         0.630838   
     22. B(C  21,N  20)                  1.4545         0.441591   
     23. B(C  22,C  21)                  1.5346         0.367297   
     24. B(N  23,C  22)                  1.3484         0.652090   
     25. B(C  24,N  23)                  1.4502         0.448560   
     26. B(C  24,C   7)                  1.5390         0.361414   
     27. B(C  25,C  24)                  1.5391         0.361312   
     28. B(O  26,C  22)                  1.2382         0.977549   
     29. B(C  27,C  21)                  1.5435         0.355553   
     30. B(C  28,C  27)                  1.5432         0.355864   
     31. B(C  29,C  28)                  1.5338         0.368411   
     32. B(C  30,C  28)                  1.5338         0.368400   
     33. B(O  31,C  19)                  1.2327         0.997497   
     34. B(C  32,C  18)                  1.5361         0.365253   
     35. B(C  33,C  32)                  1.5170         0.391883   
     36. B(C  34,C  33)                  1.5243         0.381411   
     37. B(C  35,C  34)                  1.5297         0.373981   
     38. B(C  36,C  35)                  1.5302         0.373310   
     39. B(C  37,C  36)                  1.5301         0.373429   
     40. B(C  38,C  37)                  1.5303         0.373146   
     41. B(C  39,C  38)                  1.5301         0.373392   
     42. B(C  40,C  39)                  1.5310         0.372228   
     43. B(C  41,C  40)                  1.5298         0.373784   
     44. B(O  42,C  32)                  1.2161         1.059848   
     45. B(O  43,C  17)                  1.4346         0.475055   
     46. B(O  44,C  14)                  1.2372         0.980868   
     47. B(C  45,C  13)                  1.5494         0.347872   
     48. B(C  46,C  45)                  1.5280         0.376360   
     49. B(O  47,C  11)                  1.2336         0.994018   
     50. B(C  48,C  10)                  1.5525         0.343915   
     51. B(C  49,C  48)                  1.5290         0.374987   
     52. B(C  50,C  48)                  1.5322         0.370560   
     53. B(H  51,C   2)                  1.0963         0.351923   
     54. B(H  52,C   3)                  1.0998         0.347307   
     55. B(H  53,C   3)                  1.0962         0.351972   
     56. B(H  54,C   4)                  1.0993         0.347945   
     57. B(H  55,C   4)                  1.0970         0.350991   
     58. B(H  56,C   5)                  1.0998         0.347304   
     59. B(H  57,C   5)                  1.1006         0.346408   
     60. B(H  58,N   9)                  1.0156         0.423903   
     61. B(H  59,C  10)                  1.1014         0.345355   
     62. B(H  60,N  12)                  1.0198         0.417336   
     63. B(H  61,C  13)                  1.1018         0.344779   
     64. B(H  62,N  15)                  1.0146         0.425514   
     65. B(H  63,C  16)                  1.0945         0.354154   
     66. B(H  64,C  16)                  1.0962         0.351949   
     67. B(H  65,C  17)                  1.1053         0.340433   
     68. B(H  66,C  18)                  1.1053         0.340432   
     69. B(H  67,N  20)                  1.0215         0.414872   
     70. B(H  68,C  21)                  1.1009         0.346027   
     71. B(H  69,O  44)                  3.3131         0.000092   
     72. B(H  69,N  23)                  1.0226         0.413112   
     73. B(H  70,C  24)                  1.1034         0.342861   
     74. B(H  71,C  25)                  1.0973         0.350608   
     75. B(H  72,C  25)                  1.0960         0.352193   
     76. B(H  73,C  25)                  1.0985         0.349088   
     77. B(H  74,C  27)                  1.1020         0.344600   
     78. B(H  75,C  27)                  1.1033         0.342881   
     79. B(H  76,C  28)                  1.1022         0.344274   
     80. B(H  77,C  29)                  1.1001         0.347042   
     81. B(H  78,C  29)                  1.0999         0.347206   
     82. B(H  79,C  29)                  1.1021         0.344406   
     83. B(H  80,C  30)                  1.0965         0.351577   
     84. B(H  81,C  30)                  1.1021         0.344422   
     85. B(H  82,C  30)                  1.0996         0.347589   
     86. B(H  83,C  33)                  1.1036         0.342587   
     87. B(H  84,C  33)                  1.1073         0.337885   
     88. B(H  85,C  34)                  1.1009         0.346007   
     89. B(H  86,C  34)                  1.1015         0.345180   
     90. B(H  87,H  82)                  3.9206         0.000002   
     91. B(H  87,C  35)                  1.1045         0.341475   
     92. B(H  88,C  35)                  1.1049         0.340938   
     93. B(H  89,C  36)                  1.1041         0.341886   
     94. B(H  90,C  36)                  1.1040         0.342008   
     95. B(H  91,C  37)                  1.1044         0.341496   
     96. B(H  92,C  37)                  1.1045         0.341400   
     97. B(H  93,C  38)                  1.1044         0.341585   
     98. B(H  94,C  38)                  1.1043         0.341646   
     99. B(H  95,C  39)                  1.1046         0.341289   
    100. B(H  96,C  39)                  1.1046         0.341244   
    101. B(H  97,C  40)                  1.1034         0.342785   
    102. B(H  98,C  40)                  1.1034         0.342815   
    103. B(H  99,C  41)                  1.0995         0.347786   
    104. B(H 100,C  41)                  1.1008         0.346113   
    105. B(H 101,C  41)                  1.1008         0.346131   
    106. B(H 102,O  43)                  0.9725         0.496639   
    107. B(H 103,H  56)                  4.8897         0.000000   
    108. B(H 103,C  45)                  1.1018         0.344845   
    109. B(H 104,C  45)                  1.0997         0.347453   
    110. B(H 105,C  46)                  1.0989         0.348522   
    111. B(H 106,C  46)                  1.0992         0.348159   
    112. B(H 107,C  46)                  1.1012         0.345601   
    113. B(H 108,C  48)                  1.1001         0.346952   
    114. B(H 109,C  49)                  1.0979         0.349807   
    115. B(H 110,C  49)                  1.1006         0.346300   
    116. B(H 111,C  49)                  1.0995         0.347756   
    117. B(H 112,C  50)                  1.0988         0.348706   
    118. B(H 113,C  50)                  1.0989         0.348564   
    119. B(H 114,C  50)                  1.1024         0.344092   
    120. A(O   0,C   1,N   9)          124.1006         0.467221   
    121. A(C   2,C   1,N   9)          115.5998         0.390206   
    122. A(O   0,C   1,C   2)          120.2036         0.427875   
    123. A(C   1,C   2,H  51)          105.9875         0.321180   
    124. A(N   6,C   2,H  51)          110.1293         0.326423   
    125. A(C   1,C   2,N   6)          114.3106         0.364967   
    126. A(C   1,C   2,C   3)          110.5205         0.358559   
    127. A(C   3,C   2,H  51)          113.1032         0.320910   
    128. A(C   3,C   2,N   6)          102.9909         0.364647   
    129. A(C   4,C   3,H  53)          113.8169         0.322050   
    130. A(C   4,C   3,H  52)          110.4309         0.321348   
    131. A(C   2,C   3,C   4)          103.4747         0.359561   
    132. A(C   2,C   3,H  53)          111.6952         0.320917   
    133. A(C   2,C   3,H  52)          109.3465         0.320218   
    134. A(H  52,C   3,H  53)          107.9989         0.288162   
    135. A(H  54,C   4,H  55)          107.6575         0.288119   
    136. A(C   3,C   4,H  55)          113.2756         0.321903   
    137. A(C   3,C   4,C   5)          103.1757         0.361286   
    138. A(C   3,C   4,H  54)          110.2851         0.321444   
    139. A(C   5,C   4,H  55)          111.8223         0.322248   
    140. A(C   5,C   4,H  54)          110.6287         0.321789   
    141. A(H  56,C   5,H  57)          107.9605         0.287444   
    142. A(C   4,C   5,N   6)          103.3792         0.365747   
    143. A(C   4,C   5,H  56)          113.4762         0.321692   
    144. A(N   6,C   5,H  57)          110.5147         0.325016   
    145. A(N   6,C   5,H  56)          111.3840         0.325154   
    146. A(C   4,C   5,H  57)          110.1058         0.321555   
    147. A(C   5,N   6,C   7)          128.3854         0.397110   
    148. A(C   2,N   6,C   7)          118.5162         0.397841   
    149. A(C   2,N   6,C   5)          112.4482         0.370532   
    150. A(O   8,C   7,C  24)          120.3916         0.425431   
    151. A(N   6,C   7,O   8)          120.8575         0.465229   
    152. A(N   6,C   7,C  24)          118.7469         0.391244   
    153. A(C   1,N   9,C  10)          122.4736         0.401712   
    154. A(C  10,N   9,H  58)          118.5897         0.337489   
    155. A(C   1,N   9,H  58)          117.2078         0.356135   
    156. A(C  48,C  10,H  59)          108.3792         0.317779   
    157. A(C  11,C  10,H  59)          107.8528         0.320933   
    158. A(N   9,C  10,C  11)          113.0782         0.370079   
    159. A(N   9,C  10,C  48)          112.6260         0.366257   
    160. A(N   9,C  10,H  59)          105.6646         0.329023   
    161. A(C  11,C  10,C  48)          108.9902         0.356911   
    162. A(N  12,C  11,O  47)          122.4049         0.467570   
    163. A(C  10,C  11,O  47)          120.3560         0.426855   
    164. A(C  10,C  11,N  12)          117.1893         0.393335   
    165. A(C  13,N  12,H  60)          116.9441         0.337279   
    166. A(C  11,N  12,C  13)          120.2430         0.404800   
    167. A(C  11,N  12,H  60)          122.5075         0.357099   
    168. A(C  14,C  13,C  45)          110.6743         0.359395   
    169. A(N  12,C  13,H  61)          108.0395         0.329579   
    170. A(C  14,C  13,H  61)          111.0511         0.322389   
    171. A(N  12,C  13,C  14)          108.2434         0.372714   
    172. A(C  45,C  13,H  61)          108.5923         0.318285   
    173. A(N  12,C  13,C  45)          110.2058         0.367725   
    174. A(C  13,C  14,N  15)          114.8108         0.396103   
    175. A(N  15,C  14,O  44)          123.6947         0.467343   
    176. A(C  13,C  14,O  44)          121.4547         0.428082   
    177. A(C  14,N  15,H  62)          118.0755         0.358930   
    178. A(C  16,N  15,H  62)          118.0830         0.337684   
    179. A(C  14,N  15,C  16)          122.2117         0.404689   
    180. A(H  63,C  16,H  64)          108.3111         0.289041   
    181. A(C  17,C  16,H  64)          109.9727         0.322906   
    182. A(N  15,C  16,H  63)          109.5497         0.330376   
    183. A(C  17,C  16,H  63)          109.3372         0.323237   
    184. A(N  15,C  16,C  17)          111.0661         0.371238   
    185. A(N  15,C  16,H  64)          108.5546         0.330035   
    186. A(O  43,C  17,H  65)          109.7047         0.332315   
    187. A(C  18,C  17,H  65)          106.8226         0.318055   
    188. A(C  16,C  17,H  65)          106.9655         0.321151   
    189. A(C  16,C  17,C  18)          113.4672         0.359237   
    190. A(C  18,C  17,O  43)          112.4528         0.372233   
    191. A(C  16,C  17,O  43)          107.2698         0.376062   
    192. A(C  19,C  18,H  66)          108.5670         0.319892   
    193. A(C  17,C  18,H  66)          107.9341         0.318054   
    194. A(C  17,C  18,C  32)          115.6881         0.358089   
    195. A(C  17,C  18,C  19)          108.0949         0.357772   
    196. A(C  19,C  18,C  32)          108.3047         0.360248   
    197. A(C  32,C  18,H  66)          108.0714         0.320165   
    198. A(C  18,C  19,N  20)          114.6559         0.393434   
    199. A(N  20,C  19,O  31)          123.5293         0.468465   
    200. A(C  18,C  19,O  31)          121.7295         0.426702   
    201. A(C  19,N  20,H  67)          121.0559         0.357161   
    202. A(C  19,N  20,C  21)          121.6964         0.404554   
    203. A(C  21,N  20,H  67)          113.2638         0.336364   
    204. A(C  27,C  21,H  68)          109.0033         0.319610   
    205. A(C  22,C  21,H  68)          110.9766         0.321312   
    206. A(N  20,C  21,H  68)          107.2245         0.329210   
    207. A(N  20,C  21,C  22)          106.1856         0.370511   
    208. A(C  22,C  21,C  27)          108.6372         0.359260   
    209. A(N  20,C  21,C  27)          114.8011         0.368448   
    210. A(C  21,C  22,N  23)          114.7174         0.396476   
    211. A(C  21,C  22,O  26)          121.0925         0.425983   
    212. A(N  23,C  22,O  26)          124.0287         0.469578   
    213. A(C  22,N  23,C  24)          122.9387         0.408058   
    214. A(C  24,N  23,H  69)          114.0490         0.337004   
    215. A(C  22,N  23,H  69)          121.4159         0.358920   
    216. A(C  25,C  24,H  70)          109.3509         0.319969   
    217. A(N  23,C  24,H  70)          108.6798         0.329562   
    218. A(C   7,C  24,H  70)          109.7535         0.319984   
    219. A(N  23,C  24,C  25)          109.6738         0.370462   
    220. A(C   7,C  24,N  23)          105.4965         0.370479   
    221. A(C   7,C  24,C  25)          113.7294         0.359255   
    222. A(H  71,C  25,H  73)          108.8021         0.288217   
    223. A(C  24,C  25,H  73)          110.1940         0.320912   
    224. A(H  71,C  25,H  72)          107.8048         0.288617   
    225. A(C  24,C  25,H  72)          112.7075         0.321377   
    226. A(C  24,C  25,H  71)          108.3212         0.321140   
    227. A(H  72,C  25,H  73)          108.9139         0.288421   
    228. A(C  28,C  27,H  75)          110.0796         0.319179   
    229. A(C  21,C  27,C  28)          115.4953         0.357332   
    230. A(H  74,C  27,H  75)          106.5273         0.286635   
    231. A(C  21,C  27,H  75)          108.9050         0.319134   
    232. A(C  28,C  27,H  74)          109.1587         0.319440   
    233. A(C  21,C  27,H  74)          106.2479         0.319394   
    234. A(C  29,C  28,C  30)          110.0533         0.361627   
    235. A(C  27,C  28,C  30)          112.2555         0.359497   
    236. A(C  27,C  28,C  29)          109.9833         0.359499   
    237. A(C  30,C  28,H  76)          108.0562         0.321203   
    238. A(C  29,C  28,H  76)          108.5978         0.321205   
    239. A(C  27,C  28,H  76)          107.7833         0.319390   
    240. A(C  28,C  29,H  79)          110.8800         0.321225   
    241. A(H  78,C  29,H  79)          107.5818         0.287172   
    242. A(H  77,C  29,H  79)          107.8206         0.287150   
    243. A(H  77,C  29,H  78)          107.9181         0.287514   
    244. A(C  28,C  29,H  78)          111.0579         0.321651   
    245. A(C  28,C  29,H  77)          111.4195         0.321626   
    246. A(H  81,C  30,H  82)          107.7960         0.287223   
    247. A(H  80,C  30,H  82)          108.0271         0.288148   
    248. A(C  28,C  30,H  82)          110.7748         0.321707   
    249. A(H  80,C  30,H  81)          107.6975         0.287736   
    250. A(C  28,C  30,H  81)          110.4253         0.321226   
    251. A(C  28,C  30,H  80)          111.9642         0.322309   
    252. A(C  33,C  32,O  42)          122.8727         0.437275   
    253. A(C  18,C  32,O  42)          122.5914         0.431772   
    254. A(C  18,C  32,C  33)          114.5349         0.364928   
    255. A(C  32,C  33,C  34)          114.2823         0.367645   
    256. A(C  34,C  33,H  84)          110.8078         0.322044   
    257. A(H  83,C  33,H  84)          105.1937         0.285719   
    258. A(C  32,C  33,H  84)          106.8471         0.323477   
    259. A(C  34,C  33,H  83)          111.0275         0.322774   
    260. A(C  32,C  33,H  83)          108.1965         0.324212   
    261. A(C  33,C  34,C  35)          112.6524         0.364711   
    262. A(H  85,C  34,H  86)          105.8267         0.287117   
    263. A(C  35,C  34,H  86)          109.9521         0.322133   
    264. A(C  33,C  34,H  86)          108.6835         0.323174   
    265. A(C  35,C  34,H  85)          110.1996         0.322259   
    266. A(C  33,C  34,H  85)          109.2865         0.323300   
    267. A(C  34,C  35,C  36)          113.2154         0.363375   
    268. A(H  87,C  35,H  88)          105.9026         0.285975   
    269. A(C  36,C  35,H  88)          109.2436         0.321387   
    270. A(C  34,C  35,H  88)          109.5274         0.321482   
    271. A(C  36,C  35,H  87)          109.2269         0.321470   
    272. A(C  34,C  35,H  87)          109.4637         0.321564   
    273. A(C  35,C  36,C  37)          113.4786         0.363283   
    274. A(H  89,C  36,H  90)          105.8954         0.286168   
    275. A(C  37,C  36,H  90)          109.3523         0.321569   
    276. A(C  35,C  36,H  90)          109.2018         0.321552   
    277. A(C  37,C  36,H  89)          109.3635         0.321550   
    278. A(C  35,C  36,H  89)          109.2702         0.321533   
    279. A(C  36,C  37,C  38)          113.5309         0.363256   
    280. A(H  91,C  37,H  92)          105.8919         0.286038   
    281. A(C  38,C  37,H  92)          109.2689         0.321435   
    282. A(C  36,C  37,H  92)          109.3064         0.321475   
    283. A(C  38,C  37,H  91)          109.2739         0.321450   
    284. A(C  36,C  37,H  91)          109.2861         0.321490   
    285. A(C  37,C  38,C  39)          113.5462         0.363250   
    286. A(H  93,C  38,H  94)          105.8803         0.286082   
    287. A(C  39,C  38,H  94)          109.2969         0.321508   
    288. A(C  37,C  38,H  94)          109.2630         0.321473   
    289. A(C  39,C  38,H  93)          109.2963         0.321498   
    290. A(C  37,C  38,H  93)          109.2735         0.321464   
    291. A(C  38,C  39,C  40)          113.6033         0.363097   
    292. A(H  95,C  39,H  96)          105.8564         0.285991   
    293. A(C  40,C  39,H  96)          109.2310         0.321282   
    294. A(C  38,C  39,H  96)          109.3152         0.321446   
    295. A(C  40,C  39,H  95)          109.2336         0.321289   
    296. A(C  38,C  39,H  95)          109.3110         0.321453   
    297. A(C  39,C  40,C  41)          113.1394         0.363162   
    298. A(H  97,C  40,H  98)          105.9287         0.286391   
    299. A(C  41,C  40,H  98)          109.6329         0.321743   
    300. A(C  39,C  40,H  98)          109.1213         0.321523   
    301. A(C  41,C  40,H  97)          109.6385         0.321738   
    302. A(C  39,C  40,H  97)          109.1241         0.321519   
    303. A(H 100,C  41,H 101)          107.4374         0.287254   
    304. A(H  99,C  41,H 101)          107.6875         0.287471   
    305. A(C  40,C  41,H 101)          111.0828         0.322251   
    306. A(H  99,C  41,H 100)          107.6877         0.287468   
    307. A(C  40,C  41,H 100)          111.0898         0.322248   
    308. A(C  40,C  41,H  99)          111.6631         0.322503   
    309. A(C  17,O  43,H 102)          108.2247         0.350939   
    310. A(C  13,C  45,C  46)          114.7135         0.359415   
    311. A(C  46,C  45,H 104)          109.5287         0.322815   
    312. A(C  13,C  45,H 104)          106.0212         0.318686   
    313. A(C  46,C  45,H 103)          110.8680         0.322417   
    314. A(C  13,C  45,H 103)          107.9481         0.318295   
    315. A(H 103,C  45,H 104)          107.4181         0.287261   
    316. A(H 106,C  46,H 107)          107.9324         0.287450   
    317. A(H 105,C  46,H 107)          107.1934         0.287497   
    318. A(C  45,C  46,H 107)          110.9151         0.322532   
    319. A(H 105,C  46,H 106)          107.5807         0.287829   
    320. A(C  45,C  46,H 106)          112.6331         0.322923   
    321. A(C  45,C  46,H 105)          110.3682         0.322978   
    322. A(C  50,C  48,H 108)          107.9163         0.321919   
    323. A(C  49,C  48,H 108)          109.2071         0.322545   
    324. A(C  10,C  48,H 108)          104.6327         0.318018   
    325. A(C  49,C  48,C  50)          111.4816         0.363083   
    326. A(C  10,C  48,C  50)          111.7049         0.357769   
    327. A(C  10,C  48,C  49)          111.5795         0.358493   
    328. A(H 110,C  49,H 111)          107.3659         0.287489   
    329. A(H 109,C  49,H 111)          108.5709         0.287942   
    330. A(C  48,C  49,H 111)          110.2709         0.322668   
    331. A(H 109,C  49,H 110)          107.3720         0.287753   
    332. A(C  48,C  49,H 110)          111.3401         0.322446   
    333. A(C  48,C  49,H 109)          111.7556         0.322979   
    334. A(H 113,C  50,H 114)          106.8829         0.287306   
    335. A(H 112,C  50,H 114)          108.3525         0.287324   
    336. A(C  48,C  50,H 114)          111.5474         0.321483   
    337. A(H 112,C  50,H 113)          107.7082         0.287905   
    338. A(C  48,C  50,H 113)          110.4995         0.322163   
    339. A(C  48,C  50,H 112)          111.6508         0.322184   
    340. D(H  51,C   2,C   1,N   9)   -141.8957         0.009757   
    341. D(C   3,C   2,C   1,N   9)     95.2115         0.009757   
    342. D(N   6,C   2,C   1,N   9)    -20.4126         0.009757   
    343. D(N   6,C   2,C   1,O   0)    163.0053         0.009757   
    344. D(C   3,C   2,C   1,O   0)    -81.3706         0.009757   
    345. D(H  51,C   2,C   1,O   0)     41.5222         0.009757   
    346. D(C   4,C   3,C   2,N   6)     30.7027         0.010311   
    347. D(H  53,C   3,C   2,H  51)    -87.6197         0.010311   
    348. D(H  53,C   3,C   2,C   1)     31.0268         0.010311   
    349. D(C   4,C   3,C   2,H  51)    149.5445         0.010311   
    350. D(H  53,C   3,C   2,N   6)    153.5385         0.010311   
    351. D(H  52,C   3,C   2,H  51)     31.8620         0.010311   
    352. D(C   4,C   3,C   2,C   1)    -91.8090         0.010311   
    353. D(H  52,C   3,C   2,C   1)    150.5086         0.010311   
    354. D(H  52,C   3,C   2,N   6)    -86.9797         0.010311   
    355. D(H  55,C   4,C   3,H  53)     79.0074         0.010734   
    356. D(H  55,C   4,C   3,H  52)    -42.6517         0.010734   
    357. D(H  54,C   4,C   3,H  52)   -163.3841         0.010734   
    358. D(H  55,C   4,C   3,C   2)   -159.5741         0.010734   
    359. D(H  54,C   4,C   3,H  53)    -41.7250         0.010734   
    360. D(C   5,C   4,C   3,C   2)    -38.4894         0.010734   
    361. D(H  54,C   4,C   3,C   2)     79.6935         0.010734   
    362. D(C   5,C   4,C   3,H  53)   -159.9079         0.010734   
    363. D(C   5,C   4,C   3,H  52)     78.4330         0.010734   
    364. D(N   6,C   5,C   4,C   3)     30.9566         0.010866   
    365. D(H  57,C   5,C   4,C   3)    -87.1211         0.010866   
    366. D(H  56,C   5,C   4,H  55)    -86.1855         0.010866   
    367. D(H  56,C   5,C   4,C   3)    151.7480         0.010866   
    368. D(H  57,C   5,C   4,H  54)    154.9363         0.010866   
    369. D(H  56,C   5,C   4,H  54)     33.8055         0.010866   
    370. D(H  57,C   5,C   4,H  55)     34.9454         0.010866   
    371. D(N   6,C   5,C   4,H  54)    -86.9859         0.010866   
    372. D(N   6,C   5,C   4,H  55)    153.0231         0.010866   
    373. D(C   5,N   6,C   2,C   3)    -11.6699         0.014505   
    374. D(C   7,N   6,C   5,H  57)    -64.8521         0.014208   
    375. D(C   7,N   6,C   5,H  56)     55.1546         0.014208   
    376. D(C   7,N   6,C   5,C   4)    177.3555         0.014208   
    377. D(C   2,N   6,C   5,H  57)    105.6454         0.014208   
    378. D(C   2,N   6,C   5,H  56)   -134.3479         0.014208   
    379. D(C   7,N   6,C   2,H  51)     38.9673         0.014505   
    380. D(C   2,N   6,C   5,C   4)    -12.1469         0.014208   
    381. D(C   7,N   6,C   2,C   3)    159.8612         0.014505   
    382. D(C   5,N   6,C   2,C   1)    108.2621         0.014505   
    383. D(C   7,N   6,C   2,C   1)    -80.2068         0.014505   
    384. D(C   5,N   6,C   2,H  51)   -132.5638         0.014505   
    385. D(C  24,C   7,N   6,C   5)     -7.3941         0.030515   
    386. D(C  24,C   7,N   6,C   2)   -177.3942         0.030515   
    387. D(O   8,C   7,N   6,C   5)    173.3363         0.030515   
    388. D(O   8,C   7,N   6,C   2)      3.3362         0.030515   
    389. D(H  58,N   9,C   1,O   0)    175.2825         0.029742   
    390. D(C  10,N   9,C   1,C   2)   -165.9421         0.029742   
    391. D(H  58,N   9,C   1,C   2)     -1.1500         0.029742   
    392. D(C  10,N   9,C   1,O   0)     10.4903         0.029742   
    393. D(H  59,C  10,N   9,C   1)    -24.1122         0.016579   
    394. D(C  48,C  10,N   9,H  58)    -70.5627         0.016579   
    395. D(C  48,C  10,N   9,C   1)     94.0292         0.016579   
    396. D(C  11,C  10,N   9,C   1)   -141.8598         0.016579   
    397. D(H  59,C  10,N   9,H  58)    171.2960         0.016579   
    398. D(C  11,C  10,N   9,H  58)     53.5483         0.016579   
    399. D(O  47,C  11,C  10,N   9)   -167.1627         0.010015   
    400. D(N  12,C  11,C  10,H  59)   -106.1281         0.010015   
    401. D(N  12,C  11,C  10,C  48)    136.4099         0.010015   
    402. D(N  12,C  11,C  10,N   9)     10.3321         0.010015   
    403. D(O  47,C  11,C  10,H  59)     76.3771         0.010015   
    404. D(O  47,C  11,C  10,C  48)    -41.0849         0.010015   
    405. D(H  60,N  12,C  11,O  47)   -170.6238         0.031832   
    406. D(H  60,N  12,C  11,C  10)     11.9367         0.031832   
    407. D(C  13,N  12,C  11,O  47)      2.8343         0.031832   
    408. D(C  13,N  12,C  11,C  10)   -174.6052         0.031832   
    409. D(H  61,C  13,N  12,C  11)    -36.5685         0.016981   
    410. D(H  61,C  13,N  12,H  60)    137.2442         0.016981   
    411. D(C  45,C  13,N  12,H  60)   -104.2550         0.016981   
    412. D(C  45,C  13,N  12,C  11)     81.9323         0.016981   
    413. D(C  14,C  13,N  12,C  11)   -156.9075         0.016981   
    414. D(C  14,C  13,N  12,H  60)     16.9052         0.016981   
    415. D(O  44,C  14,C  13,C  45)     90.2771         0.010576   
    416. D(O  44,C  14,C  13,N  12)    -30.5926         0.010576   
    417. D(N  15,C  14,C  13,H  61)     33.1815         0.010576   
    418. D(N  15,C  14,C  13,C  45)    -87.5081         0.010576   
    419. D(O  44,C  14,C  13,H  61)   -149.0332         0.010576   
    420. D(N  15,C  14,C  13,N  12)    151.6221         0.010576   
    421. D(H  62,N  15,C  14,O  44)   -174.7004         0.032575   
    422. D(H  62,N  15,C  14,C  13)      3.0288         0.032575   
    423. D(C  16,N  15,C  14,O  44)     -9.5409         0.032575   
    424. D(C  16,N  15,C  14,C  13)    168.1882         0.032575   
    425. D(H  64,C  16,N  15,H  62)   -150.2596         0.016568   
    426. D(H  64,C  16,N  15,C  14)     44.5820         0.016568   
    427. D(H  63,C  16,N  15,H  62)    -32.1691         0.016568   
    428. D(H  63,C  16,N  15,C  14)    162.6725         0.016568   
    429. D(C  17,C  16,N  15,C  14)    -76.4418         0.016568   
    430. D(C  17,C  16,N  15,H  62)     88.7166         0.016568   
    431. D(H  65,C  17,C  16,H  64)    -74.9738         0.011066   
    432. D(H  65,C  17,C  16,H  63)    166.2230         0.011066   
    433. D(H  65,C  17,C  16,N  15)     45.2121         0.011066   
    434. D(O  43,C  17,C  16,H  64)    167.3807         0.011066   
    435. D(O  43,C  17,C  16,H  63)     48.5775         0.011066   
    436. D(O  43,C  17,C  16,N  15)    -72.4333         0.011066   
    437. D(C  18,C  17,C  16,H  64)     42.5620         0.011066   
    438. D(C  18,C  17,C  16,H  63)    -76.2412         0.011066   
    439. D(C  18,C  17,C  16,N  15)    162.7479         0.011066   
    440. D(H  66,C  18,C  17,H  65)    -59.0516         0.009909   
    441. D(H  66,C  18,C  17,O  43)     61.3518         0.009909   
    442. D(H  66,C  18,C  17,C  16)   -176.6705         0.009909   
    443. D(C  32,C  18,C  17,O  43)    -59.8116         0.009909   
    444. D(C  32,C  18,C  17,C  16)     62.1661         0.009909   
    445. D(C  32,C  18,C  17,H  65)    179.7850         0.009909   
    446. D(C  19,C  18,C  17,H  65)     58.1962         0.009909   
    447. D(C  19,C  18,C  17,O  43)    178.5996         0.009909   
    448. D(C  19,C  18,C  17,C  16)    -59.4227         0.009909   
    449. D(O  31,C  19,C  18,H  66)   -142.7176         0.009913   
    450. D(O  31,C  19,C  18,C  32)    -25.6017         0.009913   
    451. D(O  31,C  19,C  18,C  17)    100.4435         0.009913   
    452. D(N  20,C  19,C  18,H  66)     40.5287         0.009913   
    453. D(N  20,C  19,C  18,C  17)    -76.3103         0.009913   
    454. D(N  20,C  19,C  18,C  32)    157.6445         0.009913   
    455. D(H  67,N  20,C  19,O  31)   -173.7171         0.032314   
    456. D(H  67,N  20,C  19,C  18)      2.9706         0.032314   
    457. D(C  21,N  20,C  19,O  31)    -17.6895         0.032314   
    458. D(C  21,N  20,C  19,C  18)    158.9982         0.032314   
    459. D(H  68,C  21,N  20,H  67)    138.5874         0.016629   
    460. D(H  68,C  21,N  20,C  19)    -19.1493         0.016629   
    461. D(C  27,C  21,N  20,H  67)   -100.1603         0.016629   
    462. D(C  27,C  21,N  20,C  19)    102.1029         0.016629   
    463. D(C  22,C  21,N  20,H  67)     19.8858         0.016629   
    464. D(C  22,C  21,N  20,C  19)   -137.8510         0.016629   
    465. D(N  23,C  22,C  21,C  27)    -85.1075         0.010113   
    466. D(N  23,C  22,C  21,N  20)    150.9165         0.010113   
    467. D(O  26,C  22,C  21,H  68)   -149.7220         0.010113   
    468. D(O  26,C  22,C  21,C  27)     90.4540         0.010113   
    469. D(O  26,C  22,C  21,N  20)    -33.5220         0.010113   
    470. D(N  23,C  22,C  21,H  68)     34.7165         0.010113   
    471. D(H  69,N  23,C  22,O  26)    163.4495         0.034722   
    472. D(H  69,N  23,C  22,C  21)    -21.1370         0.034722   
    473. D(C  24,N  23,C  22,O  26)     -1.2819         0.034722   
    474. D(C  24,N  23,C  22,C  21)    174.1316         0.034722   
    475. D(H  70,C  24,N  23,H  69)   -129.0600         0.017163   
    476. D(H  70,C  24,N  23,C  22)     36.6930         0.017163   
    477. D(C  25,C  24,N  23,H  69)    111.4453         0.017163   
    478. D(C  25,C  24,N  23,C  22)    -82.8017         0.017163   
    479. D(C   7,C  24,N  23,H  69)    -11.4167         0.017163   
    480. D(C   7,C  24,N  23,C  22)    154.3363         0.017163   
    481. D(H  70,C  24,C   7,O   8)    125.8635         0.009816   
    482. D(H  70,C  24,C   7,N   6)    -53.4096         0.009816   
    483. D(C  25,C  24,C   7,O   8)   -111.2865         0.009816   
    484. D(C  25,C  24,C   7,N   6)     69.4404         0.009816   
    485. D(N  23,C  24,C   7,O   8)      8.9459         0.009816   
    486. D(N  23,C  24,C   7,N   6)   -170.3272         0.009816   
    487. D(H  73,C  25,C  24,H  70)    176.4524         0.010468   
    488. D(H  73,C  25,C  24,N  23)    -64.4653         0.010468   
    489. D(H  73,C  25,C  24,C   7)     53.3819         0.010468   
    490. D(H  72,C  25,C  24,H  70)     54.5610         0.010468   
    491. D(H  72,C  25,C  24,N  23)    173.6433         0.010468   
    492. D(H  72,C  25,C  24,C   7)    -68.5096         0.010468   
    493. D(H  71,C  25,C  24,H  70)    -64.6307         0.010468   
    494. D(H  71,C  25,C  24,N  23)     54.4516         0.010468   
    495. D(H  71,C  25,C  24,C   7)    172.2988         0.010468   
    496. D(H  75,C  27,C  21,H  68)   -177.1603         0.010161   
    497. D(H  75,C  27,C  21,C  22)    -56.1144         0.010161   
    498. D(H  75,C  27,C  21,N  20)     62.5650         0.010161   
    499. D(H  74,C  27,C  21,H  68)    -62.7663         0.010161   
    500. D(H  74,C  27,C  21,C  22)     58.2796         0.010161   
    501. D(H  74,C  27,C  21,N  20)    176.9590         0.010161   
    502. D(C  28,C  27,C  21,H  68)     58.4116         0.010161   
    503. D(C  28,C  27,C  21,C  22)    179.4575         0.010161   
    504. D(C  28,C  27,C  21,N  20)    -61.8631         0.010161   
    505. D(H  76,C  28,C  27,H  75)   -156.8259         0.010177   
    506. D(H  76,C  28,C  27,H  74)     86.5815         0.010177   
    507. D(H  76,C  28,C  27,C  21)    -33.0115         0.010177   
    508. D(C  30,C  28,C  27,H  75)    -37.9471         0.010177   
    509. D(C  30,C  28,C  27,H  74)   -154.5397         0.010177   
    510. D(C  30,C  28,C  27,C  21)     85.8673         0.010177   
    511. D(C  29,C  28,C  27,H  75)     84.9437         0.010177   
    512. D(C  29,C  28,C  27,H  74)    -31.6489         0.010177   
    513. D(C  29,C  28,C  27,C  21)   -151.2419         0.010177   
    514. D(H  79,C  29,C  28,C  30)     64.3346         0.010856   
    515. D(H  79,C  29,C  28,C  27)    -59.8421         0.010856   
    516. D(H  78,C  29,C  28,H  76)     62.8731         0.010856   
    517. D(H  78,C  29,C  28,C  30)    -55.2236         0.010856   
    518. D(H  78,C  29,C  28,C  27)   -179.4004         0.010856   
    519. D(H  77,C  29,C  28,H  76)    -57.4698         0.010856   
    520. D(H  77,C  29,C  28,C  30)   -175.5665         0.010856   
    521. D(H  79,C  29,C  28,H  76)   -177.5687         0.010856   
    522. D(H  77,C  29,C  28,C  27)     60.2568         0.010856   
    523. D(H  82,C  30,C  28,H  76)    -58.4260         0.010855   
    524. D(H  82,C  30,C  28,C  29)     60.0044         0.010855   
    525. D(H  82,C  30,C  28,C  27)   -177.1443         0.010855   
    526. D(H  81,C  30,C  28,H  76)   -177.7723         0.010855   
    527. D(H  81,C  30,C  28,C  29)    -59.3419         0.010855   
    528. D(H  81,C  30,C  28,C  27)     63.5094         0.010855   
    529. D(H  80,C  30,C  28,H  76)     62.2302         0.010855   
    530. D(H  80,C  30,C  28,C  29)   -179.3393         0.010855   
    531. D(H  80,C  30,C  28,C  27)    -56.4880         0.010855   
    532. D(O  42,C  32,C  18,H  66)   -137.4461         0.010009   
    533. D(O  42,C  32,C  18,C  19)    105.1198         0.010009   
    534. D(O  42,C  32,C  18,C  17)    -16.3566         0.010009   
    535. D(C  33,C  32,C  18,H  66)     42.9124         0.010009   
    536. D(C  33,C  32,C  18,C  19)    -74.5217         0.010009   
    537. D(C  33,C  32,C  18,C  17)    164.0019         0.010009   
    538. D(H  84,C  33,C  32,O  42)    109.9818         0.011420   
    539. D(H  84,C  33,C  32,C  18)    -70.3778         0.011420   
    540. D(H  83,C  33,C  32,O  42)   -137.2011         0.011420   
    541. D(H  83,C  33,C  32,C  18)     42.4393         0.011420   
    542. D(C  34,C  33,C  32,O  42)    -12.9610         0.011420   
    543. D(C  34,C  33,C  32,C  18)    166.6794         0.011420   
    544. D(H  86,C  34,C  33,H  84)   -179.2893         0.011590   
    545. D(H  86,C  34,C  33,H  83)     64.1942         0.011590   
    546. D(H  86,C  34,C  33,C  32)    -58.5204         0.011590   
    547. D(H  85,C  34,C  33,H  84)    -64.2429         0.011590   
    548. D(H  85,C  34,C  33,H  83)    179.2405         0.011590   
    549. D(H  85,C  34,C  33,C  32)     56.5260         0.011590   
    550. D(C  35,C  34,C  33,H  84)     58.6069         0.011590   
    551. D(C  35,C  34,C  33,H  83)    -57.9096         0.011590   
    552. D(C  35,C  34,C  33,C  32)    179.3759         0.011590   
    553. D(H  88,C  35,C  34,H  86)   -179.9297         0.011166   
    554. D(H  88,C  35,C  34,H  85)     63.7925         0.011166   
    555. D(H  88,C  35,C  34,C  33)    -58.5447         0.011166   
    556. D(H  87,C  35,C  34,H  86)    -64.2281         0.011166   
    557. D(H  87,C  35,C  34,H  85)    179.4941         0.011166   
    558. D(H  87,C  35,C  34,C  33)     57.1568         0.011166   
    559. D(C  36,C  35,C  34,H  86)     57.8871         0.011166   
    560. D(C  36,C  35,C  34,H  85)    -58.3907         0.011166   
    561. D(C  36,C  35,C  34,C  33)    179.2720         0.011166   
    562. D(H  90,C  36,C  35,H  87)     64.5451         0.011129   
    563. D(H  90,C  36,C  35,C  34)    -57.7022         0.011129   
    564. D(H  89,C  36,C  35,H  88)    -64.6401         0.011129   
    565. D(H  89,C  36,C  35,H  87)    179.9487         0.011129   
    566. D(H  89,C  36,C  35,C  34)     57.7013         0.011129   
    567. D(C  37,C  36,C  35,H  88)     57.6905         0.011129   
    568. D(C  37,C  36,C  35,H  87)    -57.7208         0.011129   
    569. D(H  90,C  36,C  35,H  88)    179.9564         0.011129   
    570. D(C  37,C  36,C  35,C  34)   -179.9681         0.011129   
    571. D(H  92,C  37,C  36,H  90)   -179.9915         0.011135   
    572. D(H  92,C  37,C  36,H  89)     64.4698         0.011135   
    573. D(H  92,C  37,C  36,C  35)    -57.8091         0.011135   
    574. D(H  91,C  37,C  36,H  90)    -64.5256         0.011135   
    575. D(H  91,C  37,C  36,H  89)    179.9357         0.011135   
    576. D(H  91,C  37,C  36,C  35)     57.6569         0.011135   
    577. D(C  38,C  37,C  36,H  90)     57.7372         0.011135   
    578. D(C  38,C  37,C  36,H  89)    -57.8015         0.011135   
    579. D(C  38,C  37,C  36,C  35)    179.9196         0.011135   
    580. D(H  94,C  38,C  37,H  92)    179.9632         0.011120   
    581. D(H  94,C  38,C  37,H  91)     64.5248         0.011120   
    582. D(H  94,C  38,C  37,C  36)    -57.7447         0.011120   
    583. D(H  93,C  38,C  37,H  92)    -64.6156         0.011120   
    584. D(H  93,C  38,C  37,H  91)    179.9459         0.011120   
    585. D(H  93,C  38,C  37,C  36)     57.6764         0.011120   
    586. D(C  39,C  38,C  37,H  92)     57.6772         0.011120   
    587. D(C  39,C  38,C  37,H  91)    -57.7612         0.011120   
    588. D(C  39,C  38,C  37,C  36)    179.9693         0.011120   
    589. D(H  95,C  39,C  38,H  94)    -64.5608         0.011133   
    590. D(H  95,C  39,C  38,H  93)    179.9867         0.011133   
    591. D(H  95,C  39,C  38,C  37)     57.7064         0.011133   
    592. D(C  40,C  39,C  38,H  94)     57.7182         0.011133   
    593. D(C  40,C  39,C  38,H  93)    -57.7343         0.011133   
    594. D(C  40,C  39,C  38,C  37)    179.9855         0.011133   
    595. D(H  96,C  39,C  38,H  94)    179.9969         0.011133   
    596. D(H  96,C  39,C  38,H  93)     64.5444         0.011133   
    597. D(H  96,C  39,C  38,C  37)    -57.7358         0.011133   
    598. D(H  98,C  40,C  39,H  95)     64.6579         0.011068   
    599. D(H  98,C  40,C  39,C  38)    -57.6640         0.011068   
    600. D(H  97,C  40,C  39,H  96)    -64.6706         0.011068   
    601. D(H  97,C  40,C  39,H  95)    179.9765         0.011068   
    602. D(H  97,C  40,C  39,C  38)     57.6546         0.011068   
    603. D(C  41,C  40,C  39,H  96)     57.6747         0.011068   
    604. D(C  41,C  40,C  39,H  95)    -57.6782         0.011068   
    605. D(H  98,C  40,C  39,H  96)   -179.9892         0.011068   
    606. D(C  41,C  40,C  39,C  38)    180.0000         0.011068   
    607. D(H 101,C  41,C  40,H  98)    -62.2932         0.011155   
    608. D(H 101,C  41,C  40,H  97)   -178.1849         0.011155   
    609. D(H 101,C  41,C  40,C  39)     59.7571         0.011155   
    610. D(H 100,C  41,C  40,H  98)    178.1754         0.011155   
    611. D(H 100,C  41,C  40,H  97)     62.2836         0.011155   
    612. D(H 100,C  41,C  40,C  39)    -59.7744         0.011155   
    613. D(H  99,C  41,C  40,H  98)     57.9386         0.011155   
    614. D(H  99,C  41,C  40,H  97)    -57.9531         0.011155   
    615. D(H  99,C  41,C  40,C  39)    179.9889         0.011155   
    616. D(H 102,O  43,C  17,H  65)     47.8494         0.017796   
    617. D(H 102,O  43,C  17,C  18)    -70.8771         0.017796   
    618. D(H 102,O  43,C  17,C  16)    163.6932         0.017796   
    619. D(H 104,C  45,C  13,H  61)     69.0995         0.009760   
    620. D(H 104,C  45,C  13,C  14)   -168.7597         0.009760   
    621. D(H 104,C  45,C  13,N  12)    -49.0618         0.009760   
    622. D(H 103,C  45,C  13,H  61)   -176.0419         0.009760   
    623. D(H 103,C  45,C  13,C  14)    -53.9011         0.009760   
    624. D(H 103,C  45,C  13,N  12)     65.7968         0.009760   
    625. D(C  46,C  45,C  13,H  61)    -51.8983         0.009760   
    626. D(C  46,C  45,C  13,C  14)     70.2424         0.009760   
    627. D(C  46,C  45,C  13,N  12)   -170.0597         0.009760   
    628. D(H 107,C  46,C  45,H 104)    -62.2024         0.011301   
    629. D(H 107,C  46,C  45,H 103)    179.4303         0.011301   
    630. D(H 107,C  46,C  45,C  13)     56.8494         0.011301   
    631. D(H 106,C  46,C  45,H 104)    176.7029         0.011301   
    632. D(H 106,C  46,C  45,H 103)     58.3356         0.011301   
    633. D(H 106,C  46,C  45,C  13)    -64.2453         0.011301   
    634. D(H 105,C  46,C  45,H 104)     56.4464         0.011301   
    635. D(H 105,C  46,C  45,H 103)    -61.9209         0.011301   
    636. D(H 105,C  46,C  45,C  13)    175.4982         0.011301   
    637. D(H 108,C  48,C  10,H  59)    -63.8603         0.009557   
    638. D(H 108,C  48,C  10,C  11)     53.2680         0.009557   
    639. D(H 108,C  48,C  10,N   9)    179.6060         0.009557   
    640. D(C  50,C  48,C  10,H  59)    179.6441         0.009557   
    641. D(C  50,C  48,C  10,C  11)    -63.2276         0.009557   
    642. D(C  50,C  48,C  10,N   9)     63.1105         0.009557   
    643. D(C  49,C  48,C  10,H  59)     54.1029         0.009557   
    644. D(C  49,C  48,C  10,C  11)    171.2312         0.009557   
    645. D(C  49,C  48,C  10,N   9)    -62.4307         0.009557   
    646. D(H 111,C  49,C  48,C  50)     59.3092         0.011223   
    647. D(H 111,C  49,C  48,C  10)   -175.0261         0.011223   
    648. D(H 110,C  49,C  48,H 108)   -178.9173         0.011223   
    649. D(H 110,C  49,C  48,C  50)    -59.7620         0.011223   
    650. D(H 110,C  49,C  48,C  10)     65.9027         0.011223   
    651. D(H 109,C  49,C  48,H 108)     61.0133         0.011223   
    652. D(H 109,C  49,C  48,C  50)   -179.8314         0.011223   
    653. D(H 111,C  49,C  48,H 108)    -59.8461         0.011223   
    654. D(H 109,C  49,C  48,C  10)    -54.1667         0.011223   
    655. D(H 114,C  50,C  48,H 108)   -178.4748         0.010975   
    656. D(H 114,C  50,C  48,C  49)     61.6050         0.010975   
    657. D(H 114,C  50,C  48,C  10)    -63.9902         0.010975   
    658. D(H 113,C  50,C  48,H 108)     62.7760         0.010975   
    659. D(H 113,C  50,C  48,C  49)    -57.1442         0.010975   
    660. D(H 113,C  50,C  48,C  10)    177.2605         0.010975   
    661. D(H 112,C  50,C  48,H 108)    -57.0781         0.010975   
    662. D(H 112,C  50,C  48,C  49)   -176.9983         0.010975   
    663. D(H 112,C  50,C  48,C  10)     57.4064         0.010975   
    -----------------------------------------------------------------

Number of atoms                         .... 115
Number of degrees of freedom            .... 663

         *************************************************************
         *                GEOMETRY OPTIMIZATION CYCLE   1            *
         *************************************************************
---------------------------------
CARTESIAN COORDINATES (ANGSTROEM)
---------------------------------
  O      8.338085    0.624957    0.133669
  C      7.462915    0.511140    0.984859
  C      7.140855    1.686044    1.926753
  C      8.148774    1.736540    3.091717
  C      7.473645    0.896779    4.185592
  C      5.993444    1.275882    4.053753
  N      5.843748    1.572960    2.615779
  C      4.712207    1.916594    1.934839
  O      4.765183    2.255492    0.747671
  N      6.769361   -0.643742    1.222031
  C      7.153110   -1.919472    0.637294
  C      5.949053   -2.776003    0.217701
  N      4.727523   -2.179967    0.232563
  C      3.531522   -2.956945   -0.037886
  C      2.439918   -2.002542   -0.520073
  N      1.524451   -2.558719   -1.352132
  C      0.286358   -1.881732   -1.706731
  C     -0.726899   -1.952040   -0.561148
  C     -1.873081   -0.920620   -0.688227
  C     -1.250482    0.485089   -0.708543
  N     -0.838600    0.939527    0.502375
  C      0.147313    2.001796    0.625011
  C      1.094106    1.578197    1.756021
  N      2.353904    2.044892    1.641211
  C      3.360515    1.858553    2.668397
  C      3.198411    2.936988    3.754437
  O      0.680609    0.931548    2.727559
  C     -0.435636    3.390210    0.963747
  C     -1.405931    3.976683   -0.083204
  C     -1.352412    5.509110   -0.047010
  C     -2.847134    3.495661    0.126757
  O     -1.089339    1.107585   -1.760192
  C     -2.768580   -1.069608   -1.927414
  C     -4.084685   -0.319489   -1.847385
  C     -4.820958   -0.201741   -3.176924
  C     -6.148827    0.547147   -3.050727
  C     -6.890590    0.688276   -4.381651
  C     -8.219516    1.437258   -4.262456
  C     -8.961437    1.580790   -5.593173
  C    -10.290802    2.329090   -5.474249
  C    -11.034004    2.473743   -6.804901
  C    -12.361218    3.223246   -6.673835
  O     -2.443153   -1.730305   -2.895194
  O     -1.208738   -3.301946   -0.501003
  O      2.391585   -0.828483   -0.132793
  C      3.078479   -3.704666    1.241301
  C      1.974305   -4.737466    1.020303
  O      6.100622   -3.965805   -0.070706
  C      8.065837   -2.755590    1.574389
  C      9.387893   -2.040996    1.855957
  C      7.346985   -3.137661    2.872437
  H      7.159239    2.587131    1.302674
  H      8.267876    2.777693    3.425600
  H      9.134373    1.362292    2.791352
  H      7.618171   -0.174804    3.987131
  H      7.859628    1.103938    5.191303
  H      5.306746    0.477858    4.371986
  H      5.776865    2.170532    4.657002
  H      6.118157   -0.642598    2.001369
  H      7.723449   -1.670530   -0.271431
  H      4.610798   -1.171787    0.332738
  H      3.776316   -3.701766   -0.812068
  H      1.600074   -3.550811   -1.550560
  H     -0.142976   -2.347337   -2.599415
  H      0.515429   -0.835461   -1.940330
  H     -0.180129   -1.709741    0.368365
  H     -2.512055   -1.009590    0.209247
  H     -0.905426    0.352924    1.335926
  H      0.682504    2.062251   -0.335088
  H      2.729391    2.349669    0.740178
  H      3.223956    0.861256    3.120216
  H      2.164546    2.905044    4.120645
  H      3.862643    2.777488    4.611564
  H      3.394032    3.932227    3.332732
  H      0.426408    4.067242    1.077158
  H     -0.927535    3.340432    1.950110
  H     -1.073763    3.636731   -1.077698
  H     -0.342257    5.881265   -0.273304
  H     -2.046195    5.946222   -0.780110
  H     -1.636700    5.888703    0.947867
  H     -2.919704    2.401579    0.118126
  H     -3.233256    3.849402    1.096519
  H     -3.507479    3.886729   -0.660763
  H     -3.888039    0.676234   -1.414100
  H     -4.708103   -0.844271   -1.097625
  H     -4.989955   -1.208338   -3.589369
  H     -4.166471    0.312541   -3.898384
  H     -5.966448    1.550973   -2.627765
  H     -6.799010    0.026360   -2.324908
  H     -7.072479   -0.314863   -4.805596
  H     -6.240623    1.209412   -5.106115
  H     -8.036261    2.439951   -3.837237
  H     -8.869077    0.915374   -3.537430
  H     -9.143814    0.578203   -6.018834
  H     -8.312157    2.103177   -6.317791
  H    -10.108694    3.331859   -5.048289
  H    -10.940543    1.806761   -4.749514
  H    -11.214578    1.471197   -7.228950
  H    -10.383407    2.995444   -7.527412
  H    -12.873828    3.313318   -7.642317
  H    -13.042341    2.704607   -5.981873
  H    -12.204746    4.240102   -6.282408
  H     -1.642047   -3.432143    0.359827
  H      2.768462   -2.951310    1.983103
  H      3.975740   -4.204241    1.634696
  H      1.764793   -5.278966    1.953285
  H      1.032382   -4.283671    0.681118
  H      2.279429   -5.485038    0.271539
  H      8.266662   -3.680647    1.013842
  H      9.905461   -1.762466    0.928640
  H      9.229027   -1.117737    2.433672
  H     10.052148   -2.687761    2.447015
  H      6.422836   -3.697951    2.674242
  H      7.992795   -3.768881    3.498528
  H      7.091786   -2.247776    3.470948

----------------------------
CARTESIAN COORDINATES (A.U.)
----------------------------
  NO LB      ZA    FRAG     MASS         X           Y           Z
   0 O     8.0000    0    15.999   15.756698    1.180997    0.252597
   1 C     6.0000    0    12.011   14.102865    0.965915    1.861113
   2 C     6.0000    0    12.011   13.494260    3.186161    3.641035
   3 C     6.0000    0    12.011   15.398950    3.281585    5.842499
   4 C     6.0000    0    12.011   14.123143    1.694667    7.909623
   5 C     6.0000    0    12.011   11.325968    2.411067    7.660483
   6 N     7.0000    0    14.007   11.043084    2.972464    4.943106
   7 C     6.0000    0    12.011    8.904781    3.621837    3.656316
   8 O     8.0000    0    15.999    9.004891    4.262263    1.412894
   9 N     7.0000    0    14.007   12.792238   -1.216496    2.309304
  10 C     6.0000    0    12.011   13.517418   -3.627276    1.204311
  11 C     6.0000    0    12.011   11.242082   -5.245885    0.411394
  12 N     7.0000    0    14.007    8.933724   -4.119540    0.439480
  13 C     6.0000    0    12.011    6.673610   -5.587816   -0.071593
  14 C     6.0000    0    12.011    4.610777   -3.784257   -0.982795
  15 N     7.0000    0    14.007    2.880795   -4.835277   -2.555159
  16 C     6.0000    0    12.011    0.541138   -3.555958   -3.225254
  17 C     6.0000    0    12.011   -1.373641   -3.688821   -1.060416
  18 C     6.0000    0    12.011   -3.539609   -1.739720   -1.300560
  19 C     6.0000    0    12.011   -2.363068    0.916686   -1.338951
  20 N     7.0000    0    14.007   -1.584724    1.775449    0.949351
  21 C     6.0000    0    12.011    0.278381    3.782846    1.181099
  22 C     6.0000    0    12.011    2.067560    2.982361    3.318399
  23 N     7.0000    0    14.007    4.448234    3.864286    3.101440
  24 C     6.0000    0    12.011    6.350452    3.512156    5.042539
  25 C     6.0000    0    12.011    6.044120    5.550103    7.094857
  26 O     8.0000    0    15.999    1.286164    1.760371    5.154340
  27 C     6.0000    0    12.011   -0.823232    6.406569    1.821218
  28 C     6.0000    0    12.011   -2.656825    7.514842   -0.157234
  29 C     6.0000    0    12.011   -2.555688   10.410710   -0.088837
  30 C     6.0000    0    12.011   -5.380304    6.605842    0.239536
  31 O     8.0000    0    15.999   -2.058553    2.093033   -3.326281
  32 C     6.0000    0    12.011   -5.231858   -2.021267   -3.642286
  33 C     6.0000    0    12.011   -7.718936   -0.603747   -3.491051
  34 C     6.0000    0    12.011   -9.110291   -0.381235   -6.003517
  35 C     6.0000    0    12.011  -11.619599    1.033958   -5.765038
  36 C     6.0000    0    12.011  -13.021328    1.300653   -8.280121
  37 C     6.0000    0    12.011  -15.532634    2.716025   -8.054875
  38 C     6.0000    0    12.011  -16.934662    2.987260  -10.569565
  39 C     6.0000    0    12.011  -19.446798    4.401341  -10.344831
  40 C     6.0000    0    12.011  -20.851245    4.674697  -12.859400
  41 C     6.0000    0    12.011  -23.359318    6.091053  -12.611721
  42 O     8.0000    0    15.999   -4.616891   -3.269802   -5.471123
  43 O     8.0000    0    15.999   -2.284184   -6.239773   -0.946758
  44 O     8.0000    0    15.999    4.519441   -1.565606   -0.250942
  45 C     6.0000    0    12.011    5.817483   -7.000805    2.345719
  46 C     6.0000    0    12.011    3.730896   -8.952513    1.928094
  47 O     8.0000    0    15.999   11.528505   -7.494286   -0.133614
  48 C     6.0000    0    12.011   15.242223   -5.207310    2.975165
  49 C     6.0000    0    12.011   17.740547   -3.856923    3.507251
  50 C     6.0000    0    12.011   13.883789   -5.929321    5.428119
  51 H     1.0000    0     1.008   13.529001    4.888968    2.461698
  52 H     1.0000    0     1.008   15.624021    5.249080    6.473446
  53 H     1.0000    0     1.008   17.261463    2.574359    5.274891
  54 H     1.0000    0     1.008   14.396256   -0.330331    7.534586
  55 H     1.0000    0     1.008   14.852545    2.086141    9.810141
  56 H     1.0000    0     1.008   10.028297    0.903022    8.261857
  57 H     1.0000    0     1.008   10.916692    4.101712    8.800458
  58 H     1.0000    0     1.008   11.561642   -1.214335    3.782039
  59 H     1.0000    0     1.008   14.595203   -3.156844   -0.512930
  60 H     1.0000    0     1.008    8.713146   -2.214356    0.628784
  61 H     1.0000    0     1.008    7.136203   -6.995325   -1.534586
  62 H     1.0000    0     1.008    3.023702   -6.710060   -2.930133
  63 H     1.0000    0     1.008   -0.270185   -4.435825   -4.912183
  64 H     1.0000    0     1.008    0.974019   -1.578792   -3.666692
  65 H     1.0000    0     1.008   -0.340394   -3.230942    0.696109
  66 H     1.0000    0     1.008   -4.747096   -1.907848    0.395420
  67 H     1.0000    0     1.008   -1.711006    0.666930    2.524535
  68 H     1.0000    0     1.008    1.289745    3.897090   -0.633224
  69 H     1.0000    0     1.008    5.157802    4.440232    1.398733
  70 H     1.0000    0     1.008    6.092394    1.627538    5.896354
  71 H     1.0000    0     1.008    4.090400    5.489738    7.786891
  72 H     1.0000    0     1.008    7.299337    5.248692    8.714593
  73 H     1.0000    0     1.008    6.413791    7.430831    6.297950
  74 H     1.0000    0     1.008    0.805794    7.685973    2.035534
  75 H     1.0000    0     1.008   -1.752787    6.312503    3.685173
  76 H     1.0000    0     1.008   -2.029118    6.872425   -2.036554
  77 H     1.0000    0     1.008   -0.646772   11.113980   -0.516469
  78 H     1.0000    0     1.008   -3.866748   11.236732   -1.474194
  79 H     1.0000    0     1.008   -3.092915   11.128036    1.791209
  80 H     1.0000    0     1.008   -5.517440    4.538327    0.223226
  81 H     1.0000    0     1.008   -6.109968    7.274316    2.072122
  82 H     1.0000    0     1.008   -6.628175    7.344854   -1.248660
  83 H     1.0000    0     1.008   -7.347330    1.277897   -2.672262
  84 H     1.0000    0     1.008   -8.897025   -1.595441   -2.074210
  85 H     1.0000    0     1.008   -9.429648   -2.283428   -6.782925
  86 H     1.0000    0     1.008   -7.873489    0.590617   -7.366878
  87 H     1.0000    0     1.008  -11.274952    2.930913   -4.965756
  88 H     1.0000    0     1.008  -12.848267    0.049814   -4.393439
  89 H     1.0000    0     1.008  -13.365048   -0.595005   -9.081260
  90 H     1.0000    0     1.008  -11.793069    2.285457   -9.649159
  91 H     1.0000    0     1.008  -15.186333    4.610839   -7.251327
  92 H     1.0000    0     1.008  -16.760126    1.729806   -6.684773
  93 H     1.0000    0     1.008  -17.279305    1.092645  -11.373947
  94 H     1.0000    0     1.008  -15.707701    3.974429  -11.938894
  95 H     1.0000    0     1.008  -19.102663    6.296301   -9.539883
  96 H     1.0000    0     1.008  -20.674629    3.414283   -8.975281
  97 H     1.0000    0     1.008  -21.192482    2.780159  -13.660736
  98 H     1.0000    0     1.008  -19.621796    5.660568  -14.224747
  99 H     1.0000    0     1.008  -24.328009    6.261263  -14.441886
 100 H     1.0000    0     1.008  -24.646453    5.110967  -11.304102
 101 H     1.0000    0     1.008  -23.063627    8.012632  -11.872031
 102 H     1.0000    0     1.008   -3.103020   -6.485811    0.679974
 103 H     1.0000    0     1.008    5.231635   -5.577169    3.747522
 104 H     1.0000    0     1.008    7.513060   -7.944864    3.089129
 105 H     1.0000    0     1.008    3.334976   -9.975799    3.691174
 106 H     1.0000    0     1.008    1.950919   -8.094966    1.287126
 107 H     1.0000    0     1.008    4.307496  -10.365220    0.513134
 108 H     1.0000    0     1.008   15.621727   -6.955414    1.915884
 109 H     1.0000    0     1.008   18.718609   -3.330577    1.754876
 110 H     1.0000    0     1.008   17.440333   -2.112216    4.598974
 111 H     1.0000    0     1.008   18.995807   -5.079131    4.624189
 112 H     1.0000    0     1.008   12.137400   -6.988115    5.053585
 113 H     1.0000    0     1.008   15.104194   -7.122153    6.611260
 114 H     1.0000    0     1.008   13.401534   -4.247682    6.559141

--------------------------------
INTERNAL COORDINATES (ANGSTROEM)
--------------------------------
 O      0   0   0     0.000000000000     0.00000000     0.00000000
 C      1   0   0     1.226132893876     0.00000000     0.00000000
 C      2   1   0     1.539897598478   120.20361916     0.00000000
 C      3   2   1     1.541295690175   110.52052900   278.62944354
 C      4   3   2     1.535434476172   103.47470334   268.19102392
 C      5   4   3     1.533654308502   103.17572145   321.51059034
 N      3   2   1     1.473102378836   114.31062692   163.00534479
 C      7   3   2     1.364605386570   118.51617556   279.79319345
 O      8   7   3     1.235729393426   120.85750372     3.33619936
 N      2   1   3     1.367852890683   124.10061870   183.72290954
 C     10   2   1     1.454876698631   122.47359052    10.49033174
 C     11  10   2     1.536052073485   113.07817337   218.14015241
 N     12  11  10     1.359270546139   117.18926417    10.33209506
 C     13  12  11     1.451639007880   120.24304884   185.39478846
 C     14  13  12     1.528066967688   108.24336214   203.09251937
 N     15  14  13     1.356367797111   114.81079929   151.62213068
 C     16  15  14     1.454965817716   122.21173395   168.18824770
 C     17  16  15     1.531010815937   111.06606957   283.55820425
 C     18  17  16     1.547160875498   113.46717592   162.74791558
 C     19  18  17     1.537550220483   108.09488641   300.57732515
 N     20  19  18     1.357380554580   114.65585532   283.68971659
 C     21  20  19     1.454468436491   121.69643321   158.99819740
 C     22  21  20     1.534612977623   106.18558337   222.14902984
 N     23  22  21     1.348361048062   114.71736191   150.91647303
 C     24  23  22     1.450205932081   122.93867054   174.13163570
 C     25  24  23     1.539085414545   109.67383259   277.19834005
 O     23  22  21     1.238152360993   121.09248614   326.47796584
 C     22  21  20     1.543458779888   114.80114947   102.10294956
 C     28  22  21     1.543221453139   115.49534244   298.13691801
 C     29  28  22     1.533788516557   109.98327519   208.75807383
 C     29  28  22     1.533796674473   112.25550587    85.86729991
 O     20  19  18     1.232653656327   121.72954576   100.44346549
 C     19  18  17     1.536132248103   115.68813897    62.16613900
 C     33  19  18     1.516975888099   114.53487952   164.00187091
 C     34  33  19     1.524348805140   114.28231310   166.67935848
 C     35  34  33     1.529704001145   112.65242695   179.37585910
 C     36  35  34     1.530192696788   113.21540414   179.27201625
 C     37  36  35     1.530106094427   113.47858753   180.03189548
 C     38  37  36     1.530312262460   113.53092967   179.91964130
 C     39  38  37     1.530133084040   113.54620799   179.96927380
 C     40  39  38     1.530982899245   113.60328222   179.98548710
 C     41  40  39     1.529847304325   113.13943809   179.99995165
 O     33  19  18     1.216149029063   122.59137852   343.64340496
 O     18  17  16     1.434584178992   107.26978090   287.56666836
 O     15  14  13     1.237229905270   121.45466226   329.40735275
 C     14  13  12     1.549404008207   110.20575740    81.93227580
 C     46  14  13     1.527977906850   114.71345924   189.94032356
 O     12  11  10     1.233604639769   120.35602291   192.83727807
 C     11  10   2     1.552518075685   112.62604434    94.02922349
 C     49  11  10     1.528972586454   111.57947641   297.56926500
 C     49  11  10     1.532205637786   111.70493997    63.11049559
 H      3   2   1     1.096252472052   105.98749964    41.52222782
 H      4   3   2     1.099846847930   109.34646431   150.50856593
 H      4   3   2     1.096214800207   111.69523846    31.02684766
 H      5   4   3     1.099347247372   110.28514826    79.69351263
 H      5   4   3     1.096974266053   113.27556170   200.42587190
 H      6   5   4     1.099848834074   113.47621053   151.74800820
 H      6   5   4     1.100552337235   110.10584361   272.87890042
 H     10   2   1     1.015595933260   117.20775679   175.28249417
 H     11  10   2     1.101380443911   105.66460671   335.88784408
 H     13  12  11     1.019846312392   122.50751037    11.93670728
 H     14  13  12     1.101835552097   108.03954633   323.43153232
 H     16  15  14     1.014563683973   118.07553071     3.02879873
 H     17  16  15     1.094532327719   109.54968744   162.67246529
 H     17  16  15     1.096232368498   108.55456242    44.58204399
 H     18  17  16     1.105288257197   106.96551158    45.21210986
 H     19  18  17     1.105289296886   107.93405512   183.32952677
 H     21  20  19     1.021458168682   121.05587026     2.97060154
 H     22  21  20     1.100851270773   107.22452002   340.85067439
 H     24  23  22     1.022615116403   121.41594762   338.86300851
 H     25  24  23     1.103354029507   108.67984836    36.69297658
 H     26  25  24     1.097271513563   108.32118311    54.45158552
 H     26  25  24     1.096043817959   112.70746503   173.64327508
 H     26  25  24     1.098454516113   110.19400701   295.53473525
 H     28  22  21     1.101976728889   106.24791377   176.95902099
 H     28  22  21     1.103337514775   108.90497156    62.56498841
 H     29  28  22     1.102234447054   107.78326116   326.98846718
 H     30  29  28     1.100054698719   111.41946862    60.25675185
 H     30  29  28     1.099925902005   111.05790738   180.59964280
 H     30  29  28     1.102130173160   110.88002716   300.15785972
 H     31  29  28     1.096520053704   111.96415097   303.51196969
 H     31  29  28     1.102116854631   110.42534647    63.50943528
 H     31  29  28     1.099625698277   110.77476392   182.85574522
 H     34  33  19     1.103571164719   108.19653867    42.43928627
 H     34  33  19     1.107333060247   106.84713276   289.62217975
 H     35  34  33     1.100867459221   109.28648094    56.52598616
 H     35  34  33     1.101518522232   108.68350522   301.47962390
 H     36  35  34     1.104456581561   109.46365618    57.15679302
 H     36  35  34     1.104885008287   109.52736294   301.45526714
 H     37  36  35     1.104128652227   109.27018938    57.70133161
 H     37  36  35     1.104032075467   109.20182712   302.29782436
 H     38  37  36     1.104439448954   109.28606101    57.65687762
 H     38  37  36     1.104516374615   109.30637590   302.19092822
 H     39  38  37     1.104368428442   109.27348075    57.67637812
 H     39  38  37     1.104320125000   109.26304589   302.25526780
 H     40  39  38     1.104605065663   109.31102587    57.70642988
 H     40  39  38     1.104640197415   109.31515487   302.26418703
 H     41  40  39     1.103414217864   109.12410401    57.65462080
 H     41  40  39     1.103390052340   109.12126806   302.33604676
 H     42  41  40     1.099471481954   111.66311143   179.98887698
 H     42  41  40     1.100784157379   111.08980478   300.22564561
 H     42  41  40     1.100769967827   111.08280743    59.75707712
 H     44  18  17     0.972489211439   108.22466027   163.69323445
 H     46  14  13     1.101783065882   107.94810658    65.79680201
 H     46  14  13     1.099732421448   106.02116226   310.93816718
 H     47  46  14     1.098896028739   110.36824935   175.49819037
 H     47  46  14     1.099179473824   112.63307122   295.75465527
 H     47  46  14     1.101186802708   110.91510757    56.84936563
 H     49  11  10     1.100124860303   104.63271078   179.60604933
 H     50  49  11     1.097894345452   111.75555474   305.83328706
 H     50  49  11     1.100636600955   111.34006351    65.90272987
 H     50  49  11     1.099495045313   110.27089221   184.97392444
 H     51  49  11     1.098752564821   111.65082114    57.40641762
 H     51  49  11     1.098863371095   110.49951298   177.26053136
 H     51  49  11     1.102377973572   111.54737141   296.00979216

---------------------------
INTERNAL COORDINATES (A.U.)
---------------------------
 O      0   0   0     0.000000000000     0.00000000     0.00000000
 C      1   0   0     2.317055373219     0.00000000     0.00000000
 C      2   1   0     2.909984735406   120.20361916     0.00000000
 C      3   2   1     2.912626745823   110.52052900   278.62944354
 C      4   3   2     2.901550656546   103.47470334   268.19102392
 C      5   4   3     2.898186627177   103.17572145   321.51059034
 N      3   2   1     2.783760063228   114.31062692   163.00534479
 C      7   3   2     2.578730461491   118.51617556   279.79319345
 O      8   7   3     2.335190129212   120.85750372     3.33619936
 N      2   1   3     2.584867354884   124.10061870   183.72290954
 C     10   2   1     2.749318519036   122.47359052    10.49033174
 C     11  10   2     2.902717746329   113.07817337   218.14015241
 N     12  11  10     2.568649074108   117.18926417    10.33209506
 C     13  12  11     2.743200170210   120.24304884   185.39478846
 C     14  13  12     2.887628083222   108.24336214   203.09251937
 N     15  14  13     2.563163673409   114.81079929   151.62213068
 C     16  15  14     2.749486929700   122.21173395   168.18824770
 C     17  16  15     2.893191150192   111.06606957   283.55820425
 C     18  17  16     2.923710339810   113.46717592   162.74791558
 C     19  18  17     2.905548833862   108.09488641   300.57732515
 N     20  19  18     2.565077507667   114.65585532   283.68971659
 C     21  20  19     2.748547015400   121.69643321   158.99819740
 C     22  21  20     2.899998249268   106.18558337   222.14902984
 N     23  22  21     2.548033110485   114.71736191   150.91647303
 C     24  23  22     2.740492049422   122.93867054   174.13163570
 C     25  24  23     2.908449930202   109.67383259   277.19834005
 O     23  22  21     2.339768874345   121.09248614   326.47796584
 C     22  21  20     2.916714392984   114.80114947   102.10294956
 C     28  22  21     2.916265910425   115.49534244   298.13691801
 C     29  28  22     2.898440243647   109.98327519   208.75807383
 C     29  28  22     2.898455659873   112.25550587    85.86729991
 O     20  19  18     2.329377828434   121.72954576   100.44346549
 C     19  18  17     2.902869254400   115.68813897    62.16613900
 C     33  19  18     2.866668980269   114.53487952   164.00187091
 C     34  33  19     2.880601774284   114.28231310   166.67935848
 C     35  34  33     2.890721628127   112.65242695   179.37585910
 C     36  35  34     2.891645129056   113.21540414   179.27201625
 C     37  36  35     2.891481474311   113.47858753   180.03189548
 C     38  37  36     2.891871075431   113.53092967   179.91964130
 C     39  38  37     2.891532477288   113.54620799   179.96927380
 C     40  39  38     2.893138395290   113.60328222   179.98548710
 C     41  40  39     2.890992431891   113.13943809   179.99995165
 O     33  19  18     2.298188602963   122.59137852   343.64340496
 O     18  17  16     2.710971214350   107.26978090   287.56666836
 O     15  14  13     2.338025685657   121.45466226   329.40735275
 C     14  13  12     2.927949246310   110.20575740    81.93227580
 C     46  14  13     2.887459782629   114.71345924   189.94032356
 O     12  11  10     2.331174926697   120.35602291   192.83727807
 C     11  10   2     2.933833981007   112.62604434    94.02922349
 C     49  11  10     2.889339454672   111.57947641   297.56926500
 C     49  11  10     2.895449036265   111.70493997    63.11049559
 H      3   2   1     2.071616945813   105.98749964    41.52222782
 H      4   3   2     2.078409331845   109.34646431   150.50856593
 H      4   3   2     2.071545756342   111.69523846    31.02684766
 H      5   4   3     2.077465223613   110.28514826    79.69351263
 H      5   4   3     2.072980938799   113.27556170   200.42587190
 H      6   5   4     2.078413085113   113.47621053   151.74800820
 H      6   5   4     2.079742513421   110.10584361   272.87890042
 H     10   2   1     1.919198176586   117.20775679   175.28249417
 H     11  10   2     2.081307408248   105.66460671   335.88784408
[...]
freq.      79.49  E(vib)   ...       0.49 
freq.      86.32  E(vib)   ...       0.48 
freq.      88.66  E(vib)   ...       0.47 
freq.      92.13  E(vib)   ...       0.47 
freq.      95.37  E(vib)   ...       0.47 
freq.      96.69  E(vib)   ...       0.46 
freq.     100.98  E(vib)   ...       0.46 
freq.     105.02  E(vib)   ...       0.45 
freq.     106.79  E(vib)   ...       0.45 
freq.     114.52  E(vib)   ...       0.44 
freq.     117.53  E(vib)   ...       0.44 
freq.     119.36  E(vib)   ...       0.44 
freq.     128.06  E(vib)   ...       0.43 
freq.     132.94  E(vib)   ...       0.42 
freq.     145.90  E(vib)   ...       0.41 
freq.     150.46  E(vib)   ...       0.40 
freq.     154.64  E(vib)   ...       0.40 
freq.     156.72  E(vib)   ...       0.40 
freq.     158.59  E(vib)   ...       0.39 
freq.     161.89  E(vib)   ...       0.39 
freq.     167.28  E(vib)   ...       0.39 
freq.     181.59  E(vib)   ...       0.37 
freq.     189.76  E(vib)   ...       0.36 
freq.     196.99  E(vib)   ...       0.35 
freq.     204.45  E(vib)   ...       0.35 
freq.     211.64  E(vib)   ...       0.34 
freq.     213.41  E(vib)   ...       0.34 
freq.     222.93  E(vib)   ...       0.33 
freq.     225.63  E(vib)   ...       0.33 
freq.     227.79  E(vib)   ...       0.33 
freq.     236.50  E(vib)   ...       0.32 
freq.     237.17  E(vib)   ...       0.32 
freq.     242.38  E(vib)   ...       0.31 
freq.     246.03  E(vib)   ...       0.31 
freq.     253.87  E(vib)   ...       0.30 
freq.     259.02  E(vib)   ...       0.30 
freq.     263.39  E(vib)   ...       0.29 
freq.     268.35  E(vib)   ...       0.29 
freq.     272.35  E(vib)   ...       0.29 
freq.     278.74  E(vib)   ...       0.28 
freq.     282.82  E(vib)   ...       0.28 
freq.     285.91  E(vib)   ...       0.27 
freq.     302.60  E(vib)   ...       0.26 
freq.     303.88  E(vib)   ...       0.26 
freq.     316.66  E(vib)   ...       0.25 
freq.     321.58  E(vib)   ...       0.25 
freq.     324.42  E(vib)   ...       0.25 
freq.     337.65  E(vib)   ...       0.24 
freq.     342.83  E(vib)   ...       0.23 
freq.     359.66  E(vib)   ...       0.22 
freq.     364.30  E(vib)   ...       0.22 
freq.     372.21  E(vib)   ...       0.21 
freq.     380.09  E(vib)   ...       0.21 
freq.     397.86  E(vib)   ...       0.20 
freq.     400.44  E(vib)   ...       0.19 
freq.     404.30  E(vib)   ...       0.19 
freq.     414.25  E(vib)   ...       0.19 
freq.     422.61  E(vib)   ...       0.18 
freq.     445.45  E(vib)   ...       0.17 
freq.     452.08  E(vib)   ...       0.16 
freq.     459.41  E(vib)   ...       0.16 
freq.     471.28  E(vib)   ...       0.15 
freq.     478.49  E(vib)   ...       0.15 
freq.     488.08  E(vib)   ...       0.15 
freq.     493.09  E(vib)   ...       0.14 
freq.     506.53  E(vib)   ...       0.14 
freq.     511.87  E(vib)   ...       0.14 
freq.     521.36  E(vib)   ...       0.13 
freq.     545.28  E(vib)   ...       0.12 
freq.     554.55  E(vib)   ...       0.12 
freq.     570.17  E(vib)   ...       0.11 
freq.     582.83  E(vib)   ...       0.11 
freq.     586.94  E(vib)   ...       0.10 
freq.     608.79  E(vib)   ...       0.10 
freq.     620.80  E(vib)   ...       0.09 
freq.     627.59  E(vib)   ...       0.09 
freq.     645.14  E(vib)   ...       0.09 
freq.     653.37  E(vib)   ...       0.08 
freq.     680.81  E(vib)   ...       0.08 
freq.     689.93  E(vib)   ...       0.07 
freq.     700.76  E(vib)   ...       0.07 
freq.     708.73  E(vib)   ...       0.07 
freq.     711.58  E(vib)   ...       0.07 
freq.     713.95  E(vib)   ...       0.07 
freq.     722.30  E(vib)   ...       0.07 
freq.     723.71  E(vib)   ...       0.06 
freq.     726.98  E(vib)   ...       0.06 
freq.     735.72  E(vib)   ...       0.06 
freq.     749.04  E(vib)   ...       0.06 
freq.     753.14  E(vib)   ...       0.06 
freq.     757.56  E(vib)   ...       0.06 
freq.     769.69  E(vib)   ...       0.05 
freq.     777.38  E(vib)   ...       0.05 
freq.     804.09  E(vib)   ...       0.05 
freq.     807.99  E(vib)   ...       0.05 
freq.     821.30  E(vib)   ...       0.05 
freq.     823.58  E(vib)   ...       0.05 
freq.     840.28  E(vib)   ...       0.04 
freq.     842.98  E(vib)   ...       0.04 
freq.     856.65  E(vib)   ...       0.04 
freq.     859.83  E(vib)   ...       0.04 
freq.     866.63  E(vib)   ...       0.04 
freq.     868.09  E(vib)   ...       0.04 
freq.     876.54  E(vib)   ...       0.04 
freq.     877.51  E(vib)   ...       0.04 
freq.     884.95  E(vib)   ...       0.04 
freq.     899.25  E(vib)   ...       0.03 
freq.     901.00  E(vib)   ...       0.03 
freq.     906.59  E(vib)   ...       0.03 
freq.     910.68  E(vib)   ...       0.03 
freq.     916.23  E(vib)   ...       0.03 
freq.     924.82  E(vib)   ...       0.03 
freq.     930.53  E(vib)   ...       0.03 
freq.     935.60  E(vib)   ...       0.03 
freq.     940.25  E(vib)   ...       0.03 
freq.     942.57  E(vib)   ...       0.03 
freq.     946.61  E(vib)   ...       0.03 
freq.     954.05  E(vib)   ...       0.03 
freq.     964.00  E(vib)   ...       0.03 
freq.     970.90  E(vib)   ...       0.03 
freq.     975.75  E(vib)   ...       0.03 
freq.     977.94  E(vib)   ...       0.03 
freq.     979.24  E(vib)   ...       0.03 
freq.     986.57  E(vib)   ...       0.02 
freq.     997.32  E(vib)   ...       0.02 
freq.    1003.87  E(vib)   ...       0.02 
freq.    1004.88  E(vib)   ...       0.02 
freq.    1011.80  E(vib)   ...       0.02 
freq.    1022.56  E(vib)   ...       0.02 
freq.    1022.72  E(vib)   ...       0.02 
freq.    1032.97  E(vib)   ...       0.02 
freq.    1036.62  E(vib)   ...       0.02 
freq.    1039.62  E(vib)   ...       0.02 
freq.    1043.88  E(vib)   ...       0.02 
freq.    1049.41  E(vib)   ...       0.02 
freq.    1050.65  E(vib)   ...       0.02 
freq.    1062.91  E(vib)   ...       0.02 
freq.    1065.00  E(vib)   ...       0.02 
freq.    1065.41  E(vib)   ...       0.02 
freq.    1069.75  E(vib)   ...       0.02 
freq.    1072.67  E(vib)   ...       0.02 
freq.    1073.82  E(vib)   ...       0.02 
freq.    1080.13  E(vib)   ...       0.02 
freq.    1080.62  E(vib)   ...       0.02 
freq.    1089.73  E(vib)   ...       0.02 
freq.    1093.55  E(vib)   ...       0.02 
freq.    1102.75  E(vib)   ...       0.02 
freq.    1115.18  E(vib)   ...       0.01 
freq.    1119.85  E(vib)   ...       0.01 
freq.    1125.66  E(vib)   ...       0.01 
freq.    1130.85  E(vib)   ...       0.01 
freq.    1139.21  E(vib)   ...       0.01 
freq.    1141.13  E(vib)   ...       0.01 
freq.    1154.04  E(vib)   ...       0.01 
freq.    1156.96  E(vib)   ...       0.01 
freq.    1158.13  E(vib)   ...       0.01 
freq.    1162.81  E(vib)   ...       0.01 
freq.    1163.39  E(vib)   ...       0.01 
freq.    1168.16  E(vib)   ...       0.01 
freq.    1172.07  E(vib)   ...       0.01 
freq.    1176.29  E(vib)   ...       0.01 
freq.    1188.01  E(vib)   ...       0.01 
freq.    1190.78  E(vib)   ...       0.01 
freq.    1194.17  E(vib)   ...       0.01 
freq.    1202.72  E(vib)   ...       0.01 
freq.    1203.51  E(vib)   ...       0.01 
freq.    1210.17  E(vib)   ...       0.01 
freq.    1215.79  E(vib)   ...       0.01 
freq.    1229.37  E(vib)   ...       0.01 
freq.    1230.00  E(vib)   ...       0.01 
freq.    1236.38  E(vib)   ...       0.01 
freq.    1237.38  E(vib)   ...       0.01 
freq.    1240.58  E(vib)   ...       0.01 
freq.    1243.70  E(vib)   ...       0.01 
freq.    1247.13  E(vib)   ...       0.01 
freq.    1254.99  E(vib)   ...       0.01 
freq.    1267.25  E(vib)   ...       0.01 
freq.    1271.50  E(vib)   ...       0.01 
freq.    1274.13  E(vib)   ...       0.01 
freq.    1274.62  E(vib)   ...       0.01 
freq.    1282.62  E(vib)   ...       0.01 
freq.    1283.50  E(vib)   ...       0.01 
freq.    1285.64  E(vib)   ...       0.01 
freq.    1287.89  E(vib)   ...       0.01 
freq.    1289.45  E(vib)   ...       0.01 
freq.    1291.86  E(vib)   ...       0.01 
freq.    1294.27  E(vib)   ...       0.01 
freq.    1295.88  E(vib)   ...       0.01 
freq.    1299.59  E(vib)   ...       0.01 
freq.    1301.36  E(vib)   ...       0.01 
freq.    1303.96  E(vib)   ...       0.01 
freq.    1307.31  E(vib)   ...       0.01 
freq.    1308.25  E(vib)   ...       0.01 
freq.    1309.77  E(vib)   ...       0.01 
freq.    1319.83  E(vib)   ...       0.01 
freq.    1320.71  E(vib)   ...       0.01 
freq.    1329.25  E(vib)   ...       0.01 
freq.    1332.11  E(vib)   ...       0.01 
freq.    1336.82  E(vib)   ...       0.01 
freq.    1337.42  E(vib)   ...       0.01 
freq.    1340.84  E(vib)   ...       0.01 
freq.    1346.54  E(vib)   ...       0.01 
freq.    1348.11  E(vib)   ...       0.01 
freq.    1348.38  E(vib)   ...       0.01 
freq.    1349.87  E(vib)   ...       0.01 
freq.    1350.33  E(vib)   ...       0.01 
freq.    1351.41  E(vib)   ...       0.01 
freq.    1352.54  E(vib)   ...       0.01 
freq.    1358.13  E(vib)   ...       0.01 
freq.    1363.59  E(vib)   ...       0.01 
freq.    1367.71  E(vib)   ...       0.01 
freq.    1369.05  E(vib)   ...       0.01 
freq.    1371.22  E(vib)   ...       0.01 
freq.    1388.01  E(vib)   ...       0.00 
freq.    1391.82  E(vib)   ...       0.00 
freq.    1393.03  E(vib)   ...       0.00 
freq.    1419.91  E(vib)   ...       0.00 
freq.    1426.78  E(vib)   ...       0.00 
freq.    1431.10  E(vib)   ...       0.00 
freq.    1433.30  E(vib)   ...       0.00 
freq.    1433.69  E(vib)   ...       0.00 
freq.    1434.00  E(vib)   ...       0.00 
freq.    1436.68  E(vib)   ...       0.00 
freq.    1437.14  E(vib)   ...       0.00 
freq.    1438.29  E(vib)   ...       0.00 
freq.    1439.30  E(vib)   ...       0.00 
freq.    1442.04  E(vib)   ...       0.00 
freq.    1444.16  E(vib)   ...       0.00 
freq.    1445.03  E(vib)   ...       0.00 
freq.    1445.78  E(vib)   ...       0.00 
freq.    1449.11  E(vib)   ...       0.00 
freq.    1450.93  E(vib)   ...       0.00 
freq.    1450.95  E(vib)   ...       0.00 
freq.    1453.26  E(vib)   ...       0.00 
freq.    1453.99  E(vib)   ...       0.00 
freq.    1454.74  E(vib)   ...       0.00 
freq.    1455.31  E(vib)   ...       0.00 
freq.    1456.32  E(vib)   ...       0.00 
freq.    1458.87  E(vib)   ...       0.00 
freq.    1459.25  E(vib)   ...       0.00 
freq.    1460.28  E(vib)   ...       0.00 
freq.    1463.45  E(vib)   ...       0.00 
freq.    1464.86  E(vib)   ...       0.00 
freq.    1466.10  E(vib)   ...       0.00 
freq.    1468.98  E(vib)   ...       0.00 
freq.    1475.79  E(vib)   ...       0.00 
freq.    1484.37  E(vib)   ...       0.00 
freq.    1502.10  E(vib)   ...       0.00 
freq.    1644.54  E(vib)   ...       0.00 
freq.    1657.14  E(vib)   ...       0.00 
freq.    1660.40  E(vib)   ...       0.00 
freq.    1672.66  E(vib)   ...       0.00 
freq.    1675.66  E(vib)   ...       0.00 
freq.    1700.99  E(vib)   ...       0.00 
freq.    1733.79  E(vib)   ...       0.00 
freq.    2920.79  E(vib)   ...       0.00 
freq.    2923.10  E(vib)   ...       0.00 
freq.    2924.15  E(vib)   ...       0.00 
freq.    2924.95  E(vib)   ...       0.00 
freq.    2925.80  E(vib)   ...       0.00 
freq.    2932.27  E(vib)   ...       0.00 
freq.    2939.73  E(vib)   ...       0.00 
freq.    2939.84  E(vib)   ...       0.00 
freq.    2941.93  E(vib)   ...       0.00 
freq.    2944.53  E(vib)   ...       0.00 
freq.    2945.31  E(vib)   ...       0.00 
freq.    2945.90  E(vib)   ...       0.00 
freq.    2948.75  E(vib)   ...       0.00 
freq.    2952.35  E(vib)   ...       0.00 
freq.    2952.85  E(vib)   ...       0.00 
freq.    2953.79  E(vib)   ...       0.00 
freq.    2956.40  E(vib)   ...       0.00 
freq.    2957.12  E(vib)   ...       0.00 
freq.    2958.78  E(vib)   ...       0.00 
freq.    2961.63  E(vib)   ...       0.00 
freq.    2962.97  E(vib)   ...       0.00 
freq.    2964.42  E(vib)   ...       0.00 
freq.    2966.00  E(vib)   ...       0.00 
freq.    2967.76  E(vib)   ...       0.00 
freq.    2968.43  E(vib)   ...       0.00 
freq.    2971.11  E(vib)   ...       0.00 
freq.    2976.58  E(vib)   ...       0.00 
freq.    2978.84  E(vib)   ...       0.00 
freq.    2981.90  E(vib)   ...       0.00 
freq.    2983.95  E(vib)   ...       0.00 
freq.    2984.60  E(vib)   ...       0.00 
freq.    2987.79  E(vib)   ...       0.00 
freq.    2988.72  E(vib)   ...       0.00 
freq.    2991.94  E(vib)   ...       0.00 
freq.    2993.51  E(vib)   ...       0.00 
freq.    2998.10  E(vib)   ...       0.00 
freq.    3005.17  E(vib)   ...       0.00 
freq.    3007.55  E(vib)   ...       0.00 
freq.    3009.86  E(vib)   ...       0.00 
freq.    3013.18  E(vib)   ...       0.00 
freq.    3017.48  E(vib)   ...       0.00 
freq.    3019.72  E(vib)   ...       0.00 
freq.    3021.30  E(vib)   ...       0.00 
freq.    3026.60  E(vib)   ...       0.00 
freq.    3027.13  E(vib)   ...       0.00 
freq.    3027.88  E(vib)   ...       0.00 
freq.    3028.18  E(vib)   ...       0.00 
freq.    3031.59  E(vib)   ...       0.00 
freq.    3038.85  E(vib)   ...       0.00 
freq.    3040.24  E(vib)   ...       0.00 
freq.    3040.77  E(vib)   ...       0.00 
freq.    3045.19  E(vib)   ...       0.00 
freq.    3047.40  E(vib)   ...       0.00 
freq.    3055.60  E(vib)   ...       0.00 
freq.    3057.41  E(vib)   ...       0.00 
freq.    3058.11  E(vib)   ...       0.00 
freq.    3068.74  E(vib)   ...       0.00 
freq.    3087.89  E(vib)   ...       0.00 
freq.    3416.85  E(vib)   ...       0.00 
freq.    3430.50  E(vib)   ...       0.00 
freq.    3458.66  E(vib)   ...       0.00 
freq.    3506.52  E(vib)   ...       0.00 
freq.    3528.93  E(vib)   ...       0.00 
freq.    3685.30  E(vib)   ...       0.00 

------------
INNER ENERGY
------------

The inner energy is: U= E(el) + E(ZPE) + E(vib) + E(rot) + E(trans)
    E(el)   - is the total energy from the electronic structure calculation
              = E(kin-el) + E(nuc-el) + E(el-el) + E(nuc-nuc)
    E(ZPE)  - the the zero temperature vibrational energy from the frequency calculation
    E(vib)  - the the finite temperature correction to E(ZPE) due to population
              of excited vibrational states
    E(rot)  - is the rotational thermal energy
    E(trans)- is the translational thermal energy

Summary of contributions to the inner energy U:
Electronic energy                ...  -2380.06273156 Eh
Zero point energy                ...      0.97488459 Eh     611.75 kcal/mol
Thermal vibrational correction   ...      0.05705087 Eh      35.80 kcal/mol
Thermal rotational correction    ...      0.00141627 Eh       0.89 kcal/mol
Thermal translational correction ...      0.00141627 Eh       0.89 kcal/mol
-----------------------------------------------------------------------
Total thermal energy                  -2379.02796355 Eh


Summary of corrections to the electronic energy:
(perhaps to be used in another calculation)
Total thermal correction                  0.05988342 Eh      37.58 kcal/mol
Non-thermal (ZPE) correction              0.97488459 Eh     611.75 kcal/mol
-----------------------------------------------------------------------
Total correction                          1.03476801 Eh     649.33 kcal/mol


--------
ENTHALPY
--------

The enthalpy is H = U + kB*T
                kB is Boltzmann's constant
Total free energy                 ...  -2379.02796355 Eh 
Thermal Enthalpy correction       ...      0.00094421 Eh       0.59 kcal/mol
-----------------------------------------------------------------------
Total Enthalpy                    ...  -2379.02701934 Eh


Note: Only C1 symmetry has been detected, increase convergence thresholds 
      if your molecule has a higher symmetry. Symmetry factor of 1.0 is   
      used for the rotational entropy correction. 
 

Note: Rotational entropy computed according to Herzberg 
Infrared and Raman Spectra, Chapter V,1, Van Nostrand Reinhold, 1945 
Point Group:  C1, Symmetry Number:   1  
Rotational constants in cm-1:     0.003504     0.000630     0.000566 

Vibrational entropy computed according to the QRRHO of S. Grimme
Chem.Eur.J. 2012 18 9955


-------
ENTROPY
-------

The entropy contributions are T*S = T*(S(el)+S(vib)+S(rot)+S(trans))
     S(el)   - electronic entropy
     S(vib)  - vibrational entropy
     S(rot)  - rotational entropy
     S(trans)- translational entropy
The entropies will be listed as mutliplied by the temperature to get
units of energy

Electronic entropy                ...      0.00000000 Eh      0.00 kcal/mol
Vibrational entropy               ...      0.10652665 Eh     66.85 kcal/mol
Rotational entropy                ...      0.01918930 Eh     12.04 kcal/mol
Translational entropy             ...      0.02166895 Eh     13.60 kcal/mol
-----------------------------------------------------------------------
Final entropy term                ...      0.14738489 Eh     92.49 kcal/mol

In case the symmetry of your molecule has not been determined correctly
or in case you have a reason to use a different symmetry number we print 
out the resulting rotational entropy values for sn=1,12 :
 --------------------------------------------------------
|  sn= 1 | S(rot)=       0.01918930 Eh     12.04 kcal/mol|
|  sn= 2 | S(rot)=       0.01853484 Eh     11.63 kcal/mol|
|  sn= 3 | S(rot)=       0.01815201 Eh     11.39 kcal/mol|
|  sn= 4 | S(rot)=       0.01788038 Eh     11.22 kcal/mol|
|  sn= 5 | S(rot)=       0.01766970 Eh     11.09 kcal/mol|
|  sn= 6 | S(rot)=       0.01749755 Eh     10.98 kcal/mol|
|  sn= 7 | S(rot)=       0.01735201 Eh     10.89 kcal/mol|
|  sn= 8 | S(rot)=       0.01722593 Eh     10.81 kcal/mol|
|  sn= 9 | S(rot)=       0.01711472 Eh     10.74 kcal/mol|
|  sn=10 | S(rot)=       0.01701524 Eh     10.68 kcal/mol|
|  sn=11 | S(rot)=       0.01692525 Eh     10.62 kcal/mol|
|  sn=12 | S(rot)=       0.01684310 Eh     10.57 kcal/mol|
 --------------------------------------------------------


-------------------
GIBBS FREE ENERGY
-------------------

The Gibbs free energy is G = H - T*S

Total enthalpy                    ...  -2379.02701934 Eh 
Total entropy correction          ...     -0.14738489 Eh    -92.49 kcal/mol
-----------------------------------------------------------------------
Final Gibbs free energy         ...  -2379.17440424 Eh

For completeness - the Gibbs free energy minus the electronic energy
G-E(el)                           ...      0.88832732 Eh    557.43 kcal/mol

--------------------------------------------------------------------------
WARNING: No preset parameters were found for the device that Open MPI
detected:

  Local host:            eu-g1-012-1
  Device name:           mlx5_0
  Device vendor ID:      0x02c9
  Device vendor part ID: 4123

Default device parameters will be used, which may result in lower
performance.  You can edit any of the files specified by the
btl_openib_device_param_files MCA parameter to set values for your
device.

NOTE: You can turn off this warning by setting the MCA parameter
      btl_openib_warn_no_device_params_found to 0.
--------------------------------------------------------------------------
--------------------------------------------------------------------------
WARNING: There was an error initializing an OpenFabrics device.

  Local host:   eu-g1-012-1
  Local device: mlx5_0
--------------------------------------------------------------------------

Timings for individual modules:

Sum of individual times         ...    21973.261 sec (= 366.221 min)
GTO integral calculation        ...       14.603 sec (=   0.243 min)   0.1 %
SCF iterations                  ...      348.109 sec (=   5.802 min)   1.6 %
SCF Gradient evaluation         ...       68.490 sec (=   1.142 min)   0.3 %
Geometry relaxation             ...        4.272 sec (=   0.071 min)   0.0 %
Analytical frequency calculation...    21537.787 sec (= 358.963 min)  98.0 %
                             ****ORCA TERMINATED NORMALLY****
TOTAL RUN TIME: 0 days 6 hours 6 minutes 31 seconds 978 msec
