
                                 *****************
                                 * O   R   C   A *
                                 *****************

           --- An Ab Initio, DFT and Semiempirical electronic structure package ---

                  #######################################################
                  #                        -***-                        #
                  #          Department of theory and spectroscopy      #
                  #               Directorship: Frank Neese             #
                  #        Max Planck Institute fuer Kohlenforschung    #
                  #                Kaiser Wilhelm Platz 1               #
                  #                 D-45470 Muelheim/Ruhr               #
                  #                      Germany                        #
                  #                                                     #
                  #                  All rights reserved                #
                  #                        -***-                        #
                  #######################################################


                         Program Version 4.2.0 -  RELEASE  -


 With contributions from (in alphabetic order):
   Daniel Aravena         : Magnetic Suceptibility
   Michael Atanasov       : Ab Initio Ligand Field Theory (pilot matlab implementation)
   Alexander A. Auer      : GIAO ZORA, VPT2
   Ute Becker             : Parallelization
   Giovanni Bistoni       : ED, misc. LED, open-shell LED, HFLED
   Martin Brehm           : Molecular dynamics
   Dmytro Bykov           : SCF Hessian
   Vijay G. Chilkuri      : MRCI spin determinant printing, contributions to CSF-ICE
   Dipayan Datta          : RHF DLPNO-CCSD density
   Achintya Kumar Dutta   : EOM-CC, STEOM-CC
   Dmitry Ganyushin       : Spin-Orbit,Spin-Spin,Magnetic field MRCI
   Miquel Garcia          : C-PCM Hessian, Gaussian charge scheme
   Yang Guo               : DLPNO-NEVPT2, CIM, IAO-localization
   Andreas Hansen         : Spin unrestricted coupled pair/coupled cluster methods
   Benjamin Helmich-Paris : CASSCF linear response (MC-RPA)
   Lee Huntington         : MR-EOM, pCC
   Robert Izsak           : Overlap fitted RIJCOSX, COSX-SCS-MP3, EOM
   Christian Kollmar      : KDIIS, OOCD, Brueckner-CCSD(T), CCSD density
   Simone Kossmann        : Meta GGA functionals, TD-DFT gradient, OOMP2, MP2 Hessian
   Martin Krupicka        : AUTO-CI
   Lucas Lang             : DCDCAS
   Dagmar Lenk            : GEPOL surface, SMD
   Dimitrios Liakos       : Extrapolation schemes; Compound Job, initial MDCI parallelization
   Dimitrios Manganas     : Further ROCIS development; embedding schemes
   Dimitrios Pantazis     : SARC Basis sets
   Taras Petrenko         : DFT Hessian,TD-DFT gradient, ASA, ECA, R-Raman, ABS, FL, XAS/XES, NRVS
   Peter Pinski           : DLPNO-MP2, DLPNO-MP2 Gradient
   Christoph Reimann      : Effective Core Potentials
   Marius Retegan         : Local ZFS, SOC
   Christoph Riplinger    : Optimizer, TS searches, QM/MM, DLPNO-CCSD(T), (RO)-DLPNO pert. Triples
   Tobias Risthaus        : Range-separated hybrids, TD-DFT gradient, RPA, STAB
   Michael Roemelt        : Original ROCIS implementation
   Masaaki Saitow         : Open-shell DLPNO-CCSD energy and density
   Barbara Sandhoefer     : DKH picture change effects
   Avijit Sen             : IP-ROCIS
   Kantharuban Sivalingam : CASSCF convergence, NEVPT2, FIC-MRCI
   Bernardo de Souza      : ESD, SOC TD-DFT
   Georgi Stoychev        : AutoAux, RI-MP2 NMR
   Willem Van den Heuvel  : Paramagnetic NMR
   Boris Wezisla          : Elementary symmetry handling
   Frank Wennmohs         : Technical directorship


 We gratefully acknowledge several colleagues who have allowed us to
 interface, adapt or use parts of their codes:
   Stefan Grimme, W. Hujo, H. Kruse,             : VdW corrections, initial TS optimization,
                  C. Bannwarth                     DFT functionals, gCP, sTDA/sTD-DF
   Ed Valeev, F. Pavosevic, A. Kumar             : LibInt (2-el integral package), F12 methods
   Garnet Chan, S. Sharma, J. Yang, R. Olivares  : DMRG
   Ulf Ekstrom                                   : XCFun DFT Library
   Mihaly Kallay                                 : mrcc  (arbitrary order and MRCC methods)
   Andreas Klamt, Michael Diedenhofen            : otool_cosmo (COSMO solvation model)
   Jiri Pittner, Ondrej Demel                    : Mk-CCSD
   Frank Weinhold                                : gennbo (NPA and NBO analysis)
   Christopher J. Cramer and Donald G. Truhlar   : smd solvation model
   Lars Goerigk                                  : TD-DFT with DH, B97 family of functionals
   V. Asgeirsson, H. Jonsson                     : NEB implementation
   FAccTs GmbH                                   : IRC, NEB, NEB-TS, Multilevel, MM, QM/MM, CI optimization
   S Lehtola, MJT Oliveira, MAL Marques          : LibXC Library


 Your calculation uses the libint2 library for the computation of 2-el integrals
 For citations please refer to: http://libint.valeyev.net

 Your ORCA version has been built with support for libXC version: 4.2.3
 For citations please refer to: https://tddft.org/programs/libxc/

 This ORCA versions uses:
   CBLAS   interface :  Fast vector & matrix operations
   LAPACKE interface :  Fast linear algebra routines
   SCALAPACK package :  Parallel linear algebra routines




***************************************
The coordinates will be read from file: 38.xyz
***************************************


Your calculation utilizes the atom-pairwise dispersion correction
with the Becke-Johnson damping scheme (D3BJ)
Cite in your paper:
S.Grimme, S.Ehrlich, L.Goerigk, J Comput Chem, (2011), 32, 1456–1465 
S.Grimme, J.Antony, S.Ehrlich and H.Krieg, J.Chem.Phys., 132, (2010), 154104 
   

----- Orbital basis set information -----
Your calculation utilizes the basis: def2-TZVP
   F. Weigend and R. Ahlrichs, Phys. Chem. Chem. Phys. 7, 3297 (2005).

----- AuxJ basis set information -----
Your calculation utilizes the auxiliary basis: def2/J
   F. Weigend, Phys. Chem. Chem. Phys. 8, 1057 (2006).

================================================================================
                                        WARNINGS
                       Please study these warnings very carefully!
================================================================================


WARNING: Geometry Optimization
  ===> : Switching off AutoStart
         For restart on a previous wavefunction, please use MOREAD

INFO   : the flag for use of LIBINT has been found!

================================================================================
                                       INPUT FILE
================================================================================
NAME = 38.inp
|  1> !RI BP86 def2-tzvp def2/J D3BJ VeryTightSCF VeryTightOpt Grid5 FinalGrid6 freq
|  2> %maxcore 4000
|  3> %pal nprocs 24
|  4> end
|  5> * xyzfile 0 1 38.xyz 
|  6> 
|  7>                          ****END OF INPUT****
================================================================================

                       *****************************
                       * Geometry Optimization Run *
                       *****************************

Geometry optimization settings:
Update method            Update   .... BFGS
Choice of coordinates    CoordSys .... Z-matrix Internals
Initial Hessian          InHess   .... Almoef's Model

Convergence Tolerances:
Energy Change            TolE     ....  2.0000e-07 Eh
Max. Gradient            TolMAXG  ....  3.0000e-05 Eh/bohr
RMS Gradient             TolRMSG  ....  8.0000e-06 Eh/bohr
Max. Displacement        TolMAXD  ....  2.0000e-04 bohr
RMS Displacement         TolRMSD  ....  1.0000e-04 bohr
Strict Convergence                ....  False
------------------------------------------------------------------------------
                        ORCA OPTIMIZATION COORDINATE SETUP
------------------------------------------------------------------------------

The optimization will be done in new redundant internal coordinates
Making redundant internal coordinates   ...  (new redundants) done
Evaluating the initial hessian          ...  (Almloef) done
Evaluating the coordinates              ...  done
Calculating the B-matrix                .... done
Calculating the G-matrix                .... done
Diagonalizing the G-matrix              .... done
Small eigenvalue found = 3.370e-04
Small eigenvalue found = 4.321e-04
Small eigenvalue found = 2.533e-03
Small eigenvalue found = 3.436e-03
Small eigenvalue found = 4.863e-03
Small eigenvalue found = 5.472e-03
Small eigenvalue found = 7.637e-03
Small eigenvalue found = 8.140e-03
Small eigenvalue found = 8.424e-03
Small eigenvalue found = 9.731e-03
Small eigenvalue found = 1.030e-02
Small eigenvalue found = 1.167e-02
Small eigenvalue found = 1.364e-02
Small eigenvalue found = 1.521e-02
Small eigenvalue found = 1.763e-02
Small eigenvalue found = 1.999e-02
Small eigenvalue found = 2.257e-02
Small eigenvalue found = 2.493e-02
Small eigenvalue found = 2.613e-02
Small eigenvalue found = 2.861e-02
The first mode is                       ....  325
The number of degrees of freedom        ....  339

    -----------------------------------------------------------------
                    Redundant Internal Coordinates


    -----------------------------------------------------------------
         Definition                    Initial Value    Approx d2E/dq
    -----------------------------------------------------------------
      1. B(C   1,O   0)                  1.2268         1.019176   
      2. B(C   2,C   1)                  1.5336         0.368716   
      3. B(C   3,C   2)                  1.5442         0.354620   
      4. B(C   4,C   3)                  1.5356         0.365991   
      5. B(C   5,C   4)                  1.5315         0.371556   
      6. B(N   6,C   5)                  1.4744         0.410396   
      7. B(N   6,C   2)                  1.4752         0.409264   
      8. B(C   7,N   6)                  1.3616         0.621219   
      9. B(O   8,C   7)                  1.2405         0.969073   
     10. B(N   9,C   1)                  1.3646         0.614222   
     11. B(C  10,N   9)                  1.4543         0.441911   
     12. B(C  11,C  10)                  1.5430         0.356163   
     13. B(N  12,C  11)                  1.3651         0.613111   
     14. B(C  13,N  12)                  1.4633         0.427461   
     15. B(C  14,C  13)                  1.5269         0.377817   
     16. B(N  15,C  14)                  1.3512         0.645385   
     17. B(C  16,N  15)                  1.4627         0.428500   
     18. B(C  17,C  16)                  1.5408         0.358982   
     19. B(C  18,C  17)                  1.5435         0.355445   
     20. B(C  19,C  18)                  1.5345         0.367492   
     21. B(N  20,C  19)                  1.3620         0.620258   
     22. B(C  21,N  20)                  1.4564         0.438468   
     23. B(C  22,C  21)                  1.5415         0.358175   
     24. B(N  23,C  22)                  1.3606         0.623434   
     25. B(C  24,N  23)                  1.4482         0.451869   
     26. B(C  24,C   7)                  1.5276         0.376841   
     27. B(C  25,C  24)                  1.5427         0.356493   
     28. B(O  26,C  22)                  1.2333         0.994974   
     29. B(C  27,C  21)                  1.5413         0.358396   
     30. B(C  28,C  27)                  1.5356         0.365924   
     31. B(C  29,C  28)                  1.5323         0.370413   
     32. B(C  30,C  28)                  1.5332         0.369235   
     33. B(O  31,C  19)                  1.2337         0.993535   
     34. B(C  32,C  18)                  1.5507         0.346176   
     35. B(C  33,C  32)                  1.5210         0.386139   
     36. B(C  34,C  33)                  1.5405         0.359456   
     37. B(C  35,C  34)                  1.5277         0.376768   
     38. B(C  36,C  35)                  1.5299         0.373705   
     39. B(C  37,C  36)                  1.5304         0.373086   
     40. B(C  38,C  37)                  1.5302         0.373369   
     41. B(C  39,C  38)                  1.5302         0.373297   
     42. B(C  40,C  39)                  1.5310         0.372261   
     43. B(C  41,C  40)                  1.5299         0.373734   
     44. B(O  42,C  32)                  1.2172         1.055869   
     45. B(O  43,C  17)                  1.4315         0.480498   
     46. B(O  44,C  14)                  1.2429         0.960626   
     47. B(C  45,C  13)                  1.5400         0.360144   
     48. B(C  46,C  45)                  1.5264         0.378585   
     49. B(O  47,C  11)                  1.2285         1.012941   
     50. B(C  48,C  10)                  1.5499         0.347209   
     51. B(C  49,C  48)                  1.5342         0.367796   
     52. B(C  50,C  48)                  1.5313         0.371761   
     53. B(H  51,C   2)                  1.0981         0.349536   
     54. B(H  52,C   3)                  1.0995         0.347793   
     55. B(H  53,C   3)                  1.0961         0.352105   
     56. B(H  54,C   4)                  1.1001         0.346930   
     57. B(H  55,C   4)                  1.0969         0.351102   
     58. B(H  56,C   5)                  1.0981         0.349595   
     59. B(H  57,C   5)                  1.1022         0.344283   
     60. B(H  58,N   9)                  1.0157         0.423759   
     61. B(H  59,C  10)                  1.0986         0.348931   
     62. B(H  60,N  12)                  1.0186         0.419257   
     63. B(H  61,C  13)                  1.1025         0.343940   
     64. B(H  62,N  15)                  1.0149         0.424985   
     65. B(H  63,C  16)                  1.0972         0.350738   
     66. B(H  64,H  51)                  4.7425         0.000000   
     67. B(H  64,C  16)                  1.0994         0.347927   
     68. B(H  65,C  17)                  1.1042         0.341848   
     69. B(H  66,C  18)                  1.0994         0.347899   
     70. B(H  67,N  20)                  1.0250         0.409484   
     71. B(H  68,C  21)                  1.0971         0.350857   
     72. B(H  69,O  44)                  2.1923         0.005623   
     73. B(H  69,N  23)                  1.0217         0.414475   
     74. B(H  70,C  24)                  1.1026         0.343815   
     75. B(H  71,C  25)                  1.0959         0.352375   
     76. B(H  72,C  25)                  1.0977         0.350033   
     77. B(H  73,C  25)                  1.0974         0.350385   
     78. B(H  74,C  27)                  1.1028         0.343502   
     79. B(H  75,C  27)                  1.1035         0.342732   
     80. B(H  76,C  28)                  1.1029         0.343412   
     81. B(H  77,C  29)                  1.0976         0.350168   
     82. B(H  78,C  29)                  1.1022         0.344379   
     83. B(H  79,C  29)                  1.0998         0.347410   
     84. B(H  80,C  30)                  1.1006         0.346400   
     85. B(H  81,C  30)                  1.0997         0.347524   
     86. B(H  82,C  30)                  1.1019         0.344750   
     87. B(H  83,C  33)                  1.1025         0.343994   
     88. B(H  84,C  33)                  1.1006         0.346380   
     89. B(H  85,C  34)                  1.1001         0.347028   
     90. B(H  86,C  34)                  1.1011         0.345755   
     91. B(H  87,C  35)                  1.1053         0.340399   
     92. B(H  88,H  73)                  2.3954         0.000570   
     93. B(H  88,C  35)                  1.1029         0.343479   
     94. B(H  89,C  36)                  1.1035         0.342623   
     95. B(H  90,C  36)                  1.1040         0.342105   
     96. B(H  91,C  37)                  1.1048         0.341059   
     97. B(H  92,C  37)                  1.1044         0.341498   
     98. B(H  93,C  38)                  1.1041         0.341884   
     99. B(H  94,C  38)                  1.1043         0.341648   
    100. B(H  95,C  39)                  1.1048         0.341059   
    101. B(H  96,C  39)                  1.1047         0.341227   
    102. B(H  97,C  40)                  1.1033         0.342922   
    103. B(H  98,C  40)                  1.1034         0.342819   
    104. B(H  99,C  41)                  1.0995         0.347777   
    105. B(H 100,C  41)                  1.1008         0.346087   
    106. B(H 101,C  41)                  1.1009         0.346029   
    107. B(H 102,O  43)                  0.9734         0.494923   
    108. B(H 103,C  45)                  1.1033         0.342876   
    109. B(H 104,H  80)                  4.1943         0.000001   
    110. B(H 104,C  45)                  1.1000         0.347174   
    111. B(H 105,C  46)                  1.0991         0.348203   
    112. B(H 106,C  46)                  1.0976         0.350167   
    113. B(H 107,C  46)                  1.0979         0.349763   
    114. B(H 108,C  48)                  1.1045         0.341435   
    115. B(H 109,C  49)                  1.1018         0.344800   
    116. B(H 110,C  49)                  1.0989         0.348569   
    117. B(H 111,C  49)                  1.0988         0.348680   
    118. B(H 112,C  50)                  1.0985         0.349084   
    119. B(H 113,C  50)                  1.0992         0.348172   
    120. B(H 114,C  50)                  1.0982         0.349370   
    121. A(O   0,C   1,N   9)          123.4381         0.468020   
    122. A(C   2,C   1,N   9)          116.4363         0.392605   
    123. A(O   0,C   1,C   2)          120.0529         0.429476   
    124. A(C   1,C   2,H  51)          104.6955         0.322047   
    125. A(N   6,C   2,H  51)          109.5924         0.325652   
    126. A(C   1,C   2,N   6)          115.2842         0.365950   
    127. A(C   1,C   2,C   3)          111.9179         0.359335   
    128. A(C   3,C   2,H  51)          112.3086         0.320000   
    129. A(C   3,C   2,N   6)          103.2586         0.363517   
    130. A(C   4,C   3,H  53)          113.8371         0.322042   
    131. A(C   4,C   3,H  52)          110.2424         0.321393   
    132. A(C   2,C   3,C   4)          103.8265         0.358881   
    133. A(C   2,C   3,H  53)          111.5849         0.320383   
    134. A(C   2,C   3,H  52)          109.4400         0.319739   
    135. A(H  52,C   3,H  53)          107.8485         0.288242   
    136. A(H  54,C   4,H  55)          107.9225         0.288001   
    137. A(C   3,C   4,H  55)          113.1930         0.321891   
    138. A(C   3,C   4,C   5)          102.9248         0.361746   
    139. A(C   3,C   4,H  54)          110.3927         0.321262   
    140. A(C   5,C   4,H  55)          112.1695         0.322688   
    141. A(C   5,C   4,H  54)          110.2060         0.322057   
    142. A(H  56,C   5,H  57)          107.9966         0.287463   
    143. A(C   4,C   5,N   6)          102.6332         0.366605   
    144. A(C   4,C   5,H  56)          113.5183         0.322461   
    145. A(N   6,C   5,H  57)          110.9604         0.324990   
    146. A(N   6,C   5,H  56)          110.9460         0.325809   
    147. A(C   4,C   5,H  57)          110.7704         0.321653   
    148. A(C   5,N   6,C   7)          127.7293         0.398287   
    149. A(C   2,N   6,C   7)          119.0144         0.398094   
    150. A(C   2,N   6,C   5)          112.4535         0.370410   
    151. A(O   8,C   7,C  24)          121.2031         0.427278   
    152. A(N   6,C   7,O   8)          120.7943         0.464682   
    153. A(N   6,C   7,C  24)          117.8942         0.394890   
    154. A(C   1,N   9,C  10)          121.3265         0.402704   
    155. A(C  10,N   9,H  58)          119.9794         0.337595   
    156. A(C   1,N   9,H  58)          118.4369         0.356828   
    157. A(C  48,C  10,H  59)          109.1247         0.318808   
    158. A(C  11,C  10,H  59)          104.4867         0.320136   
    159. A(N   9,C  10,C  11)          113.2407         0.368602   
    160. A(N   9,C  10,C  48)          110.2786         0.366995   
    161. A(N   9,C  10,H  59)          107.0637         0.329704   
    162. A(C  11,C  10,C  48)          112.2865         0.355945   
    163. A(N  12,C  11,O  47)          123.5569         0.467339   
    164. A(C  10,C  11,O  47)          121.1272         0.426348   
    165. A(C  10,C  11,N  12)          115.2236         0.390111   
    166. A(C  13,N  12,H  60)          116.9896         0.335135   
    167. A(C  11,N  12,C  13)          122.2230         0.400225   
    168. A(C  11,N  12,H  60)          118.4144         0.356072   
    169. A(C  14,C  13,C  45)          108.7645         0.361784   
    170. A(N  12,C  13,H  61)          107.3366         0.327122   
    171. A(C  14,C  13,H  61)          111.6681         0.322482   
    172. A(N  12,C  13,C  14)          105.7965         0.370238   
    173. A(C  45,C  13,H  61)          109.6932         0.319964   
    174. A(N  12,C  13,C  45)          113.5687         0.367205   
    175. A(C  13,C  14,N  15)          118.0921         0.397724   
    176. A(N  15,C  14,O  44)          122.0214         0.467191   
    177. A(C  13,C  14,O  44)          119.8809         0.426806   
    178. A(C  14,N  15,H  62)          118.3793         0.360022   
    179. A(C  16,N  15,H  62)          119.9706         0.336028   
    180. A(C  14,N  15,C  16)          119.6589         0.404033   
    181. A(H  63,C  16,H  64)          108.2899         0.288084   
    182. A(C  17,C  16,H  64)          111.6654         0.320398   
    183. A(N  15,C  16,H  63)          108.5473         0.328311   
    184. A(C  17,C  16,H  63)          108.6316         0.320820   
    185. A(N  15,C  16,C  17)          111.8615         0.367154   
    186. A(N  15,C  16,H  64)          107.7408         0.327875   
    187. A(O  43,C  17,H  65)          108.6986         0.333173   
    188. A(C  18,C  17,H  65)          107.6346         0.318961   
    189. A(C  16,C  17,H  65)          108.5274         0.319477   
    190. A(C  16,C  17,C  18)          113.1455         0.357844   
    191. A(C  18,C  17,O  43)          107.8289         0.373820   
    192. A(C  16,C  17,O  43)          110.8756         0.374459   
    193. A(C  19,C  18,H  66)          106.5174         0.321624   
    194. A(C  17,C  18,H  66)          106.2915         0.319876   
    195. A(C  17,C  18,C  32)          110.9771         0.355643   
    196. A(C  17,C  18,C  19)          116.7853         0.359274   
    197. A(C  19,C  18,C  32)          109.7758         0.357662   
    198. A(C  32,C  18,H  66)          105.7603         0.318499   
    199. A(C  18,C  19,N  20)          117.8348         0.393049   
    200. A(N  20,C  19,O  31)          123.2017         0.466675   
    201. A(C  18,C  19,O  31)          118.9541         0.427263   
    202. A(C  19,N  20,H  67)          120.9108         0.355348   
    203. A(C  19,N  20,C  21)          122.5228         0.402843   
    204. A(C  21,N  20,H  67)          116.1358         0.335238   
    205. A(C  27,C  21,H  68)          111.0925         0.320752   
    206. A(C  22,C  21,H  68)          105.5609         0.320720   
    207. A(N  20,C  21,H  68)          107.0456         0.329578   
    208. A(N  20,C  21,C  22)          112.6057         0.368463   
    209. A(C  22,C  21,C  27)          111.1243         0.358211   
    210. A(N  20,C  21,C  27)          109.3023         0.368502   
    211. A(C  21,C  22,N  23)          115.6212         0.391637   
    212. A(C  21,C  22,O  26)          121.6101         0.425413   
    213. A(N  23,C  22,O  26)          122.7524         0.467236   
    214. A(C  22,N  23,C  24)          122.3727         0.405355   
    215. A(C  24,N  23,H  69)          116.1420         0.337602   
    216. A(C  22,N  23,H  69)          121.4754         0.356388   
    217. A(C  25,C  24,H  70)          108.8290         0.319413   
    218. A(N  23,C  24,H  70)          109.3681         0.330114   
    219. A(C   7,C  24,H  70)          111.2636         0.322326   
    220. A(N  23,C  24,C  25)          111.3480         0.370075   
    221. A(C   7,C  24,N  23)          107.3167         0.373628   
    222. A(C   7,C  24,C  25)          108.7237         0.360996   
    223. A(H  71,C  25,H  73)          109.2545         0.288612   
    224. A(C  24,C  25,H  73)          109.7778         0.320402   
    225. A(H  71,C  25,H  72)          108.5589         0.288566   
    226. A(C  24,C  25,H  72)          111.8483         0.320350   
    227. A(C  24,C  25,H  71)          108.5968         0.320699   
    228. A(H  72,C  25,H  73)          108.7645         0.288311   
    229. A(C  28,C  27,H  75)          109.1276         0.320613   
    230. A(C  21,C  27,C  28)          116.1593         0.359518   
    231. A(H  74,C  27,H  75)          106.6263         0.286473   
    232. A(C  21,C  27,H  75)          106.9407         0.319526   
    233. A(C  28,C  27,H  74)          109.4087         0.320731   
    234. A(C  21,C  27,H  74)          108.1541         0.319643   
    235. A(C  29,C  28,C  30)          111.1303         0.362101   
    236. A(C  27,C  28,C  30)          109.3562         0.361348   
    237. A(C  27,C  28,C  29)          112.1015         0.361545   
    238. A(C  30,C  28,H  76)          108.2122         0.321190   
    239. A(C  29,C  28,H  76)          107.7108         0.321358   
    240. A(C  27,C  28,H  76)          108.1979         0.320717   
    241. A(C  28,C  29,H  79)          110.6971         0.321967   
    242. A(H  78,C  29,H  79)          107.6961         0.287195   
    243. A(H  77,C  29,H  79)          107.5755         0.287944   
    244. A(H  77,C  29,H  78)          108.5575         0.287550   
    245. A(C  28,C  29,H  78)          110.7802         0.321506   
    246. A(C  28,C  29,H  77)          111.3951         0.322384   
    247. A(H  81,C  30,H  82)          107.6167         0.287257   
    248. A(H  80,C  30,H  82)          107.6886         0.287112   
    249. A(C  28,C  30,H  82)          110.8452         0.321394   
    250. A(H  80,C  30,H  81)          107.9781         0.287472   
    251. A(C  28,C  30,H  81)          111.0699         0.321816   
    252. A(C  28,C  30,H  80)          111.4770         0.321646   
    253. A(C  33,C  32,O  42)          121.1230         0.435818   
    254. A(C  18,C  32,O  42)          120.1214         0.427347   
    255. A(C  18,C  32,C  33)          118.7493         0.360689   
    256. A(C  32,C  33,C  34)          110.6986         0.363013   
    257. A(C  34,C  33,H  84)          109.8142         0.320234   
    258. A(H  83,C  33,H  84)          108.1220         0.287011   
    259. A(C  32,C  33,H  84)          111.3238         0.324012   
    260. A(C  34,C  33,H  83)          109.4162         0.319872   
    261. A(C  32,C  33,H  83)          107.3845         0.323644   
    262. A(C  33,C  34,C  35)          112.3245         0.361494   
    263. A(H  85,C  34,H  86)          107.2839         0.287324   
    264. A(C  35,C  34,H  86)          110.5138         0.322613   
    265. A(C  33,C  34,H  86)          108.3488         0.320139   
    266. A(C  35,C  34,H  85)          109.7419         0.322808   
    267. A(C  33,C  34,H  85)          108.4734         0.320331   
    268. A(C  34,C  35,C  36)          113.2785         0.363902   
    269. A(H  87,C  35,H  88)          106.3229         0.286165   
    270. A(C  36,C  35,H  88)          108.9004         0.321834   
    271. A(C  34,C  35,H  88)          109.0077         0.322264   
    272. A(C  36,C  35,H  87)          109.3452         0.321359   
    273. A(C  34,C  35,H  87)          109.7459         0.321789   
    274. A(C  35,C  36,C  37)          113.1102         0.363292   
    275. A(H  89,C  36,H  90)          106.0697         0.286277   
    276. A(C  37,C  36,H  90)          109.4585         0.321535   
    277. A(C  35,C  36,H  90)          109.4393         0.321623   
    278. A(C  37,C  36,H  89)          109.3846         0.321615   
    279. A(C  35,C  36,H  89)          109.1355         0.321702   
    280. A(C  36,C  37,C  38)          113.6298         0.363236   
    281. A(H  91,C  37,H  92)          105.9640         0.285994   
    282. A(C  38,C  37,H  92)          109.2434         0.321482   
    283. A(C  36,C  37,H  92)          109.1718         0.321442   
    284. A(C  38,C  37,H  91)          109.2533         0.321414   
    285. A(C  36,C  37,H  91)          109.2945         0.321374   
    286. A(C  37,C  38,C  39)          113.4922         0.363271   
    287. A(H  93,C  38,H  94)          105.9175         0.286121   
    288. A(C  39,C  38,H  94)          109.3081         0.321495   
    289. A(C  37,C  38,H  94)          109.2959         0.321505   
    290. A(C  39,C  38,H  93)          109.3099         0.321531   
    291. A(C  37,C  38,H  93)          109.2391         0.321541   
    292. A(C  38,C  39,C  40)          113.6315         0.363087   
    293. A(H  95,C  39,H  96)          105.8858         0.285958   
    294. A(C  40,C  39,H  96)          109.2190         0.321284   
    295. A(C  38,C  39,H  96)          109.2894         0.321430   
    296. A(C  40,C  39,H  95)          109.2151         0.321258   
    297. A(C  38,C  39,H  95)          109.3102         0.321404   
    298. A(C  39,C  40,C  41)          113.1365         0.363159   
    299. A(H  97,C  40,H  98)          105.9369         0.286409   
    300. A(C  41,C  40,H  98)          109.6369         0.321736   
    301. A(C  39,C  40,H  98)          109.1258         0.321528   
    302. A(C  41,C  40,H  97)          109.6377         0.321752   
    303. A(C  39,C  40,H  97)          109.1118         0.321544   
    304. A(H 100,C  41,H 101)          107.4517         0.287238   
    305. A(H  99,C  41,H 101)          107.6813         0.287456   
    306. A(C  40,C  41,H 101)          111.0850         0.322228   
    307. A(H  99,C  41,H 100)          107.6797         0.287464   
    308. A(C  40,C  41,H 100)          111.0801         0.322237   
    309. A(C  40,C  41,H  99)          111.6707         0.322494   
    310. A(C  17,O  43,H 102)          107.3963         0.351410   
    311. A(C  13,C  45,C  46)          114.7664         0.361909   
    312. A(C  46,C  45,H 104)          110.8061         0.323085   
    313. A(C  13,C  45,H 104)          107.4122         0.320454   
    314. A(C  46,C  45,H 103)          109.8735         0.322426   
    315. A(C  13,C  45,H 103)          107.1831         0.319802   
    316. A(H 103,C  45,H 104)          106.4022         0.286968   
    317. A(H 106,C  46,H 107)          107.1249         0.288248   
    318. A(H 105,C  46,H 107)          107.7799         0.287994   
    319. A(C  45,C  46,H 107)          111.3101         0.323479   
    320. A(H 105,C  46,H 106)          108.6021         0.288046   
    321. A(C  45,C  46,H 106)          111.8560         0.323540   
    322. A(C  45,C  46,H 105)          110.0187         0.323241   
    323. A(C  50,C  48,H 108)          108.0504         0.321245   
    324. A(C  49,C  48,H 108)          108.1346         0.320682   
    325. A(C  10,C  48,H 108)          104.7260         0.317681   
    326. A(C  49,C  48,C  50)          110.9448         0.362084   
    327. A(C  10,C  48,C  50)          111.4151         0.358547   
    328. A(C  10,C  48,C  49)          113.2032         0.357894   
    329. A(H 110,C  49,H 111)          107.9425         0.287902   
    330. A(H 109,C  49,H 111)          106.7414         0.287413   
    331. A(C  48,C  49,H 111)          110.0743         0.321786   
    332. A(H 109,C  49,H 110)          107.4104         0.287399   
    333. A(C  48,C  49,H 110)          111.2692         0.321769   
    334. A(C  48,C  49,H 109)          113.1609         0.321197   
    335. A(H 113,C  50,H 114)          108.3216         0.287940   
    336. A(H 112,C  50,H 114)          107.2756         0.288057   
    337. A(C  48,C  50,H 114)          111.3642         0.322456   
    338. A(H 112,C  50,H 113)          108.3396         0.287903   
    339. A(C  48,C  50,H 113)          110.0791         0.322274   
    340. A(C  48,C  50,H 112)          111.3375         0.322412   
    341. D(H  51,C   2,C   1,N   9)   -144.3610         0.010186   
    342. D(C   3,C   2,C   1,N   9)     93.7328         0.010186   
    343. D(N   6,C   2,C   1,N   9)    -23.8782         0.010186   
    344. D(N   6,C   2,C   1,O   0)    159.1161         0.010186   
    345. D(C   3,C   2,C   1,O   0)    -83.2729         0.010186   
    346. D(H  51,C   2,C   1,O   0)     38.6334         0.010186   
    347. D(C   4,C   3,C   2,N   6)     26.3176         0.010111   
    348. D(H  53,C   3,C   2,H  51)    -92.6876         0.010111   
    349. D(H  53,C   3,C   2,C   1)     24.7421         0.010111   
    350. D(C   4,C   3,C   2,H  51)    144.2910         0.010111   
    351. D(H  53,C   3,C   2,N   6)    149.3391         0.010111   
    352. D(H  52,C   3,C   2,H  51)     26.5987         0.010111   
    353. D(C   4,C   3,C   2,C   1)    -98.2793         0.010111   
    354. D(H  52,C   3,C   2,C   1)    144.0284         0.010111   
    355. D(H  52,C   3,C   2,N   6)    -91.3746         0.010111   
    356. D(H  55,C   4,C   3,H  53)     78.9081         0.010723   
    357. D(H  55,C   4,C   3,H  52)    -42.4292         0.010723   
    358. D(H  54,C   4,C   3,H  52)   -163.5236         0.010723   
    359. D(H  55,C   4,C   3,C   2)   -159.5631         0.010723   
    360. D(H  54,C   4,C   3,H  53)    -42.1864         0.010723   
    361. D(C   5,C   4,C   3,C   2)    -38.2631         0.010723   
    362. D(H  54,C   4,C   3,C   2)     79.3424         0.010723   
    363. D(C   5,C   4,C   3,H  53)   -159.7919         0.010723   
    364. D(C   5,C   4,C   3,H  52)     78.8709         0.010723   
    365. D(N   6,C   5,C   4,C   3)     34.8754         0.011030   
    366. D(H  57,C   5,C   4,C   3)    -83.6200         0.011030   
    367. D(H  56,C   5,C   4,H  55)    -83.3230         0.011030   
    368. D(H  56,C   5,C   4,C   3)    154.6830         0.011030   
    369. D(H  57,C   5,C   4,H  54)    158.6428         0.011030   
    370. D(H  56,C   5,C   4,H  54)     36.9457         0.011030   
    371. D(H  57,C   5,C   4,H  55)     38.3741         0.011030   
    372. D(N   6,C   5,C   4,H  54)    -82.8618         0.011030   
    373. D(N   6,C   5,C   4,H  55)    156.8695         0.011030   
    374. D(C   5,N   6,C   2,C   3)     -4.3835         0.014290   
    375. D(C   7,N   6,C   5,H  57)    -70.4368         0.014368   
    376. D(C   7,N   6,C   5,H  56)     49.6226         0.014368   
    377. D(C   7,N   6,C   5,C   4)    171.2015         0.014368   
    378. D(C   2,N   6,C   5,H  57)     99.0776         0.014368   
    379. D(C   2,N   6,C   5,H  56)   -140.8629         0.014368   
    380. D(C   7,N   6,C   2,H  51)     46.2867         0.014290   
    381. D(C   2,N   6,C   5,C   4)    -19.2840         0.014368   
    382. D(C   7,N   6,C   2,C   3)    166.1429         0.014290   
    383. D(C   5,N   6,C   2,C   1)    117.9897         0.014290   
    384. D(C   7,N   6,C   2,C   1)    -71.4838         0.014290   
    385. D(C   5,N   6,C   2,H  51)   -124.2398         0.014290   
    386. D(C  24,C   7,N   6,C   5)      6.5030         0.031259   
    387. D(C  24,C   7,N   6,C   2)   -162.4083         0.031259   
    388. D(O   8,C   7,N   6,C   5)   -177.2371         0.031259   
    389. D(O   8,C   7,N   6,C   2)     13.8516         0.031259   
    390. D(H  58,N   9,C   1,O   0)   -177.4379         0.030505   
    391. D(C  10,N   9,C   1,C   2)    179.8388         0.030505   
    392. D(H  58,N   9,C   1,C   2)      5.6681         0.030505   
    393. D(C  10,N   9,C   1,O   0)     -3.2672         0.030505   
    394. D(H  59,C  10,N   9,C   1)     34.6070         0.016653   
    395. D(C  48,C  10,N   9,H  58)    -32.7060         0.016653   
    396. D(C  48,C  10,N   9,C   1)    153.2121         0.016653   
    397. D(C  11,C  10,N   9,C   1)    -80.0130         0.016653   
    398. D(H  59,C  10,N   9,H  58)   -151.3110         0.016653   
    399. D(C  11,C  10,N   9,H  58)     94.0690         0.016653   
    400. D(O  47,C  11,C  10,N   9)    150.0175         0.009556   
    401. D(N  12,C  11,C  10,H  59)   -149.5089         0.009556   
    402. D(N  12,C  11,C  10,C  48)     92.3533         0.009556   
    403. D(N  12,C  11,C  10,N   9)    -33.3546         0.009556   
    404. D(O  47,C  11,C  10,H  59)     33.8632         0.009556   
    405. D(O  47,C  11,C  10,C  48)    -84.2746         0.009556   
    406. D(H  60,N  12,C  11,O  47)   -167.2738         0.030387   
    407. D(H  60,N  12,C  11,C  10)     16.1902         0.030387   
    408. D(C  13,N  12,C  11,O  47)     -5.2961         0.030387   
    409. D(C  13,N  12,C  11,C  10)    178.1678         0.030387   
    410. D(H  61,C  13,N  12,C  11)    -30.1164         0.015579   
    411. D(H  61,C  13,N  12,H  60)    132.1029         0.015579   
    412. D(C  45,C  13,N  12,H  60)   -106.4758         0.015579   
    413. D(C  45,C  13,N  12,C  11)     91.3049         0.015579   
    414. D(C  14,C  13,N  12,C  11)   -149.4765         0.015579   
    415. D(C  14,C  13,N  12,H  60)     12.7428         0.015579   
    416. D(O  44,C  14,C  13,C  45)     50.8426         0.010659   
    417. D(O  44,C  14,C  13,N  12)    -71.5000         0.010659   
    418. D(N  15,C  14,C  13,H  61)     -8.8073         0.010659   
    419. D(N  15,C  14,C  13,C  45)   -130.0013         0.010659   
    420. D(O  44,C  14,C  13,H  61)    172.0366         0.010659   
    421. D(N  15,C  14,C  13,N  12)    107.6561         0.010659   
    422. D(H  62,N  15,C  14,O  44)    170.5148         0.033950   
    423. D(H  62,N  15,C  14,C  13)     -8.6221         0.033950   
    424. D(C  16,N  15,C  14,O  44)      6.5638         0.033950   
    425. D(C  16,N  15,C  14,C  13)   -172.5731         0.033950   
    426. D(H  64,C  16,N  15,H  62)   -119.2672         0.015654   
    427. D(H  64,C  16,N  15,C  14)     44.4261         0.015654   
    428. D(H  63,C  16,N  15,H  62)     -2.2096         0.015654   
    429. D(H  63,C  16,N  15,C  14)    161.4836         0.015654   
    430. D(C  17,C  16,N  15,C  14)    -78.6679         0.015654   
    431. D(C  17,C  16,N  15,H  62)    117.6389         0.015654   
    432. D(H  65,C  17,C  16,H  64)    -81.5424         0.010343   
    433. D(H  65,C  17,C  16,H  63)    159.0980         0.010343   
    434. D(H  65,C  17,C  16,N  15)     39.2989         0.010343   
    435. D(O  43,C  17,C  16,H  64)    159.1383         0.010343   
    436. D(O  43,C  17,C  16,H  63)     39.7787         0.010343   
    437. D(O  43,C  17,C  16,N  15)    -80.0204         0.010343   
    438. D(C  18,C  17,C  16,H  64)     37.8463         0.010343   
    439. D(C  18,C  17,C  16,H  63)    -81.5133         0.010343   
    440. D(C  18,C  17,C  16,N  15)    158.6876         0.010343   
    441. D(H  66,C  18,C  17,H  65)    -81.9863         0.010155   
    442. D(H  66,C  18,C  17,O  43)     35.1176         0.010155   
    443. D(H  66,C  18,C  17,C  16)    158.1128         0.010155   
    444. D(C  32,C  18,C  17,O  43)    -79.4090         0.010155   
    445. D(C  32,C  18,C  17,C  16)     43.5861         0.010155   
    446. D(C  32,C  18,C  17,H  65)    163.4870         0.010155   
    447. D(C  19,C  18,C  17,H  65)     36.6559         0.010155   
    448. D(C  19,C  18,C  17,O  43)    153.7598         0.010155   
    449. D(C  19,C  18,C  17,C  16)    -83.2450         0.010155   
    450. D(O  31,C  19,C  18,H  66)    -57.2538         0.010123   
    451. D(O  31,C  19,C  18,C  32)     56.8055         0.010123   
    452. D(O  31,C  19,C  18,C  17)   -175.7739         0.010123   
    453. D(N  20,C  19,C  18,H  66)    123.8308         0.010123   
    454. D(N  20,C  19,C  18,C  17)      5.3107         0.010123   
    455. D(N  20,C  19,C  18,C  32)   -122.1099         0.010123   
    456. D(H  67,N  20,C  19,O  31)   -177.6104         0.031155   
    457. D(H  67,N  20,C  19,C  18)      1.2555         0.031155   
    458. D(C  21,N  20,C  19,O  31)     -5.4344         0.031155   
    459. D(C  21,N  20,C  19,C  18)    173.4314         0.031155   
    460. D(H  68,C  21,N  20,H  67)   -167.7614         0.016393   
    461. D(H  68,C  21,N  20,C  19)     19.7139         0.016393   
    462. D(C  27,C  21,N  20,H  67)    -47.3495         0.016393   
    463. D(C  27,C  21,N  20,C  19)    140.1258         0.016393   
    464. D(C  22,C  21,N  20,H  67)     76.6695         0.016393   
    465. D(C  22,C  21,N  20,C  19)    -95.8552         0.016393   
    466. D(N  23,C  22,C  21,C  27)     92.5617         0.009655   
    467. D(N  23,C  22,C  21,N  20)    -30.4443         0.009655   
    468. D(O  26,C  22,C  21,H  68)     34.5268         0.009655   
    469. D(O  26,C  22,C  21,C  27)    -86.0084         0.009655   
    470. D(O  26,C  22,C  21,N  20)    150.9857         0.009655   
    471. D(N  23,C  22,C  21,H  68)   -146.9032         0.009655   
    472. D(H  69,N  23,C  22,O  26)    176.6910         0.031500   
    473. D(H  69,N  23,C  22,C  21)     -1.8610         0.031500   
    474. D(C  24,N  23,C  22,O  26)     -4.4974         0.031500   
    475. D(C  24,N  23,C  22,C  21)    176.9506         0.031500   
    476. D(H  70,C  24,N  23,H  69)   -127.5965         0.017420   
    477. D(H  70,C  24,N  23,C  22)     53.5326         0.017420   
    478. D(C  25,C  24,N  23,H  69)    112.0919         0.017420   
    479. D(C  25,C  24,N  23,C  22)    -66.7790         0.017420   
    480. D(C   7,C  24,N  23,H  69)     -6.7815         0.017420   
    481. D(C   7,C  24,N  23,C  22)    174.3476         0.017420   
    482. D(H  70,C  24,C   7,O   8)    140.7464         0.010608   
    483. D(H  70,C  24,C   7,N   6)    -43.0098         0.010608   
    484. D(C  25,C  24,C   7,O   8)    -99.4140         0.010608   
    485. D(C  25,C  24,C   7,N   6)     76.8298         0.010608   
    486. D(N  23,C  24,C   7,O   8)     21.1366         0.010608   
    487. D(N  23,C  24,C   7,N   6)   -162.6196         0.010608   
    488. D(H  73,C  25,C  24,H  70)    177.6358         0.010210   
    489. D(H  73,C  25,C  24,N  23)    -61.7353         0.010210   
    490. D(H  73,C  25,C  24,C   7)     56.2933         0.010210   
    491. D(H  72,C  25,C  24,H  70)     56.8071         0.010210   
    492. D(H  72,C  25,C  24,N  23)    177.4360         0.010210   
    493. D(H  72,C  25,C  24,C   7)    -64.5354         0.010210   
    494. D(H  71,C  25,C  24,H  70)    -62.9755         0.010210   
    495. D(H  71,C  25,C  24,N  23)     57.6533         0.010210   
    496. D(H  71,C  25,C  24,C   7)    175.6820         0.010210   
    497. D(H  75,C  27,C  21,H  68)     59.9228         0.010312   
    498. D(H  75,C  27,C  21,C  22)    177.1335         0.010312   
    499. D(H  75,C  27,C  21,N  20)    -57.9810         0.010312   
    500. D(H  74,C  27,C  21,H  68)    174.4203         0.010312   
    501. D(H  74,C  27,C  21,C  22)    -68.3691         0.010312   
    502. D(H  74,C  27,C  21,N  20)     56.5165         0.010312   
    503. D(C  28,C  27,C  21,H  68)    -62.1663         0.010312   
    504. D(C  28,C  27,C  21,C  22)     55.0443         0.010312   
    505. D(C  28,C  27,C  21,N  20)    179.9299         0.010312   
    506. D(H  76,C  28,C  27,H  75)    179.9703         0.010719   
    507. D(H  76,C  28,C  27,H  74)     63.6563         0.010719   
    508. D(H  76,C  28,C  27,C  21)    -59.1022         0.010719   
    509. D(C  30,C  28,C  27,H  75)     62.3126         0.010719   
    510. D(C  30,C  28,C  27,H  74)    -54.0014         0.010719   
    511. D(C  30,C  28,C  27,C  21)   -176.7599         0.010719   
    512. D(C  29,C  28,C  27,H  75)    -61.4014         0.010719   
    513. D(C  29,C  28,C  27,H  74)   -177.7154         0.010719   
    514. D(C  29,C  28,C  27,C  21)     59.5261         0.010719   
    515. D(H  79,C  29,C  28,C  30)     53.4213         0.010967   
    516. D(H  79,C  29,C  28,C  27)    176.1360         0.010967   
    517. D(H  78,C  29,C  28,H  76)    175.6509         0.010967   
    518. D(H  78,C  29,C  28,C  30)    -65.9795         0.010967   
    519. D(H  78,C  29,C  28,C  27)     56.7352         0.010967   
    520. D(H  77,C  29,C  28,H  76)     54.7024         0.010967   
    521. D(H  77,C  29,C  28,C  30)    173.0719         0.010967   
    522. D(H  79,C  29,C  28,H  76)    -64.9482         0.010967   
    523. D(H  77,C  29,C  28,C  27)    -64.2134         0.010967   
    524. D(H  82,C  30,C  28,H  76)    179.3989         0.010901   
    525. D(H  82,C  30,C  28,C  29)     61.3323         0.010901   
    526. D(H  82,C  30,C  28,C  27)    -62.9523         0.010901   
    527. D(H  81,C  30,C  28,H  76)     59.8120         0.010901   
    528. D(H  81,C  30,C  28,C  29)    -58.2547         0.010901   
    529. D(H  81,C  30,C  28,C  27)    177.4607         0.010901   
    530. D(H  80,C  30,C  28,H  76)    -60.6542         0.010901   
    531. D(H  80,C  30,C  28,C  29)   -178.7209         0.010901   
    532. D(H  80,C  30,C  28,C  27)     56.9945         0.010901   
    533. D(O  42,C  32,C  18,H  66)    -35.0534         0.009074   
    534. D(O  42,C  32,C  18,C  19)   -149.5978         0.009074   
    535. D(O  42,C  32,C  18,C  17)     79.8051         0.009074   
    536. D(C  33,C  32,C  18,H  66)    145.8495         0.009074   
    537. D(C  33,C  32,C  18,C  19)     31.3052         0.009074   
    538. D(C  33,C  32,C  18,C  17)    -99.2920         0.009074   
    539. D(H  84,C  33,C  32,O  42)   -170.0461         0.011105   
    540. D(H  84,C  33,C  32,C  18)      9.0416         0.011105   
    541. D(H  83,C  33,C  32,O  42)    -51.8754         0.011105   
    542. D(H  83,C  33,C  32,C  18)    127.2123         0.011105   
    543. D(C  34,C  33,C  32,O  42)     67.5092         0.011105   
    544. D(C  34,C  33,C  32,C  18)   -113.4031         0.011105   
    545. D(H  86,C  34,C  33,H  84)    177.0835         0.010368   
    546. D(H  86,C  34,C  33,H  83)     58.5581         0.010368   
    547. D(H  86,C  34,C  33,C  32)    -59.5956         0.010368   
    548. D(H  85,C  34,C  33,H  84)    -66.7596         0.010368   
    549. D(H  85,C  34,C  33,H  83)    174.7150         0.010368   
    550. D(H  85,C  34,C  33,C  32)     56.5613         0.010368   
    551. D(C  35,C  34,C  33,H  84)     54.7186         0.010368   
    552. D(C  35,C  34,C  33,H  83)    -63.8069         0.010368   
    553. D(C  35,C  34,C  33,C  32)    178.0395         0.010368   
    554. D(H  88,C  35,C  34,H  86)    178.3283         0.011324   
    555. D(H  88,C  35,C  34,H  85)     60.2090         0.011324   
    556. D(H  88,C  35,C  34,C  33)    -60.5411         0.011324   
    557. D(H  87,C  35,C  34,H  86)    -65.6009         0.011324   
    558. D(H  87,C  35,C  34,H  85)    176.2798         0.011324   
    559. D(H  87,C  35,C  34,C  33)     55.5297         0.011324   
    560. D(C  36,C  35,C  34,H  86)     56.9177         0.011324   
    561. D(C  36,C  35,C  34,H  85)    -61.2016         0.011324   
    562. D(C  36,C  35,C  34,C  33)    178.0483         0.011324   
    563. D(H  90,C  36,C  35,H  87)     63.6201         0.011151   
    564. D(H  90,C  36,C  35,C  34)    -59.1207         0.011151   
    565. D(H  89,C  36,C  35,H  88)    -64.9231         0.011151   
    566. D(H  89,C  36,C  35,H  87)    179.2886         0.011151   
    567. D(H  89,C  36,C  35,C  34)     56.5479         0.011151   
    568. D(C  37,C  36,C  35,H  88)     57.0853         0.011151   
    569. D(C  37,C  36,C  35,H  87)    -58.7030         0.011151   
    570. D(H  90,C  36,C  35,H  88)    179.4084         0.011151   
    571. D(C  37,C  36,C  35,C  34)    178.5562         0.011151   
    572. D(H  92,C  37,C  36,H  90)   -179.9532         0.011116   
    573. D(H  92,C  37,C  36,H  89)     64.2279         0.011116   
    574. D(H  92,C  37,C  36,C  35)    -57.6408         0.011116   
    575. D(H  91,C  37,C  36,H  90)    -64.4710         0.011116   
    576. D(H  91,C  37,C  36,H  89)    179.7100         0.011116   
    577. D(H  91,C  37,C  36,C  35)     57.8413         0.011116   
    578. D(C  38,C  37,C  36,H  90)     57.8394         0.011116   
    579. D(C  38,C  37,C  36,H  89)    -57.9795         0.011116   
    580. D(C  38,C  37,C  36,C  35)   -179.8482         0.011116   
    581. D(H  94,C  38,C  37,H  92)   -179.9247         0.011132   
    582. D(H  94,C  38,C  37,H  91)     64.5763         0.011132   
    583. D(H  94,C  38,C  37,C  36)    -57.7569         0.011132   
    584. D(H  93,C  38,C  37,H  92)    -64.4599         0.011132   
    585. D(H  93,C  38,C  37,H  91)   -179.9590         0.011132   
    586. D(H  93,C  38,C  37,C  36)     57.7078         0.011132   
    587. D(C  39,C  38,C  37,H  92)     57.7880         0.011132   
    588. D(C  39,C  38,C  37,H  91)    -57.7110         0.011132   
    589. D(C  39,C  38,C  37,C  36)    179.9557         0.011132   
    590. D(H  95,C  39,C  38,H  94)    -64.5168         0.011128   
    591. D(H  95,C  39,C  38,H  93)    179.9725         0.011128   
    592. D(H  95,C  39,C  38,C  37)     57.7638         0.011128   
    593. D(C  40,C  39,C  38,H  94)     57.7571         0.011128   
    594. D(C  40,C  39,C  38,H  93)    -57.7536         0.011128   
    595. D(C  40,C  39,C  38,C  37)   -179.9623         0.011128   
    596. D(H  96,C  39,C  38,H  94)   -179.9793         0.011128   
    597. D(H  96,C  39,C  38,H  93)     64.5099         0.011128   
    598. D(H  96,C  39,C  38,C  37)    -57.6987         0.011128   
    599. D(H  98,C  40,C  39,H  95)     64.6881         0.011070   
    600. D(H  98,C  40,C  39,C  38)    -57.6383         0.011070   
    601. D(H  97,C  40,C  39,H  96)    -64.6167         0.011070   
    602. D(H  97,C  40,C  39,H  95)   -179.9877         0.011070   
    603. D(H  97,C  40,C  39,C  38)     57.6858         0.011070   
    604. D(C  41,C  40,C  39,H  96)     57.7167         0.011070   
    605. D(C  41,C  40,C  39,H  95)    -57.6544         0.011070   
    606. D(H  98,C  40,C  39,H  96)   -179.9408         0.011070   
    607. D(C  41,C  40,C  39,C  38)   -179.9809         0.011070   
    608. D(H 101,C  41,C  40,H  98)    -62.2862         0.011153   
    609. D(H 101,C  41,C  40,H  97)   -178.1897         0.011153   
    610. D(H 101,C  41,C  40,C  39)     59.7708         0.011153   
    611. D(H 100,C  41,C  40,H  98)    178.1694         0.011153   
    612. D(H 100,C  41,C  40,H  97)     62.2659         0.011153   
    613. D(H 100,C  41,C  40,C  39)    -59.7736         0.011153   
    614. D(H  99,C  41,C  40,H  98)     57.9443         0.011153   
    615. D(H  99,C  41,C  40,H  97)    -57.9592         0.011153   
    616. D(H  99,C  41,C  40,C  39)   -179.9987         0.011153   
    617. D(H 102,O  43,C  17,H  65)    -53.7852         0.018214   
    618. D(H 102,O  43,C  17,C  18)   -170.1967         0.018214   
    619. D(H 102,O  43,C  17,C  16)     65.4313         0.018214   
    620. D(H 104,C  45,C  13,H  61)   -176.8419         0.010405   
    621. D(H 104,C  45,C  13,C  14)    -54.4452         0.010405   
    622. D(H 104,C  45,C  13,N  12)     63.0629         0.010405   
    623. D(H 103,C  45,C  13,H  61)    -62.8414         0.010405   
    624. D(H 103,C  45,C  13,C  14)     59.5553         0.010405   
    625. D(H 103,C  45,C  13,N  12)    177.0634         0.010405   
    626. D(C  46,C  45,C  13,H  61)     59.4708         0.010405   
    627. D(C  46,C  45,C  13,C  14)   -178.1325         0.010405   
    628. D(C  46,C  45,C  13,N  12)    -60.6244         0.010405   
    629. D(H 107,C  46,C  45,H 104)    -59.2859         0.011428   
    630. D(H 107,C  46,C  45,H 103)   -176.5802         0.011428   
    631. D(H 107,C  46,C  45,C  13)     62.5746         0.011428   
    632. D(H 106,C  46,C  45,H 104)   -179.0883         0.011428   
    633. D(H 106,C  46,C  45,H 103)     63.6174         0.011428   
    634. D(H 106,C  46,C  45,C  13)    -57.2278         0.011428   
    635. D(H 105,C  46,C  45,H 104)     60.1186         0.011428   
    636. D(H 105,C  46,C  45,H 103)    -57.1757         0.011428   
    637. D(H 105,C  46,C  45,C  13)   -178.0208         0.011428   
    638. D(H 108,C  48,C  10,H  59)     62.9837         0.009726   
    639. D(H 108,C  48,C  10,C  11)    178.3412         0.009726   
    640. D(H 108,C  48,C  10,N   9)    -54.3533         0.009726   
    641. D(C  50,C  48,C  10,H  59)    -53.5816         0.009726   
    642. D(C  50,C  48,C  10,C  11)     61.7759         0.009726   
    643. D(C  50,C  48,C  10,N   9)   -170.9186         0.009726   
    644. D(C  49,C  48,C  10,H  59)   -179.4477         0.009726   
    645. D(C  49,C  48,C  10,C  11)    -64.0902         0.009726   
    646. D(C  49,C  48,C  10,N   9)     63.2153         0.009726   
    647. D(H 111,C  49,C  48,C  50)     58.2896         0.010822   
    648. D(H 111,C  49,C  48,C  10)   -175.5934         0.010822   
    649. D(H 110,C  49,C  48,H 108)   -179.6537         0.010822   
    650. D(H 110,C  49,C  48,C  50)    -61.3284         0.010822   
    651. D(H 110,C  49,C  48,C  10)     64.7886         0.010822   
    652. D(H 109,C  49,C  48,H 108)     59.2984         0.010822   
    653. D(H 109,C  49,C  48,C  50)    177.6237         0.010822   
    654. D(H 111,C  49,C  48,H 108)    -60.0357         0.010822   
    655. D(H 109,C  49,C  48,C  10)    -56.2593         0.010822   
    656. D(H 114,C  50,C  48,H 108)   -179.1743         0.011042   
    657. D(H 114,C  50,C  48,C  49)     62.4493         0.011042   
    658. D(H 114,C  50,C  48,C  10)    -64.6553         0.011042   
    659. D(H 113,C  50,C  48,H 108)     60.6683         0.011042   
    660. D(H 113,C  50,C  48,C  49)    -57.7080         0.011042   
    661. D(H 113,C  50,C  48,C  10)    175.1873         0.011042   
    662. D(H 112,C  50,C  48,H 108)    -59.4944         0.011042   
    663. D(H 112,C  50,C  48,C  49)   -177.8707         0.011042   
    664. D(H 112,C  50,C  48,C  10)     55.0246         0.011042   
    -----------------------------------------------------------------

Number of atoms                         .... 115
Number of degrees of freedom            .... 664

         *************************************************************
         *                GEOMETRY OPTIMIZATION CYCLE   1            *
         *************************************************************
---------------------------------
CARTESIAN COORDINATES (ANGSTROEM)
---------------------------------
  O      5.680615    1.786151    0.722500
  C      4.743820    1.395935    1.411838
  C      3.498736    2.274546    1.583962
  C      3.687787    3.331043    2.694163
  C      3.001226    2.705348    3.916928
  C      1.773828    2.021253    3.307892
  N      2.276727    1.560937    2.000571
  C      1.651391    0.745266    1.107548
  O      2.218149    0.397013    0.060456
  N      4.760131    0.222258    2.107880
  C      5.886631   -0.693272    2.020086
  C      5.861001   -1.570226    0.750787
  N      4.617012   -1.917506    0.308642
  C      4.413299   -2.712501   -0.902883
  C      3.072607   -2.259798   -1.476562
  N      3.082150   -1.509242   -2.600060
  C      1.835126   -0.920864   -3.088033
  C      0.966571   -1.952988   -3.832706
  C     -0.523311   -1.555426   -3.901388
  C     -1.386733   -1.895214   -2.679242
  N     -0.764153   -2.416970   -1.586005
  C     -1.456702   -2.646071   -0.325453
  C     -1.271054   -1.485611    0.672025
  N     -0.095062   -0.808315    0.574398
  C      0.204857    0.346858    1.394716
  C     -0.714569    1.536086    1.047668
  O     -2.128151   -1.216057    1.516927
  C     -0.982327   -3.981206    0.281147
  C     -1.615775   -4.378407    1.622468
  C     -3.139056   -4.511927    1.523601
  C     -0.977913   -5.680889    2.119777
  O     -2.598469   -1.667242   -2.722033
  C     -0.681467   -0.053703   -4.254364
  C     -0.948343    0.937453   -3.131950
  C     -2.357082    1.546096   -3.266531
  C     -2.682665    2.512722   -2.129234
  C     -4.059022    3.166442   -2.266714
  C     -4.395729    4.107066   -1.107471
  C     -5.771768    4.764773   -1.231151
  C     -6.105632    5.703737   -0.069944
  C     -7.482203    6.362880   -0.190019
  C     -7.804083    7.299309    0.976188
  O     -0.575657    0.316816   -5.408934
  O      1.432666   -2.139522   -5.173267
  O      2.015950   -2.571004   -0.900851
  C      4.353586   -4.228946   -0.641487
  C      5.616360   -4.821125   -0.021375
  O      6.901400   -1.967895    0.232548
  C      5.995151   -1.537255    3.315532
  C      4.778881   -2.442323    3.550995
  C      7.294492   -2.346950    3.348122
  H      3.340807    2.730237    0.597434
  H      3.176920    4.260787    2.405348
  H      4.746955    3.564825    2.852188
  H      3.659120    1.958429    4.385542
  H      2.727430    3.441655    4.682469
  H      1.401253    1.177875    3.904243
  H      0.947980    2.740255    3.181727
  H      3.927045   -0.046041    2.623250
  H      6.792240   -0.080732    1.912669
  H      3.814855   -1.397889    0.660895
  H      5.246639   -2.486182   -1.588322
  H      3.973302   -1.165029   -2.942685
  H      2.081156   -0.105530   -3.779758
  H      1.306221   -0.492905   -2.224490
  H      1.031254   -2.916927   -3.298098
  H     -0.951232   -2.108275   -4.749848
  H      0.250981   -2.558590   -1.575700
  H     -2.530466   -2.673269   -0.548770
  H      0.622510   -1.079826   -0.100347
  H      0.065015    0.087139    2.457124
  H     -1.756313    1.222826    1.180491
  H     -0.524767    2.401796    1.695362
  H     -0.556877    1.835038    0.003568
  H      0.114059   -3.937887    0.392179
  H     -1.193339   -4.766332   -0.464954
  H     -1.395437   -3.584710    2.355899
  H     -3.610809   -3.549602    1.286676
  H     -3.418011   -5.240442    0.745021
  H     -3.561126   -4.862994    2.476540
  H      0.114283   -5.584144    2.214537
  H     -1.379758   -5.967889    3.102345
  H     -1.181369   -6.508655    1.421564
  H     -0.194188    1.737531   -3.212783
  H     -0.839662    0.463037   -2.144843
  H     -3.091018    0.726757   -3.279390
  H     -2.421812    2.058560   -4.238918
  H     -1.907748    3.298967   -2.074035
  H     -2.640083    1.967760   -1.171366
  H     -4.828630    2.378451   -2.334396
  H     -4.107683    3.723670   -3.218473
  H     -3.621617    4.892211   -1.037791
  H     -4.344848    3.545216   -0.157987
  H     -6.545292    3.979904   -1.300029
  H     -5.824068    5.325726   -2.180950
  H     -5.331384    6.488787   -0.000711
  H     -6.052863    5.142405    0.879993
  H     -8.254022    5.577485   -0.258815
  H     -7.533608    6.922189   -1.139753
  H     -8.796743    7.758962    0.865736
  H     -7.791349    6.757367    1.934263
  H     -7.065178    8.112262    1.046888
  H      2.318628   -2.539324   -5.120373
  H      4.145398   -4.718390   -1.608165
  H      3.478589   -4.418607   -0.002502
  H      5.502761   -5.907805    0.098386
  H      6.503696   -4.627669   -0.637790
  H      5.812233   -4.393172    0.970561
  H      6.034180   -0.794522    4.132061
  H      3.825962   -1.889776    3.576346
  H      4.694190   -3.208072    2.767446
  H      4.872631   -2.956128    4.517699
  H      8.172250   -1.699536    3.217716
  H      7.389754   -2.869022    4.310692
  H      7.319449   -3.095865    2.545239

----------------------------
CARTESIAN COORDINATES (A.U.)
----------------------------
  NO LB      ZA    FRAG     MASS         X           Y           Z
   0 O     8.0000    0    15.999   10.734807    3.375337    1.365327
   1 C     6.0000    0    12.011    8.964520    2.637936    2.667987
   2 C     6.0000    0    12.011    6.611652    4.298268    2.993254
   3 C     6.0000    0    12.011    6.968908    6.294758    5.091231
   4 C     6.0000    0    12.011    5.671494    5.112367    7.401922
   5 C     6.0000    0    12.011    3.352049    3.819616    6.251010
   6 N     7.0000    0    14.007    4.302390    2.949743    3.780531
   7 C     6.0000    0    12.011    3.120677    1.408348    2.092963
   8 O     8.0000    0    15.999    4.191694    0.750247    0.114245
   9 N     7.0000    0    14.007    8.995344    0.420006    3.983315
  10 C     6.0000    0    12.011   11.124120   -1.310095    3.817410
  11 C     6.0000    0    12.011   11.075686   -2.967298    1.418783
  12 N     7.0000    0    14.007    8.724888   -3.623562    0.583249
  13 C     6.0000    0    12.011    8.339926   -5.125885   -1.706201
  14 C     6.0000    0    12.011    5.806386   -4.270400   -2.790299
  15 N     7.0000    0    14.007    5.824419   -2.852055   -4.913402
  16 C     6.0000    0    12.011    3.467886   -1.740180   -5.835536
  17 C     6.0000    0    12.011    1.826554   -3.690612   -7.242765
  18 C     6.0000    0    12.011   -0.988915   -2.939329   -7.372556
  19 C     6.0000    0    12.011   -2.620545   -3.581436   -5.063034
  20 N     7.0000    0    14.007   -1.444040   -4.567412   -2.997115
  21 C     6.0000    0    12.011   -2.752767   -5.000350   -0.615017
  22 C     6.0000    0    12.011   -2.401943   -2.807398    1.269943
  23 N     7.0000    0    14.007   -0.179642   -1.527494    1.085454
  24 C     6.0000    0    12.011    0.387124    0.655467    2.635631
  25 C     6.0000    0    12.011   -1.350339    2.902782    1.979806
  26 O     8.0000    0    15.999   -4.021622   -2.298014    2.866577
  27 C     6.0000    0    12.011   -1.856330   -7.523388    0.531291
  28 C     6.0000    0    12.011   -3.053373   -8.273990    3.066021
  29 C     6.0000    0    12.011   -5.931955   -8.526307    2.879189
  30 C     6.0000    0    12.011   -1.847987  -10.735325    4.005798
  31 O     8.0000    0    15.999   -4.910395   -3.150630   -5.143897
  32 C     6.0000    0    12.011   -1.287785   -0.101484   -8.039583
  33 C     6.0000    0    12.011   -1.792109    1.771529   -5.918528
  34 C     6.0000    0    12.011   -4.454239    2.921697   -6.172848
  35 C     6.0000    0    12.011   -5.069502    4.748357   -4.023669
  36 C     6.0000    0    12.011   -7.670440    5.983708   -4.283468
  37 C     6.0000    0    12.011   -8.306724    7.761230   -2.092816
  38 C     6.0000    0    12.011  -10.907062    9.004117   -2.326539
  39 C     6.0000    0    12.011  -11.537972   10.778500   -0.132176
  40 C     6.0000    0    12.011  -14.139314   12.024100   -0.359084
  41 C     6.0000    0    12.011  -14.747580   13.793695    1.844727
  42 O     8.0000    0    15.999   -1.087834    0.598695  -10.221403
  43 O     8.0000    0    15.999    2.707346   -4.043110   -9.776058
  44 O     8.0000    0    15.999    3.809594   -4.858493   -1.702363
  45 C     6.0000    0    12.011    8.227085   -7.991550   -1.212235
  46 C     6.0000    0    12.011   10.613383   -9.110606   -0.040392
  47 O     8.0000    0    15.999   13.041755   -3.718782    0.439452
  48 C     6.0000    0    12.011   11.329193   -2.904990    6.265447
  49 C     6.0000    0    12.011    9.030777   -4.615322    6.710407
  50 C     6.0000    0    12.011   13.784592   -4.435092    6.327034
  51 H     1.0000    0     1.008    6.313210    5.159400    1.128986
  52 H     1.0000    0     1.008    6.003508    8.051721    4.545449
  53 H     1.0000    0     1.008    8.970444    6.736543    5.389854
  54 H     1.0000    0     1.008    6.914735    3.700894    8.287474
  55 H     1.0000    0     1.008    5.154095    6.503786    8.848583
  56 H     1.0000    0     1.008    2.647984    2.225861    7.377950
  57 H     1.0000    0     1.008    1.791423    5.178331    6.012593
  58 H     1.0000    0     1.008    7.421039   -0.087004    4.957224
  59 H     1.0000    0     1.008   12.835473   -0.152562    3.614421
  60 H     1.0000    0     1.008    7.209032   -2.641628    1.248910
  61 H     1.0000    0     1.008    9.914710   -4.698203   -3.001494
  62 H     1.0000    0     1.008    7.508453   -2.201587   -5.560868
  63 H     1.0000    0     1.008    3.932815   -0.199424   -7.142708
  64 H     1.0000    0     1.008    2.468400   -0.931456   -4.203677
  65 H     1.0000    0     1.008    1.948788   -5.512193   -6.232502
  66 H     1.0000    0     1.008   -1.797568   -3.984062   -8.975913
  67 H     1.0000    0     1.008    0.474285   -4.835034   -2.977642
  68 H     1.0000    0     1.008   -4.781888   -5.051746   -1.037025
  69 H     1.0000    0     1.008    1.176374   -2.040576   -0.189628
  70 H     1.0000    0     1.008    0.122860    0.164670    4.643292
  71 H     1.0000    0     1.008   -3.318950    2.310807    2.230806
  72 H     1.0000    0     1.008   -0.991665    4.538736    3.203771
  73 H     1.0000    0     1.008   -1.052345    3.467720    0.006742
  74 H     1.0000    0     1.008    0.215541   -7.441528    0.741111
  75 H     1.0000    0     1.008   -2.255084   -9.007062   -0.878635
  76 H     1.0000    0     1.008   -2.636994   -6.774120    4.452004
  77 H     1.0000    0     1.008   -6.823440   -6.707775    2.431465
  78 H     1.0000    0     1.008   -6.459105   -9.903001    1.407886
  79 H     1.0000    0     1.008   -6.729552   -9.189727    4.679983
  80 H     1.0000    0     1.008    0.215963  -10.552503    4.184868
  81 H     1.0000    0     1.008   -2.607365  -11.277676    5.862582
  82 H     1.0000    0     1.008   -2.232465  -12.299575    2.686367
  83 H     1.0000    0     1.008   -0.366961    3.283457   -6.071280
  84 H     1.0000    0     1.008   -1.586731    0.875012   -4.053166
  85 H     1.0000    0     1.008   -5.841178    1.373371   -6.197149
  86 H     1.0000    0     1.008   -4.576561    3.890114   -8.010393
  87 H     1.0000    0     1.008   -3.605122    6.234143   -3.919359
  88 H     1.0000    0     1.008   -4.989033    3.718527   -2.213561
  89 H     1.0000    0     1.008   -9.124788    4.494621   -4.411369
  90 H     1.0000    0     1.008   -7.762396    7.036716   -6.082032
  91 H     1.0000    0     1.008   -6.843865    9.244939   -1.961141
  92 H     1.0000    0     1.008   -8.210573    6.699487   -0.298552
  93 H     1.0000    0     1.008  -12.368810    7.520928   -2.456699
  94 H     1.0000    0     1.008  -11.005894   10.064164   -4.121398
  95 H     1.0000    0     1.008  -10.074855   12.262030   -0.001344
  96 H     1.0000    0     1.008  -11.438254    9.717736    1.662947
  97 H     1.0000    0     1.008  -15.597841   10.539919   -0.489089
  98 H     1.0000    0     1.008  -14.236457   13.081041   -2.153820
  99 H     1.0000    0     1.008  -16.623435   14.662313    1.636005
 100 H     1.0000    0     1.008  -14.723515   12.769574    3.655227
 101 H     1.0000    0     1.008  -13.351252   15.329953    1.978331
 102 H     1.0000    0     1.008    4.381572   -4.798626   -9.676103
 103 H     1.0000    0     1.008    7.833667   -8.916465   -3.038991
 104 H     1.0000    0     1.008    6.573581   -8.349956   -0.004729
 105 H     1.0000    0     1.008   10.398711  -11.164133    0.185922
 106 H     1.0000    0     1.008   12.290204   -8.745028   -1.205248
 107 H     1.0000    0     1.008   10.983528   -8.301891    1.834094
 108 H     1.0000    0     1.008   11.402947   -1.501430    7.808463
 109 H     1.0000    0     1.008    7.230021   -3.571160    6.758314
 110 H     1.0000    0     1.008    8.870733   -6.062377    5.229715
 111 H     1.0000    0     1.008    9.207938   -5.586273    8.537213
 112 H     1.0000    0     1.008   15.443314   -3.211658    6.080602
 113 H     1.0000    0     1.008   13.964611   -5.421665    8.146026
 114 H     1.0000    0     1.008   13.831754   -5.850337    4.809804

--------------------------------
INTERNAL COORDINATES (ANGSTROEM)
--------------------------------
 O      0   0   0     0.000000000000     0.00000000     0.00000000
 C      1   0   0     1.226801048207     0.00000000     0.00000000
 C      2   1   0     1.533563757877   120.05292061     0.00000000
 C      3   2   1     1.544173972513   111.91793866   276.72712530
 C      4   3   2     1.535582958120   103.82645500   261.72067902
 C      5   4   3     1.531475232276   102.92477381   321.73689928
 N      6   5   4     1.474410936877   102.63320054    34.87542531
 C      7   6   5     1.361562913387   127.72925942   171.20154621
 O      8   7   6     1.240522980850   120.79432204   182.76287132
 N      2   1   3     1.364646282992   123.43806085   183.21325809
 C     10   2   1     1.454271026091   121.32650212   356.73282658
 C     11  10   2     1.542992348411   113.24066521   279.98704891
 N     12  11  10     1.365139214177   115.22362457   326.64539982
 C     13  12  11     1.463320727686   122.22302572   178.16783926
 C     14  13  12     1.526925954284   105.79648624   210.52351741
 N     15  14  13     1.351174558456   118.09206577   107.65609137
 C     16  15  14     1.462660274415   119.65886364   187.42685286
 C     17  16  15     1.540846411661   111.86147570   281.33214696
 C     18  17  16     1.543541527362   113.14554793   158.68760111
 C     19  18  17     1.534468726394   116.78533366   276.75496516
 N     20  19  18     1.361984698004   117.83475308     5.31067319
 C     21  20  19     1.456400567824   122.52280820   173.43143172
 C     22  21  20     1.541458979095   112.60565061   264.14480156
 N     23  22  21     1.360594021994   115.62122586   329.55573634
 C     24  23  22     1.448205568944   122.37271136   176.95056463
 C     25  24  23     1.542740742323   111.34797205   293.22096449
 O     23  22  21     1.233343089833   121.61010595   150.98565543
 C     22  21  20     1.541290994849   109.30233334   140.12577106
 C     28  22  21     1.535633030778   116.15926278   179.92985373
 C     29  28  22     1.532313642305   112.10151553    59.52612052
 C     29  28  22     1.533181043295   109.35624287   183.24011708
 O     20  19  18     1.233736913113   118.95406419   184.22608538
 C     19  18  17     1.550734287870   110.97708490    43.58614967
 C     33  19  18     1.520995473303   118.74933044   260.70801782
 C     34  33  19     1.540487501309   110.69858465   246.59692576
 C     35  34  33     1.527683033291   112.32447841   178.03948504
 C     36  35  34     1.529904909094   113.27847145   178.04829628
 C     37  36  35     1.530356160188   113.11019157   178.55621506
 C     38  37  36     1.530150303719   113.62976183   180.15181211
 C     39  38  37     1.530202195090   113.49216929   179.95571022
 C     40  39  38     1.530958815370   113.63145012   180.03769676
 C     41  40  39     1.529883777148   113.13651243   180.01914485
 O     33  19  18     1.217172954383   120.12139455    79.80510200
 O     18  17  16     1.431483252654   110.87557403   279.97958282
 O     15  14  13     1.242906217887   119.88088274   288.50000376
 C     14  13  12     1.539966890330   113.56866590    91.30493681
 C     46  14  13     1.526373107365   114.76638163   299.37562350
 O     12  11  10     1.228471313507   121.12724195   150.01748191
 C     11  10   2     1.549923025677   110.27863963   153.21208227
 C     49  11  10     1.534243920567   113.20324064    63.21531338
 C     49  11  10     1.531324982594   111.41505391   189.08144817
 H      3   2   1     1.098104926263   104.69551880    38.63337471
 H      4   3   2     1.099465815600   109.43996859   144.02843200
 H      4   3   2     1.096111839795   111.58485766    24.74212095
 H      5   4   3     1.100142200595   110.39273325    79.34241172
 H      5   4   3     1.096888128762   113.19295584   200.43687063
 H      6   5   4     1.098059514319   113.51831120   154.68295251
 H      6   5   4     1.102227435440   110.77040840   276.38001587
 H     10   2   1     1.015688956896   118.43687233   182.56213901
 H     11  10   2     1.098576796271   107.06370931    34.60702010
 H     13  12  11     1.018596441174   118.41435244    16.19018416
 H     14  13  12     1.102498688164   107.33663992   329.88356821
 H     16  15  14     1.014902216775   118.37932723   351.37786125
 H     17  16  15     1.097170559884   108.54728872   161.48362742
 H     17  16  15     1.099361016260   107.74081496    44.42605623
 H     18  17  16     1.104159471675   108.52742739    39.29891185
 H     19  18  17     1.099382629030   106.29151388   158.11278748
 H     21  20  19     1.025016496113   120.91077747     1.25546338
 H     22  21  20     1.097078267556   107.04555422    19.71389077
 H     24  23  22     1.021718781353   121.47539791   358.13900188
 H     25  24  23     1.102597603770   109.36806847    53.53258219
 H     26  25  24     1.095903390709   108.59679054    57.65334761
 H     26  25  24     1.097718377694   111.84833800   177.43597372
 H     26  25  24     1.097444409679   109.77775228   298.26465025
 H     28  22  21     1.102845386849   108.15405146    56.51646950
 H     28  22  21     1.103456268144   106.94068192   302.01898505
 H     29  28  22     1.102916462494   108.19791408   300.89781097
 H     30  29  28     1.097613554047   111.39505289   295.78661159
 H     30  29  28     1.102150863533   110.78024872    56.73518642
 H     30  29  28     1.099765592534   110.69708713   176.13601032
 H     31  29  28     1.100558615654   111.47697209    56.99451752
 H     31  29  28     1.099676647463   111.06990098   177.46071180
 H     31  29  28     1.101858272904   110.84522156   297.04766290
 H     34  33  19     1.102455932423   107.38448856   127.21225936
 H     34  33  19     1.100573752935   111.32376184     9.04163095
 H     35  34  33     1.100065671599   108.47341841    56.56133558
 H     35  34  33     1.101065734185   108.34884848   300.40444753
 H     36  35  34     1.105315667827   109.74586072    55.52969742
 H     36  35  34     1.102863217257   109.00774976   299.45891593
 H     37  36  35     1.103543110984   109.13549128    56.54786620
 H     37  36  35     1.103955005609   109.43925244   300.87931351
 H     38  37  36     1.104787961672   109.29446049    57.84133050
 H     38  37  36     1.104438157820   109.17182832   302.35915541
 H     39  38  37     1.104130430137   109.23908030    57.70776138
 H     39  38  37     1.104318659428   109.29591724   302.24305023
 H     40  39  38     1.104788463631   109.31015287    57.76379993
 H     40  39  38     1.104653796658   109.28936385   302.30127171
 H     41  40  39     1.103305166975   109.11178752    57.68581141
 H     41  40  39     1.103387260331   109.12575082   302.36169063
 H     42  41  40     1.099478424258   111.67066431   180.00127993
 H     42  41  40     1.100804729510   111.08005239   300.22641205
 H     42  41  40     1.100850399442   111.08495774    59.77076690
 H     44  18  17     0.973431247094   107.39625559    65.43127968
 H     46  14  13     1.103341928945   107.18308251   177.06339935
 H     46  14  13     1.099950636780   107.41222413    63.06291108
 H     47  46  14     1.099145488392   110.01868202   181.97916092
 H     47  46  14     1.097614375745   111.85598632   302.77222123
 H     47  46  14     1.097928052126   111.31011155    62.57460248
 H     49  11  10     1.104488076100   104.72595969   305.64672945
 H     50  49  11     1.101818860925   113.16091655   303.74068171
 H     50  49  11     1.098859231866   111.26915652    64.78862139
 H     50  49  11     1.098772517532   110.07431341   184.40658419
 H     51  49  11     1.098457612414   111.33750454    55.02464721
 H     51  49  11     1.099169476682   110.07911638   175.18733911
 H     51  49  11     1.098234043685   111.36419506   295.34471141

---------------------------
INTERNAL COORDINATES (A.U.)
---------------------------
 O      0   0   0     0.000000000000     0.00000000     0.00000000
 C      1   0   0     2.318318001919     0.00000000     0.00000000
 C      2   1   0     2.898015511294   120.05292061     0.00000000
 C      3   2   1     2.918065911179   111.91793866   276.72712530
 C      4   3   2     2.901831246764   103.82645500   261.72067902
 C      5   4   3     2.894068769886   102.92477381   321.73689928
 N      6   5   4     2.786232879557   102.63320054    34.87542531
 C      7   6   5     2.572981020405   127.72925942   171.20154621
 O      8   7   6     2.344248696643   120.79432204   182.76287132
 N      2   1   3     2.578807744529   123.43806085   183.21325809
 C     10   2   1     2.748173963808   121.32650212   356.73282658
 C     11  10   2     2.915832965233   113.24066521   279.98704891
 N     12  11  10     2.579739249472   115.22362457   326.64539982
 C     13  12  11     2.765275421417   122.22302572   178.16783926
 C     14  13  12     2.885471880374   105.79648624   210.52351741
 N     15  14  13     2.553349874603   118.09206577   107.65609137
 C     16  15  14     2.764027345610   119.65886364   187.42685286
 C     17  16  15     2.911777732475   111.86147570   281.33214696
 C     18  17  16     2.916870763049   113.14554793   158.68760111
 C     19  18  17     2.899725653952   116.78533366   276.75496516
 N     20  19  18     2.573778077818   117.83475308     5.31067319
 C     21  20  19     2.752198214476   122.52280820   173.43143172
 C     22  21  20     2.912935317163   112.60565061   264.14480156
 N     23  22  21     2.571150081020   115.62122586   329.55573634
 C     24  23  22     2.736711910925   122.37271136   176.95056463
 C     25  24  23     2.915357498633   111.34797205   293.22096449
 O     23  22  21     2.330680668948   121.61010595   150.98565543
 C     22  21  20     2.912617872944   109.30233334   140.12577106
 C     28  22  21     2.901925870374   116.15926278   179.92985373
 C     29  28  22     2.895653135227   112.10151553    59.52612052
 C     29  28  22     2.897292285547   109.35624287   183.24011708
 O     20  19  18     2.331424887093   118.95406419   184.22608538
 C     19  18  17     2.930463110555   110.97708490    43.58614967
 C     33  19  18     2.874264895477   118.74933044   260.70801782
 C     34  33  19     2.911099490202   110.69858465   246.59692576
 C     35  34  33     2.886902552358   112.32447841   178.03948504
 C     36  35  34     2.891101289130   113.27847145   178.04829628
 C     37  36  35     2.891954030115   113.11019157   178.55621506
 C     38  37  36     2.891565017765   113.62976183   180.15181211
 C     39  38  37     2.891663078245   113.49216929   179.95571022
 C     40  39  38     2.893092883362   113.63145012   180.03769676
 C     41  40  39     2.891061355538   113.13651243   180.01914485
 O     33  19  18     2.300123541399   120.12139455    79.80510200
 O     18  17  16     2.705111312810   110.87557403   279.97958282
 O     15  14  13     2.348752361955   119.88088274   288.50000376
 C     14  13  12     2.910115678030   113.56866590    91.30493681
 C     46  14  13     2.884427151102   114.76638163   299.37562350
 O     12  11  10     2.321474345906   121.12724195   150.01748191
 C     11  10   2     2.928930047189   110.27863963   153.21208227
 C     49  11  10     2.899300832505   113.20324064    63.21531338
 C     49  11  10     2.893784839134   111.41505391   189.08144817
 H      3   2   1     2.075117576947   104.69551880    38.63337471
 H      4   3   2     2.077689285092   109.43996859   144.02843200
 H      4   3   2     2.071351189361   111.58485766    24.74212095
 H      5   4   3     2.078967467494   110.39273325    79.34241172
 H      5   4   3     2.072818162909   113.19295584   200.43687063
 H      6   5   4     2.075031760809   113.51831120   154.68295251
 H      6   5   4     2.082907990276   110.77040840   276.38001587
 H     10   2   1     1.919373965782   118.43687233   182.56213901
[...]
freq.      82.40  E(vib)   ...       0.48 
freq.      86.00  E(vib)   ...       0.48 
freq.      89.76  E(vib)   ...       0.47 
freq.      92.66  E(vib)   ...       0.47 
freq.      95.30  E(vib)   ...       0.47 
freq.      99.94  E(vib)   ...       0.46 
freq.     104.28  E(vib)   ...       0.46 
freq.     109.70  E(vib)   ...       0.45 
freq.     114.42  E(vib)   ...       0.44 
freq.     119.46  E(vib)   ...       0.44 
freq.     125.49  E(vib)   ...       0.43 
freq.     129.53  E(vib)   ...       0.43 
freq.     137.01  E(vib)   ...       0.42 
freq.     143.18  E(vib)   ...       0.41 
freq.     146.14  E(vib)   ...       0.41 
freq.     156.48  E(vib)   ...       0.40 
freq.     159.56  E(vib)   ...       0.39 
freq.     160.33  E(vib)   ...       0.39 
freq.     164.40  E(vib)   ...       0.39 
freq.     172.65  E(vib)   ...       0.38 
freq.     177.43  E(vib)   ...       0.37 
freq.     186.62  E(vib)   ...       0.37 
freq.     202.92  E(vib)   ...       0.35 
freq.     211.12  E(vib)   ...       0.34 
freq.     216.26  E(vib)   ...       0.34 
freq.     218.71  E(vib)   ...       0.33 
freq.     220.04  E(vib)   ...       0.33 
freq.     224.32  E(vib)   ...       0.33 
freq.     225.04  E(vib)   ...       0.33 
freq.     227.57  E(vib)   ...       0.33 
freq.     232.40  E(vib)   ...       0.32 
freq.     237.23  E(vib)   ...       0.32 
freq.     237.51  E(vib)   ...       0.32 
freq.     241.32  E(vib)   ...       0.31 
freq.     247.06  E(vib)   ...       0.31 
freq.     251.59  E(vib)   ...       0.30 
freq.     253.80  E(vib)   ...       0.30 
freq.     263.40  E(vib)   ...       0.29 
freq.     272.25  E(vib)   ...       0.29 
freq.     278.51  E(vib)   ...       0.28 
freq.     284.53  E(vib)   ...       0.28 
freq.     289.77  E(vib)   ...       0.27 
freq.     297.99  E(vib)   ...       0.27 
freq.     305.76  E(vib)   ...       0.26 
freq.     306.44  E(vib)   ...       0.26 
freq.     310.89  E(vib)   ...       0.26 
freq.     333.59  E(vib)   ...       0.24 
freq.     344.32  E(vib)   ...       0.23 
freq.     352.43  E(vib)   ...       0.23 
freq.     354.15  E(vib)   ...       0.22 
freq.     366.44  E(vib)   ...       0.22 
freq.     387.03  E(vib)   ...       0.20 
freq.     389.28  E(vib)   ...       0.20 
freq.     401.34  E(vib)   ...       0.19 
freq.     408.77  E(vib)   ...       0.19 
freq.     415.03  E(vib)   ...       0.19 
freq.     420.69  E(vib)   ...       0.18 
freq.     442.67  E(vib)   ...       0.17 
freq.     446.45  E(vib)   ...       0.17 
freq.     450.59  E(vib)   ...       0.17 
freq.     467.39  E(vib)   ...       0.16 
freq.     469.52  E(vib)   ...       0.16 
freq.     473.22  E(vib)   ...       0.15 
freq.     478.66  E(vib)   ...       0.15 
freq.     484.41  E(vib)   ...       0.15 
freq.     490.70  E(vib)   ...       0.15 
freq.     500.82  E(vib)   ...       0.14 
freq.     510.74  E(vib)   ...       0.14 
freq.     519.42  E(vib)   ...       0.13 
freq.     528.02  E(vib)   ...       0.13 
freq.     541.89  E(vib)   ...       0.12 
freq.     568.86  E(vib)   ...       0.11 
freq.     581.50  E(vib)   ...       0.11 
freq.     585.56  E(vib)   ...       0.11 
freq.     614.08  E(vib)   ...       0.10 
freq.     638.20  E(vib)   ...       0.09 
freq.     642.49  E(vib)   ...       0.09 
freq.     653.22  E(vib)   ...       0.08 
freq.     682.09  E(vib)   ...       0.08 
freq.     712.12  E(vib)   ...       0.07 
freq.     714.34  E(vib)   ...       0.07 
freq.     716.92  E(vib)   ...       0.07 
freq.     717.48  E(vib)   ...       0.07 
freq.     724.30  E(vib)   ...       0.06 
freq.     728.13  E(vib)   ...       0.06 
freq.     734.07  E(vib)   ...       0.06 
freq.     738.35  E(vib)   ...       0.06 
freq.     743.27  E(vib)   ...       0.06 
freq.     748.18  E(vib)   ...       0.06 
freq.     755.59  E(vib)   ...       0.06 
freq.     763.21  E(vib)   ...       0.06 
freq.     772.26  E(vib)   ...       0.05 
freq.     777.58  E(vib)   ...       0.05 
freq.     792.46  E(vib)   ...       0.05 
freq.     800.91  E(vib)   ...       0.05 
freq.     810.95  E(vib)   ...       0.05 
freq.     814.77  E(vib)   ...       0.05 
freq.     817.52  E(vib)   ...       0.05 
freq.     848.17  E(vib)   ...       0.04 
freq.     850.20  E(vib)   ...       0.04 
freq.     867.63  E(vib)   ...       0.04 
freq.     870.55  E(vib)   ...       0.04 
freq.     873.05  E(vib)   ...       0.04 
freq.     877.32  E(vib)   ...       0.04 
freq.     878.08  E(vib)   ...       0.04 
freq.     880.41  E(vib)   ...       0.04 
freq.     894.13  E(vib)   ...       0.03 
freq.     902.95  E(vib)   ...       0.03 
freq.     903.97  E(vib)   ...       0.03 
freq.     907.45  E(vib)   ...       0.03 
freq.     914.81  E(vib)   ...       0.03 
freq.     925.39  E(vib)   ...       0.03 
freq.     935.07  E(vib)   ...       0.03 
freq.     940.45  E(vib)   ...       0.03 
freq.     940.67  E(vib)   ...       0.03 
freq.     944.14  E(vib)   ...       0.03 
freq.     946.01  E(vib)   ...       0.03 
freq.     951.67  E(vib)   ...       0.03 
freq.     964.13  E(vib)   ...       0.03 
freq.     969.16  E(vib)   ...       0.03 
freq.     975.82  E(vib)   ...       0.03 
freq.     978.25  E(vib)   ...       0.03 
freq.     978.60  E(vib)   ...       0.03 
freq.     980.44  E(vib)   ...       0.02 
freq.     988.86  E(vib)   ...       0.02 
freq.    1005.46  E(vib)   ...       0.02 
freq.    1013.47  E(vib)   ...       0.02 
freq.    1024.78  E(vib)   ...       0.02 
freq.    1027.31  E(vib)   ...       0.02 
freq.    1030.24  E(vib)   ...       0.02 
freq.    1032.14  E(vib)   ...       0.02 
freq.    1034.93  E(vib)   ...       0.02 
freq.    1040.74  E(vib)   ...       0.02 
freq.    1047.95  E(vib)   ...       0.02 
freq.    1050.18  E(vib)   ...       0.02 
freq.    1052.26  E(vib)   ...       0.02 
freq.    1053.35  E(vib)   ...       0.02 
freq.    1061.04  E(vib)   ...       0.02 
freq.    1064.15  E(vib)   ...       0.02 
freq.    1068.36  E(vib)   ...       0.02 
freq.    1069.91  E(vib)   ...       0.02 
freq.    1073.68  E(vib)   ...       0.02 
freq.    1084.43  E(vib)   ...       0.02 
freq.    1087.97  E(vib)   ...       0.02 
freq.    1100.61  E(vib)   ...       0.02 
freq.    1104.63  E(vib)   ...       0.02 
freq.    1109.33  E(vib)   ...       0.02 
freq.    1122.33  E(vib)   ...       0.01 
freq.    1123.60  E(vib)   ...       0.01 
freq.    1131.02  E(vib)   ...       0.01 
freq.    1132.30  E(vib)   ...       0.01 
freq.    1144.59  E(vib)   ...       0.01 
freq.    1148.69  E(vib)   ...       0.01 
freq.    1156.49  E(vib)   ...       0.01 
freq.    1158.78  E(vib)   ...       0.01 
freq.    1160.12  E(vib)   ...       0.01 
freq.    1167.00  E(vib)   ...       0.01 
freq.    1171.50  E(vib)   ...       0.01 
freq.    1182.26  E(vib)   ...       0.01 
freq.    1189.10  E(vib)   ...       0.01 
freq.    1189.58  E(vib)   ...       0.01 
freq.    1192.90  E(vib)   ...       0.01 
freq.    1196.27  E(vib)   ...       0.01 
freq.    1207.33  E(vib)   ...       0.01 
freq.    1209.21  E(vib)   ...       0.01 
freq.    1217.91  E(vib)   ...       0.01 
freq.    1225.45  E(vib)   ...       0.01 
freq.    1229.00  E(vib)   ...       0.01 
freq.    1230.28  E(vib)   ...       0.01 
freq.    1239.56  E(vib)   ...       0.01 
freq.    1241.04  E(vib)   ...       0.01 
freq.    1241.91  E(vib)   ...       0.01 
freq.    1247.18  E(vib)   ...       0.01 
freq.    1250.90  E(vib)   ...       0.01 
freq.    1255.15  E(vib)   ...       0.01 
freq.    1258.07  E(vib)   ...       0.01 
freq.    1261.91  E(vib)   ...       0.01 
freq.    1263.42  E(vib)   ...       0.01 
freq.    1271.30  E(vib)   ...       0.01 
freq.    1274.22  E(vib)   ...       0.01 
freq.    1283.20  E(vib)   ...       0.01 
freq.    1283.31  E(vib)   ...       0.01 
freq.    1286.93  E(vib)   ...       0.01 
freq.    1289.93  E(vib)   ...       0.01 
freq.    1291.56  E(vib)   ...       0.01 
freq.    1292.86  E(vib)   ...       0.01 
freq.    1293.63  E(vib)   ...       0.01 
freq.    1296.63  E(vib)   ...       0.01 
freq.    1298.18  E(vib)   ...       0.01 
freq.    1300.17  E(vib)   ...       0.01 
freq.    1303.40  E(vib)   ...       0.01 
freq.    1305.29  E(vib)   ...       0.01 
freq.    1306.42  E(vib)   ...       0.01 
freq.    1307.90  E(vib)   ...       0.01 
freq.    1316.84  E(vib)   ...       0.01 
freq.    1319.47  E(vib)   ...       0.01 
freq.    1320.90  E(vib)   ...       0.01 
freq.    1323.25  E(vib)   ...       0.01 
freq.    1330.57  E(vib)   ...       0.01 
freq.    1333.94  E(vib)   ...       0.01 
freq.    1339.47  E(vib)   ...       0.01 
freq.    1340.68  E(vib)   ...       0.01 
freq.    1341.26  E(vib)   ...       0.01 
freq.    1342.20  E(vib)   ...       0.01 
freq.    1348.39  E(vib)   ...       0.01 
freq.    1348.88  E(vib)   ...       0.01 
freq.    1349.34  E(vib)   ...       0.01 
freq.    1350.06  E(vib)   ...       0.01 
freq.    1359.73  E(vib)   ...       0.01 
freq.    1363.23  E(vib)   ...       0.01 
freq.    1369.84  E(vib)   ...       0.01 
freq.    1369.97  E(vib)   ...       0.01 
freq.    1381.01  E(vib)   ...       0.01 
freq.    1384.26  E(vib)   ...       0.00 
freq.    1402.35  E(vib)   ...       0.00 
freq.    1423.36  E(vib)   ...       0.00 
freq.    1430.09  E(vib)   ...       0.00 
freq.    1431.03  E(vib)   ...       0.00 
freq.    1431.30  E(vib)   ...       0.00 
freq.    1433.13  E(vib)   ...       0.00 
freq.    1433.21  E(vib)   ...       0.00 
freq.    1434.19  E(vib)   ...       0.00 
freq.    1434.29  E(vib)   ...       0.00 
freq.    1438.32  E(vib)   ...       0.00 
freq.    1439.69  E(vib)   ...       0.00 
freq.    1440.71  E(vib)   ...       0.00 
freq.    1442.63  E(vib)   ...       0.00 
freq.    1445.40  E(vib)   ...       0.00 
freq.    1445.75  E(vib)   ...       0.00 
freq.    1447.00  E(vib)   ...       0.00 
freq.    1447.31  E(vib)   ...       0.00 
freq.    1447.85  E(vib)   ...       0.00 
freq.    1450.92  E(vib)   ...       0.00 
freq.    1452.02  E(vib)   ...       0.00 
freq.    1453.89  E(vib)   ...       0.00 
freq.    1454.44  E(vib)   ...       0.00 
freq.    1455.10  E(vib)   ...       0.00 
freq.    1456.13  E(vib)   ...       0.00 
freq.    1457.08  E(vib)   ...       0.00 
freq.    1461.14  E(vib)   ...       0.00 
freq.    1463.50  E(vib)   ...       0.00 
freq.    1465.09  E(vib)   ...       0.00 
freq.    1465.67  E(vib)   ...       0.00 
freq.    1472.03  E(vib)   ...       0.00 
freq.    1479.58  E(vib)   ...       0.00 
freq.    1484.16  E(vib)   ...       0.00 
freq.    1494.81  E(vib)   ...       0.00 
freq.    1531.76  E(vib)   ...       0.00 
freq.    1628.41  E(vib)   ...       0.00 
freq.    1641.66  E(vib)   ...       0.00 
freq.    1660.09  E(vib)   ...       0.00 
freq.    1670.18  E(vib)   ...       0.00 
freq.    1686.79  E(vib)   ...       0.00 
freq.    1699.17  E(vib)   ...       0.00 
freq.    1717.43  E(vib)   ...       0.00 
freq.    2923.25  E(vib)   ...       0.00 
freq.    2923.92  E(vib)   ...       0.00 
freq.    2925.39  E(vib)   ...       0.00 
freq.    2932.45  E(vib)   ...       0.00 
freq.    2933.29  E(vib)   ...       0.00 
freq.    2934.30  E(vib)   ...       0.00 
freq.    2939.92  E(vib)   ...       0.00 
freq.    2941.09  E(vib)   ...       0.00 
freq.    2942.27  E(vib)   ...       0.00 
freq.    2945.25  E(vib)   ...       0.00 
freq.    2948.84  E(vib)   ...       0.00 
freq.    2949.33  E(vib)   ...       0.00 
freq.    2950.38  E(vib)   ...       0.00 
freq.    2952.55  E(vib)   ...       0.00 
freq.    2952.87  E(vib)   ...       0.00 
freq.    2953.91  E(vib)   ...       0.00 
freq.    2955.97  E(vib)   ...       0.00 
freq.    2956.56  E(vib)   ...       0.00 
freq.    2959.53  E(vib)   ...       0.00 
freq.    2959.64  E(vib)   ...       0.00 
freq.    2960.66  E(vib)   ...       0.00 
freq.    2965.53  E(vib)   ...       0.00 
freq.    2969.01  E(vib)   ...       0.00 
freq.    2972.75  E(vib)   ...       0.00 
freq.    2974.13  E(vib)   ...       0.00 
freq.    2976.52  E(vib)   ...       0.00 
freq.    2981.80  E(vib)   ...       0.00 
freq.    2982.83  E(vib)   ...       0.00 
freq.    2984.76  E(vib)   ...       0.00 
freq.    2985.20  E(vib)   ...       0.00 
freq.    2989.80  E(vib)   ...       0.00 
freq.    2992.18  E(vib)   ...       0.00 
freq.    2992.45  E(vib)   ...       0.00 
freq.    3000.88  E(vib)   ...       0.00 
freq.    3008.30  E(vib)   ...       0.00 
freq.    3012.60  E(vib)   ...       0.00 
freq.    3013.10  E(vib)   ...       0.00 
freq.    3016.29  E(vib)   ...       0.00 
freq.    3016.95  E(vib)   ...       0.00 
freq.    3017.71  E(vib)   ...       0.00 
freq.    3019.17  E(vib)   ...       0.00 
freq.    3019.21  E(vib)   ...       0.00 
freq.    3019.77  E(vib)   ...       0.00 
freq.    3025.09  E(vib)   ...       0.00 
freq.    3025.93  E(vib)   ...       0.00 
freq.    3026.87  E(vib)   ...       0.00 
freq.    3038.07  E(vib)   ...       0.00 
freq.    3040.47  E(vib)   ...       0.00 
freq.    3041.70  E(vib)   ...       0.00 
freq.    3043.16  E(vib)   ...       0.00 
freq.    3046.11  E(vib)   ...       0.00 
freq.    3047.94  E(vib)   ...       0.00 
freq.    3049.20  E(vib)   ...       0.00 
freq.    3052.21  E(vib)   ...       0.00 
freq.    3054.56  E(vib)   ...       0.00 
freq.    3056.91  E(vib)   ...       0.00 
freq.    3058.66  E(vib)   ...       0.00 
freq.    3075.72  E(vib)   ...       0.00 
freq.    3328.17  E(vib)   ...       0.00 
freq.    3416.53  E(vib)   ...       0.00 
freq.    3469.62  E(vib)   ...       0.00 
freq.    3503.50  E(vib)   ...       0.00 
freq.    3527.48  E(vib)   ...       0.00 
freq.    3671.82  E(vib)   ...       0.00 

------------
INNER ENERGY
------------

The inner energy is: U= E(el) + E(ZPE) + E(vib) + E(rot) + E(trans)
    E(el)   - is the total energy from the electronic structure calculation
              = E(kin-el) + E(nuc-el) + E(el-el) + E(nuc-nuc)
    E(ZPE)  - the the zero temperature vibrational energy from the frequency calculation
    E(vib)  - the the finite temperature correction to E(ZPE) due to population
              of excited vibrational states
    E(rot)  - is the rotational thermal energy
    E(trans)- is the translational thermal energy

Summary of contributions to the inner energy U:
Electronic energy                ...  -2380.06344761 Eh
Zero point energy                ...      0.97580128 Eh     612.32 kcal/mol
Thermal vibrational correction   ...      0.05584506 Eh      35.04 kcal/mol
Thermal rotational correction    ...      0.00141627 Eh       0.89 kcal/mol
Thermal translational correction ...      0.00141627 Eh       0.89 kcal/mol
-----------------------------------------------------------------------
Total thermal energy                  -2379.02896873 Eh


Summary of corrections to the electronic energy:
(perhaps to be used in another calculation)
Total thermal correction                  0.05867760 Eh      36.82 kcal/mol
Non-thermal (ZPE) correction              0.97580128 Eh     612.32 kcal/mol
-----------------------------------------------------------------------
Total correction                          1.03447888 Eh     649.14 kcal/mol


--------
ENTHALPY
--------

The enthalpy is H = U + kB*T
                kB is Boltzmann's constant
Total free energy                 ...  -2379.02896873 Eh 
Thermal Enthalpy correction       ...      0.00094421 Eh       0.59 kcal/mol
-----------------------------------------------------------------------
Total Enthalpy                    ...  -2379.02802452 Eh


Note: Only C1 symmetry has been detected, increase convergence thresholds 
      if your molecule has a higher symmetry. Symmetry factor of 1.0 is   
      used for the rotational entropy correction. 
 

Note: Rotational entropy computed according to Herzberg 
Infrared and Raman Spectra, Chapter V,1, Van Nostrand Reinhold, 1945 
Point Group:  C1, Symmetry Number:   1  
Rotational constants in cm-1:     0.002155     0.001090     0.000947 

Vibrational entropy computed according to the QRRHO of S. Grimme
Chem.Eur.J. 2012 18 9955


-------
ENTROPY
-------

The entropy contributions are T*S = T*(S(el)+S(vib)+S(rot)+S(trans))
     S(el)   - electronic entropy
     S(vib)  - vibrational entropy
     S(rot)  - rotational entropy
     S(trans)- translational entropy
The entropies will be listed as mutliplied by the temperature to get
units of energy

Electronic entropy                ...      0.00000000 Eh      0.00 kcal/mol
Vibrational entropy               ...      0.10283778 Eh     64.53 kcal/mol
Rotational entropy                ...      0.01891668 Eh     11.87 kcal/mol
Translational entropy             ...      0.02166895 Eh     13.60 kcal/mol
-----------------------------------------------------------------------
Final entropy term                ...      0.14342341 Eh     90.00 kcal/mol

In case the symmetry of your molecule has not been determined correctly
or in case you have a reason to use a different symmetry number we print 
out the resulting rotational entropy values for sn=1,12 :
 --------------------------------------------------------
|  sn= 1 | S(rot)=       0.01891668 Eh     11.87 kcal/mol|
|  sn= 2 | S(rot)=       0.01826222 Eh     11.46 kcal/mol|
|  sn= 3 | S(rot)=       0.01787939 Eh     11.22 kcal/mol|
|  sn= 4 | S(rot)=       0.01760777 Eh     11.05 kcal/mol|
|  sn= 5 | S(rot)=       0.01739708 Eh     10.92 kcal/mol|
|  sn= 6 | S(rot)=       0.01722493 Eh     10.81 kcal/mol|
|  sn= 7 | S(rot)=       0.01707939 Eh     10.72 kcal/mol|
|  sn= 8 | S(rot)=       0.01695331 Eh     10.64 kcal/mol|
|  sn= 9 | S(rot)=       0.01684210 Eh     10.57 kcal/mol|
|  sn=10 | S(rot)=       0.01674262 Eh     10.51 kcal/mol|
|  sn=11 | S(rot)=       0.01665263 Eh     10.45 kcal/mol|
|  sn=12 | S(rot)=       0.01657048 Eh     10.40 kcal/mol|
 --------------------------------------------------------


-------------------
GIBBS FREE ENERGY
-------------------

The Gibbs free energy is G = H - T*S

Total enthalpy                    ...  -2379.02802452 Eh 
Total entropy correction          ...     -0.14342341 Eh    -90.00 kcal/mol
-----------------------------------------------------------------------
Final Gibbs free energy         ...  -2379.17144794 Eh

For completeness - the Gibbs free energy minus the electronic energy
G-E(el)                           ...      0.89199968 Eh    559.74 kcal/mol

--------------------------------------------------------------------------
WARNING: No preset parameters were found for the device that Open MPI
detected:

  Local host:            eu-g1-046-4
  Device name:           mlx5_0
  Device vendor ID:      0x02c9
  Device vendor part ID: 4123

Default device parameters will be used, which may result in lower
performance.  You can edit any of the files specified by the
btl_openib_device_param_files MCA parameter to set values for your
device.

NOTE: You can turn off this warning by setting the MCA parameter
      btl_openib_warn_no_device_params_found to 0.
--------------------------------------------------------------------------
--------------------------------------------------------------------------
WARNING: There was an error initializing an OpenFabrics device.

  Local host:   eu-g1-046-4
  Local device: mlx5_0
--------------------------------------------------------------------------

Timings for individual modules:

Sum of individual times         ...    35320.528 sec (= 588.675 min)
GTO integral calculation        ...       25.944 sec (=   0.432 min)   0.1 %
SCF iterations                  ...      748.596 sec (=  12.477 min)   2.1 %
SCF Gradient evaluation         ...      239.980 sec (=   4.000 min)   0.7 %
Geometry relaxation             ...        9.689 sec (=   0.161 min)   0.0 %
Analytical frequency calculation...    34296.318 sec (= 571.605 min)  97.1 %
                             ****ORCA TERMINATED NORMALLY****
TOTAL RUN TIME: 0 days 9 hours 49 minutes 2 seconds 655 msec
