
                                 *****************
                                 * O   R   C   A *
                                 *****************

           --- An Ab Initio, DFT and Semiempirical electronic structure package ---

                  #######################################################
                  #                        -***-                        #
                  #          Department of theory and spectroscopy      #
                  #               Directorship: Frank Neese             #
                  #        Max Planck Institute fuer Kohlenforschung    #
                  #                Kaiser Wilhelm Platz 1               #
                  #                 D-45470 Muelheim/Ruhr               #
                  #                      Germany                        #
                  #                                                     #
                  #                  All rights reserved                #
                  #                        -***-                        #
                  #######################################################


                         Program Version 4.2.0 -  RELEASE  -


 With contributions from (in alphabetic order):
   Daniel Aravena         : Magnetic Suceptibility
   Michael Atanasov       : Ab Initio Ligand Field Theory (pilot matlab implementation)
   Alexander A. Auer      : GIAO ZORA, VPT2
   Ute Becker             : Parallelization
   Giovanni Bistoni       : ED, misc. LED, open-shell LED, HFLED
   Martin Brehm           : Molecular dynamics
   Dmytro Bykov           : SCF Hessian
   Vijay G. Chilkuri      : MRCI spin determinant printing, contributions to CSF-ICE
   Dipayan Datta          : RHF DLPNO-CCSD density
   Achintya Kumar Dutta   : EOM-CC, STEOM-CC
   Dmitry Ganyushin       : Spin-Orbit,Spin-Spin,Magnetic field MRCI
   Miquel Garcia          : C-PCM Hessian, Gaussian charge scheme
   Yang Guo               : DLPNO-NEVPT2, CIM, IAO-localization
   Andreas Hansen         : Spin unrestricted coupled pair/coupled cluster methods
   Benjamin Helmich-Paris : CASSCF linear response (MC-RPA)
   Lee Huntington         : MR-EOM, pCC
   Robert Izsak           : Overlap fitted RIJCOSX, COSX-SCS-MP3, EOM
   Christian Kollmar      : KDIIS, OOCD, Brueckner-CCSD(T), CCSD density
   Simone Kossmann        : Meta GGA functionals, TD-DFT gradient, OOMP2, MP2 Hessian
   Martin Krupicka        : AUTO-CI
   Lucas Lang             : DCDCAS
   Dagmar Lenk            : GEPOL surface, SMD
   Dimitrios Liakos       : Extrapolation schemes; Compound Job, initial MDCI parallelization
   Dimitrios Manganas     : Further ROCIS development; embedding schemes
   Dimitrios Pantazis     : SARC Basis sets
   Taras Petrenko         : DFT Hessian,TD-DFT gradient, ASA, ECA, R-Raman, ABS, FL, XAS/XES, NRVS
   Peter Pinski           : DLPNO-MP2, DLPNO-MP2 Gradient
   Christoph Reimann      : Effective Core Potentials
   Marius Retegan         : Local ZFS, SOC
   Christoph Riplinger    : Optimizer, TS searches, QM/MM, DLPNO-CCSD(T), (RO)-DLPNO pert. Triples
   Tobias Risthaus        : Range-separated hybrids, TD-DFT gradient, RPA, STAB
   Michael Roemelt        : Original ROCIS implementation
   Masaaki Saitow         : Open-shell DLPNO-CCSD energy and density
   Barbara Sandhoefer     : DKH picture change effects
   Avijit Sen             : IP-ROCIS
   Kantharuban Sivalingam : CASSCF convergence, NEVPT2, FIC-MRCI
   Bernardo de Souza      : ESD, SOC TD-DFT
   Georgi Stoychev        : AutoAux, RI-MP2 NMR
   Willem Van den Heuvel  : Paramagnetic NMR
   Boris Wezisla          : Elementary symmetry handling
   Frank Wennmohs         : Technical directorship


 We gratefully acknowledge several colleagues who have allowed us to
 interface, adapt or use parts of their codes:
   Stefan Grimme, W. Hujo, H. Kruse,             : VdW corrections, initial TS optimization,
                  C. Bannwarth                     DFT functionals, gCP, sTDA/sTD-DF
   Ed Valeev, F. Pavosevic, A. Kumar             : LibInt (2-el integral package), F12 methods
   Garnet Chan, S. Sharma, J. Yang, R. Olivares  : DMRG
   Ulf Ekstrom                                   : XCFun DFT Library
   Mihaly Kallay                                 : mrcc  (arbitrary order and MRCC methods)
   Andreas Klamt, Michael Diedenhofen            : otool_cosmo (COSMO solvation model)
   Jiri Pittner, Ondrej Demel                    : Mk-CCSD
   Frank Weinhold                                : gennbo (NPA and NBO analysis)
   Christopher J. Cramer and Donald G. Truhlar   : smd solvation model
   Lars Goerigk                                  : TD-DFT with DH, B97 family of functionals
   V. Asgeirsson, H. Jonsson                     : NEB implementation
   FAccTs GmbH                                   : IRC, NEB, NEB-TS, Multilevel, MM, QM/MM, CI optimization
   S Lehtola, MJT Oliveira, MAL Marques          : LibXC Library


 Your calculation uses the libint2 library for the computation of 2-el integrals
 For citations please refer to: http://libint.valeyev.net

 Your ORCA version has been built with support for libXC version: 4.2.3
 For citations please refer to: https://tddft.org/programs/libxc/

 This ORCA versions uses:
   CBLAS   interface :  Fast vector & matrix operations
   LAPACKE interface :  Fast linear algebra routines
   SCALAPACK package :  Parallel linear algebra routines




***************************************
The coordinates will be read from file: 4.xyz
***************************************


Your calculation utilizes the atom-pairwise dispersion correction
with the Becke-Johnson damping scheme (D3BJ)
Cite in your paper:
S.Grimme, S.Ehrlich, L.Goerigk, J Comput Chem, (2011), 32, 1456–1465 
S.Grimme, J.Antony, S.Ehrlich and H.Krieg, J.Chem.Phys., 132, (2010), 154104 
   

----- Orbital basis set information -----
Your calculation utilizes the basis: def2-TZVP
   F. Weigend and R. Ahlrichs, Phys. Chem. Chem. Phys. 7, 3297 (2005).

----- AuxJ basis set information -----
Your calculation utilizes the auxiliary basis: def2/J
   F. Weigend, Phys. Chem. Chem. Phys. 8, 1057 (2006).

================================================================================
                                        WARNINGS
                       Please study these warnings very carefully!
================================================================================


WARNING: Geometry Optimization
  ===> : Switching off AutoStart
         For restart on a previous wavefunction, please use MOREAD

INFO   : the flag for use of LIBINT has been found!

================================================================================
                                       INPUT FILE
================================================================================
NAME = 4.inp
|  1> !RI BP86 def2-tzvp def2/J D3BJ TIGHTSCF TightOpt Grid5 FinalGrid6 freq
|  2> %maxcore 4000
|  3> %pal nprocs 24
|  4> end
|  5> * xyzfile 0 1 4.xyz 
|  6> 
|  7>                          ****END OF INPUT****
================================================================================

                       *****************************
                       * Geometry Optimization Run *
                       *****************************

Geometry optimization settings:
Update method            Update   .... BFGS
Choice of coordinates    CoordSys .... Z-matrix Internals
Initial Hessian          InHess   .... Almoef's Model

Convergence Tolerances:
Energy Change            TolE     ....  1.0000e-06 Eh
Max. Gradient            TolMAXG  ....  1.0000e-04 Eh/bohr
RMS Gradient             TolRMSG  ....  3.0000e-05 Eh/bohr
Max. Displacement        TolMAXD  ....  1.0000e-03 bohr
RMS Displacement         TolRMSD  ....  6.0000e-04 bohr
Strict Convergence                ....  False
------------------------------------------------------------------------------
                        ORCA OPTIMIZATION COORDINATE SETUP
------------------------------------------------------------------------------

The optimization will be done in new redundant internal coordinates
Making redundant internal coordinates   ...  (new redundants) done
Evaluating the initial hessian          ...  (Almloef) done
Evaluating the coordinates              ...  done
Calculating the B-matrix                .... done
Calculating the G-matrix                .... done
Diagonalizing the G-matrix              .... done
Small eigenvalue found = 1.773e-03
Small eigenvalue found = 2.237e-03
Small eigenvalue found = 3.391e-03
Small eigenvalue found = 5.196e-03
Small eigenvalue found = 5.825e-03
Small eigenvalue found = 8.045e-03
Small eigenvalue found = 8.722e-03
Small eigenvalue found = 9.239e-03
Small eigenvalue found = 1.026e-02
Small eigenvalue found = 1.116e-02
Small eigenvalue found = 1.314e-02
Small eigenvalue found = 1.489e-02
Small eigenvalue found = 1.642e-02
Small eigenvalue found = 2.249e-02
Small eigenvalue found = 2.519e-02
Small eigenvalue found = 2.588e-02
Small eigenvalue found = 2.908e-02
The first mode is                       ....  329
The number of degrees of freedom        ....  339

    -----------------------------------------------------------------
                    Redundant Internal Coordinates


    -----------------------------------------------------------------
         Definition                    Initial Value    Approx d2E/dq
    -----------------------------------------------------------------
      1. B(C   1,O   0)                  1.2334         0.994595   
      2. B(C   2,C   1)                  1.5501         0.347000   
      3. B(C   3,C   2)                  1.5272         0.377373   
      4. B(C   4,C   3)                  1.5354         0.366297   
      5. B(C   5,C   4)                  1.5337         0.368553   
      6. B(N   6,C   5)                  1.4772         0.406199   
      7. B(N   6,C   2)                  1.4820         0.399157   
      8. B(C   7,N   6)                  1.3499         0.648399   
      9. B(O   8,C   7)                  1.2466         0.947826   
     10. B(N   9,C   1)                  1.3569         0.631884   
     11. B(C  10,N   9)                  1.4550         0.440784   
     12. B(C  11,C  10)                  1.5420         0.357499   
     13. B(N  12,C  11)                  1.3498         0.648735   
     14. B(C  13,N  12)                  1.4782         0.404723   
     15. B(C  14,C  13)                  1.5518         0.344796   
     16. B(N  15,C  14)                  1.3597         0.625476   
     17. B(C  16,N  15)                  1.4546         0.441447   
     18. B(C  17,C  16)                  1.5395         0.360781   
     19. B(C  18,C  17)                  1.5501         0.346979   
     20. B(C  19,C  18)                  1.5396         0.360681   
     21. B(N  20,C  19)                  1.3493         0.649813   
     22. B(C  21,N  20)                  1.4607         0.431551   
     23. B(C  22,C  21)                  1.5438         0.355073   
     24. B(N  23,C  22)                  1.3661         0.611063   
     25. B(C  24,C   7)                  1.5395         0.360807   
     26. B(C  24,N  23)                  1.4495         0.449723   
     27. B(C  25,C  24)                  1.5325         0.370155   
     28. B(O  26,C  22)                  1.2318         1.000645   
     29. B(C  27,C  21)                  1.5238         0.382131   
     30. B(C  28,C  27)                  1.5368         0.364396   
     31. B(C  29,C  28)                  1.5325         0.370188   
     32. B(C  30,C  28)                  1.5326         0.369990   
     33. B(O  31,C  19)                  1.2444         0.955464   
     34. B(C  32,C  18)                  1.5524         0.344122   
     35. B(C  33,C  32)                  1.5203         0.387111   
     36. B(C  34,C  33)                  1.5383         0.362408   
     37. B(C  35,C  34)                  1.5343         0.367676   
     38. B(C  36,C  35)                  1.5297         0.374016   
     39. B(C  37,C  36)                  1.5315         0.371550   
     40. B(C  38,C  37)                  1.5266         0.378205   
     41. B(C  39,C  38)                  1.5305         0.372842   
     42. B(C  40,C  39)                  1.5298         0.373850   
     43. B(C  41,C  40)                  1.5295         0.374246   
     44. B(O  42,C  32)                  1.2197         1.046181   
     45. B(O  43,C  17)                  1.4474         0.453177   
     46. B(O  44,C  14)                  1.2302         1.006397   
     47. B(C  45,C  13)                  1.5363         0.365028   
     48. B(C  46,C  45)                  1.5285         0.375656   
     49. B(O  47,C  11)                  1.2487         0.940443   
     50. B(C  48,C  10)                  1.5412         0.358451   
     51. B(C  49,C  48)                  1.5319         0.370919   
     52. B(C  50,C  48)                  1.5332         0.369247   
     53. B(H  51,C   2)                  1.0999         0.347192   
     54. B(H  52,C   3)                  1.0996         0.347579   
     55. B(H  53,C   3)                  1.0950         0.353486   
     56. B(H  54,C   4)                  1.0990         0.348348   
     57. B(H  55,C   4)                  1.0968         0.351250   
     58. B(H  56,C   5)                  1.0984         0.349152   
     59. B(H  57,C   5)                  1.1020         0.344626   
     60. B(H  58,N   9)                  1.0334         0.397114   
     61. B(H  59,C  10)                  1.1034         0.342837   
     62. B(H  60,N  12)                  1.0183         0.419764   
     63. B(H  61,C  13)                  1.0978         0.349934   
     64. B(H  62,N  15)                  1.0219         0.414170   
     65. B(H  63,C  16)                  1.1004         0.346559   
     66. B(H  64,O   8)                  4.8507         0.000000   
     67. B(H  64,C  16)                  1.0949         0.353696   
     68. B(H  65,C  17)                  1.1035         0.342735   
     69. B(H  66,C  18)                  1.1029         0.343455   
     70. B(H  67,N  20)                  1.0291         0.403387   
     71. B(H  68,C  21)                  1.1003         0.346768   
     72. B(H  69,N  23)                  1.0297         0.402467   
     73. B(H  70,C  24)                  1.0989         0.348564   
     74. B(H  71,C  25)                  1.0977         0.350005   
     75. B(H  72,C  25)                  1.0978         0.349952   
     76. B(H  73,C  25)                  1.0991         0.348276   
     77. B(H  74,C  27)                  1.1024         0.344024   
     78. B(H  75,C  27)                  1.1017         0.345012   
     79. B(H  76,C  28)                  1.1038         0.342238   
     80. B(H  77,C  29)                  1.1000         0.347054   
     81. B(H  78,C  29)                  1.1017         0.344940   
     82. B(H  79,C  29)                  1.0996         0.347641   
     83. B(H  80,C  30)                  1.0992         0.348189   
     84. B(H  81,C  30)                  1.0996         0.347683   
     85. B(H  82,C  30)                  1.1021         0.344466   
     86. B(H  83,H  73)                  2.5076         0.000377   
     87. B(H  83,C  33)                  1.0952         0.353275   
     88. B(H  84,C  33)                  1.1017         0.344954   
     89. B(H  85,C  34)                  1.1031         0.343201   
     90. B(H  86,C  34)                  1.1000         0.347049   
     91. B(H  87,C  35)                  1.0999         0.347207   
     92. B(H  88,C  35)                  1.1019         0.344712   
     93. B(H  89,H  51)                  2.2415         0.001003   
     94. B(H  89,C  36)                  1.1071         0.338138   
     95. B(H  90,C  36)                  1.1029         0.343416   
     96. B(H  91,C  37)                  1.1011         0.345697   
     97. B(H  92,C  37)                  1.1059         0.339622   
     98. B(H  93,C  38)                  1.1050         0.340816   
     99. B(H  94,C  38)                  1.1036         0.342521   
    100. B(H  95,C  39)                  1.1052         0.340488   
    101. B(H  96,H  60)                  2.3355         0.000710   
    102. B(H  96,C  39)                  1.1055         0.340196   
    103. B(H  97,C  40)                  1.1032         0.343113   
    104. B(H  98,C  40)                  1.1032         0.343007   
    105. B(H  99,C  41)                  1.0994         0.347872   
    106. B(H 100,O   0)                  3.7153         0.000021   
    107. B(H 100,C  41)                  1.1004         0.346616   
    108. B(H 101,C  41)                  1.1010         0.345823   
    109. B(H 102,O  43)                  0.9897         0.466188   
    110. B(H 103,C  45)                  1.1010         0.345875   
    111. B(H 104,C  45)                  1.0984         0.349180   
    112. B(H 105,C  46)                  1.0983         0.349243   
    113. B(H 106,C  46)                  1.1004         0.346590   
    114. B(H 107,C  46)                  1.0990         0.348400   
    115. B(H 108,H 102)                  2.7685         0.000145   
    116. B(H 108,C  48)                  1.1028         0.343539   
    117. B(H 109,O  26)                  2.5906         0.001301   
    118. B(H 109,C  49)                  1.0965         0.351618   
    119. B(H 110,C  49)                  1.0983         0.349277   
    120. B(H 111,C  49)                  1.1012         0.345647   
    121. B(H 112,C  50)                  1.0972         0.350750   
    122. B(H 113,C  50)                  1.1018         0.344850   
    123. B(H 114,H  77)                  4.9719         0.000000   
    124. B(H 114,C  50)                  1.0988         0.348625   
    125. A(O   0,C   1,N   9)          124.1731         0.468357   
    126. A(C   2,C   1,N   9)          113.6399         0.390390   
    127. A(O   0,C   1,C   2)          122.1548         0.422979   
    128. A(C   1,C   2,H  51)          107.2885         0.318517   
    129. A(N   6,C   2,H  51)          108.0846         0.323958   
    130. A(C   1,C   2,N   6)          113.4485         0.360629   
    131. A(C   1,C   2,C   3)          111.7246         0.359426   
    132. A(C   3,C   2,H  51)          113.3605         0.322918   
    133. A(C   3,C   2,N   6)          102.9838         0.365837   
    134. A(C   4,C   3,H  53)          112.8829         0.322292   
    135. A(C   4,C   3,H  52)          111.0687         0.321404   
    136. A(C   2,C   3,C   4)          102.8398         0.362759   
    137. A(C   2,C   3,H  53)          110.8853         0.323871   
    138. A(C   2,C   3,H  52)          109.7082         0.322977   
    139. A(H  52,C   3,H  53)          109.3036         0.288391   
    140. A(H  54,C   4,H  55)          108.2064         0.288204   
    141. A(C   3,C   4,H  55)          113.4415         0.321957   
    142. A(C   3,C   4,C   5)          103.5765         0.361297   
    143. A(C   3,C   4,H  54)          109.3675         0.321520   
    144. A(C   5,C   4,H  55)          112.0053         0.322281   
    145. A(C   5,C   4,H  54)          110.1767         0.321844   
    146. A(H  56,C   5,H  57)          108.5331         0.287451   
    147. A(C   4,C   5,N   6)          103.4044         0.365451   
    148. A(C   4,C   5,H  56)          113.0366         0.321965   
    149. A(N   6,C   5,H  57)          110.3232         0.324495   
    150. A(N   6,C   5,H  56)          110.3822         0.325191   
    151. A(C   4,C   5,H  57)          111.0998         0.321278   
    152. A(C   5,N   6,C   7)          126.0765         0.400573   
    153. A(C   2,N   6,C   7)          121.6924         0.399343   
    154. A(C   2,N   6,C   5)          111.7987         0.368172   
    155. A(O   8,C   7,C  24)          119.9441         0.422288   
    156. A(N   6,C   7,O   8)          121.7101         0.466442   
    157. A(N   6,C   7,C  24)          118.2217         0.394844   
    158. A(C   1,N   9,C  10)          122.0326         0.404541   
    159. A(C  10,N   9,H  58)          120.8218         0.333826   
    160. A(C   1,N   9,H  58)          116.4871         0.354619   
    161. A(C  48,C  10,H  59)          108.7511         0.319550   
    162. A(C  11,C  10,H  59)          108.4373         0.319411   
    163. A(N   9,C  10,C  11)          108.2215         0.368677   
    164. A(N   9,C  10,C  48)          112.9535         0.368846   
    165. A(N   9,C  10,H  59)          105.2703         0.328608   
    166. A(C  11,C  10,C  48)          112.8510         0.358105   
    167. A(N  12,C  11,O  47)          123.3592         0.465819   
    168. A(C  10,C  11,O  47)          121.9245         0.421006   
    169. A(C  10,C  11,N  12)          114.7041         0.394243   
    170. A(C  13,N  12,H  60)          116.0782         0.332176   
    171. A(C  11,N  12,C  13)          127.3046         0.400353   
    172. A(C  11,N  12,H  60)          116.1542         0.359582   
    173. A(C  14,C  13,C  45)          114.2707         0.357011   
    174. A(N  12,C  13,H  61)          104.9133         0.325116   
    175. A(C  14,C  13,H  61)          104.3721         0.318595   
    176. A(N  12,C  13,C  14)          110.8010         0.361089   
    177. A(C  45,C  13,H  61)          108.6625         0.321577   
    178. A(N  12,C  13,C  45)          112.9917         0.364623   
    179. A(C  13,C  14,N  15)          114.0418         0.389262   
    180. A(N  15,C  14,O  44)          124.9603         0.468495   
    181. A(C  13,C  14,O  44)          120.9895         0.423390   
    182. A(C  14,N  15,H  62)          114.8854         0.356541   
    183. A(C  16,N  15,H  62)          116.3347         0.336251   
    184. A(C  14,N  15,C  16)          123.8483         0.403921   
    185. A(H  63,C  16,H  64)          108.2296         0.288285   
    186. A(C  17,C  16,H  64)          112.2812         0.321524   
    187. A(N  15,C  16,H  63)          110.5957         0.329276   
    188. A(C  17,C  16,H  63)          108.9932         0.320453   
    189. A(N  15,C  16,C  17)          108.6464         0.369352   
    190. A(N  15,C  16,H  64)          108.1000         0.330387   
    191. A(O  43,C  17,H  65)          109.1631         0.330100   
    192. A(C  18,C  17,H  65)          108.4535         0.317844   
    193. A(C  16,C  17,H  65)          108.9737         0.319873   
    194. A(C  16,C  17,C  18)          112.8557         0.356684   
    195. A(C  18,C  17,O  43)          108.9882         0.368542   
    196. A(C  16,C  17,O  43)          108.3534         0.371021   
    197. A(C  19,C  18,H  66)          107.1499         0.319968   
    198. A(C  17,C  18,H  66)          107.5867         0.317952   
    199. A(C  17,C  18,C  32)          108.9814         0.353835   
    200. A(C  17,C  18,C  19)          115.9884         0.356667   
    201. A(C  19,C  18,C  32)          110.7596         0.356167   
    202. A(C  32,C  18,H  66)          105.8319         0.317524   
    203. A(C  18,C  19,N  20)          116.5120         0.394971   
    204. A(N  20,C  19,O  31)          122.8593         0.467315   
    205. A(C  18,C  19,O  31)          120.6000         0.422868   
    206. A(C  19,N  20,H  67)          115.7408         0.357256   
    207. A(C  19,N  20,C  21)          123.3998         0.405028   
    208. A(C  21,N  20,H  67)          120.3523         0.333521   
    209. A(C  27,C  21,H  68)          111.2787         0.323517   
    210. A(C  22,C  21,H  68)          108.3517         0.319651   
    211. A(N  20,C  21,H  68)          107.1526         0.328079   
    212. A(N  20,C  21,C  22)          106.9161         0.366912   
    213. A(C  22,C  21,C  27)          112.0628         0.361609   
    214. A(N  20,C  21,C  27)          110.8492         0.371570   
    215. A(C  21,C  22,N  23)          113.0753         0.389674   
    216. A(C  21,C  22,O  26)          123.8884         0.425183   
    217. A(N  23,C  22,O  26)          122.9401         0.466008   
    218. A(C  22,N  23,C  24)          118.5376         0.403584   
    219. A(C  24,N  23,H  69)          117.9563         0.335687   
    220. A(C  22,N  23,H  69)          115.2162         0.353412   
    221. A(C  25,C  24,H  70)          110.3864         0.322105   
    222. A(N  23,C  24,H  70)          108.4771         0.330603   
    223. A(C   7,C  24,H  70)          109.2469         0.320760   
    224. A(N  23,C  24,C  25)          109.7927         0.372172   
    225. A(C   7,C  24,N  23)          109.8019         0.370537   
    226. A(C   7,C  24,C  25)          109.1227         0.360635   
    227. A(H  71,C  25,H  73)          108.6270         0.288035   
    228. A(C  24,C  25,H  73)          110.2378         0.322062   
    229. A(H  71,C  25,H  72)          108.5276         0.288251   
    230. A(C  24,C  25,H  72)          111.0711         0.322315   
    231. A(C  24,C  25,H  71)          110.1012         0.322323   
    232. A(H  72,C  25,H  73)          108.2081         0.288028   
    233. A(C  28,C  27,H  75)          110.1384         0.320742   
    234. A(C  21,C  27,C  28)          114.7115         0.363213   
    235. A(H  74,C  27,H  75)          105.6849         0.286838   
    236. A(C  21,C  27,H  75)          108.4791         0.323248   
    237. A(C  28,C  27,H  74)          109.5699         0.320591   
    238. A(C  21,C  27,H  74)          107.8471         0.323096   
    239. A(C  29,C  28,C  30)          111.0607         0.362190   
    240. A(C  27,C  28,C  30)          112.2223         0.361216   
    241. A(C  27,C  28,C  29)          109.7588         0.361249   
    242. A(C  30,C  28,H  76)          107.7859         0.321118   
    243. A(C  29,C  28,H  76)          107.8618         0.321146   
    244. A(C  27,C  28,H  76)          107.9865         0.320319   
    245. A(C  28,C  29,H  79)          111.1858         0.321970   
    246. A(H  78,C  29,H  79)          107.7074         0.287297   
    247. A(H  77,C  29,H  79)          107.9502         0.287572   
    248. A(H  77,C  29,H  78)          107.7131         0.287222   
    249. A(C  28,C  29,H  78)          110.7714         0.321559   
    250. A(C  28,C  29,H  77)          111.3531         0.321881   
    251. A(H  81,C  30,H  82)          107.6410         0.287241   
    252. A(H  80,C  30,H  82)          107.9625         0.287306   
    253. A(C  28,C  30,H  82)          110.7699         0.321459   
    254. A(H  80,C  30,H  81)          107.4296         0.287724   
    255. A(C  28,C  30,H  81)          110.8142         0.321948   
    256. A(C  28,C  30,H  80)          112.0419         0.322025   
    257. A(C  33,C  32,O  42)          121.5396         0.435292   
    258. A(C  18,C  32,O  42)          119.0492         0.426187   
    259. A(C  18,C  32,C  33)          119.3800         0.360477   
    260. A(C  32,C  33,C  34)          114.2159         0.363677   
    261. A(C  34,C  33,H  84)          110.3419         0.320446   
    262. A(H  83,C  33,H  84)          107.4133         0.288022   
    263. A(C  32,C  33,H  84)          105.2493         0.323926   
    264. A(C  34,C  33,H  83)          109.2391         0.321698   
    265. A(C  32,C  33,H  83)          110.1246         0.325197   
    266. A(C  33,C  34,C  35)          111.9381         0.360494   
    267. A(H  85,C  34,H  86)          106.7367         0.286994   
    268. A(C  35,C  34,H  86)          111.0722         0.321522   
    269. A(C  33,C  34,H  86)          110.1637         0.320763   
    270. A(C  35,C  34,H  85)          109.4988         0.320936   
    271. A(C  33,C  34,H  85)          107.2199         0.320179   
    272. A(C  34,C  35,C  36)          115.7789         0.362438   
    273. A(H  87,C  35,H  88)          106.6902         0.287212   
    274. A(C  36,C  35,H  88)          106.8215         0.322066   
    275. A(C  34,C  35,H  88)          108.1316         0.321166   
    276. A(C  36,C  35,H  87)          108.5921         0.322447   
    277. A(C  34,C  35,H  87)          110.3975         0.321546   
    278. A(C  35,C  36,C  37)          110.7761         0.363087   
    279. A(H  89,C  36,H  90)          105.9137         0.285860   
    280. A(C  37,C  36,H  90)          110.1963         0.321519   
    281. A(C  35,C  36,H  90)          110.9086         0.321868   
    282. A(C  37,C  36,H  89)          109.7962         0.320706   
    283. A(C  35,C  36,H  89)          109.1274         0.321053   
    284. A(C  36,C  37,C  38)          115.8589         0.363779   
    285. A(H  91,C  37,H  92)          105.2666         0.286351   
    286. A(C  38,C  37,H  92)          108.4361         0.321869   
    287. A(C  36,C  37,H  92)          107.8631         0.320936   
    288. A(C  38,C  37,H  91)          110.1494         0.322806   
    289. A(C  36,C  37,H  91)          108.7210         0.321868   
    290. A(C  37,C  38,C  39)          112.0917         0.363995   
    291. A(H  93,C  38,H  94)          105.9749         0.286095   
    292. A(C  39,C  38,H  94)          109.8008         0.321565   
    293. A(C  37,C  38,H  94)          110.0195         0.322318   
    294. A(C  39,C  38,H  93)          108.9812         0.321302   
    295. A(C  37,C  38,H  93)          109.7829         0.322054   
    296. A(C  38,C  39,C  40)          114.2483         0.363275   
    297. A(H  95,C  39,H  96)          106.9180         0.285749   
    298. A(C  40,C  39,H  96)          108.0663         0.321348   
    299. A(C  38,C  39,H  96)          108.7852         0.321206   
    300. A(C  40,C  39,H  95)          109.3452         0.321394   
    301. A(C  38,C  39,H  95)          109.2198         0.321252   
    302. A(C  39,C  40,C  41)          112.8331         0.363509   
    303. A(H  97,C  40,H  98)          106.1714         0.286459   
    304. A(C  41,C  40,H  98)          109.9322         0.321837   
    305. A(C  39,C  40,H  98)          109.3698         0.321782   
    306. A(C  41,C  40,H  97)          109.5069         0.321854   
    307. A(C  39,C  40,H  97)          108.8028         0.321798   
    308. A(H 100,C  41,H 101)          107.6694         0.287280   
    309. A(H  99,C  41,H 101)          107.6297         0.287442   
    310. A(C  40,C  41,H 101)          111.0857         0.322269   
    311. A(H  99,C  41,H 100)          107.7856         0.287545   
    312. A(C  40,C  41,H 100)          110.7797         0.322390   
    313. A(C  40,C  41,H  99)          111.7150         0.322581   
    314. A(C  17,O  43,H 102)          108.3832         0.344474   
    315. A(C  13,C  45,C  46)          112.6949         0.362261   
    316. A(C  46,C  45,H 104)          109.8762         0.322978   
    317. A(C  13,C  45,H 104)          110.0891         0.321464   
    318. A(C  46,C  45,H 103)          110.3907         0.322475   
    319. A(C  13,C  45,H 103)          106.7477         0.320964   
    320. A(H 103,C  45,H 104)          106.8373         0.287617   
    321. A(H 106,C  46,H 107)          107.8396         0.287610   
    322. A(H 105,C  46,H 107)          107.6469         0.287953   
    323. A(C  45,C  46,H 107)          111.2594         0.322860   
    324. A(H 105,C  46,H 106)          107.8368         0.287718   
    325. A(C  45,C  46,H 106)          111.3191         0.322584   
    326. A(C  45,C  46,H 105)          110.7771         0.322988   
    327. A(C  50,C  48,H 108)          108.7138         0.321211   
    328. A(C  49,C  48,H 108)          108.5380         0.321449   
    329. A(C  10,C  48,H 108)          107.8107         0.319657   
    330. A(C  49,C  48,C  50)          110.9885         0.362187   
    331. A(C  10,C  48,C  50)          110.0123         0.360081   
    332. A(C  10,C  48,C  49)          110.6875         0.360359   
    333. A(H 110,C  49,H 111)          108.1485         0.287600   
    334. A(H 109,C  49,H 111)          109.0478         0.287901   
    335. A(C  48,C  49,H 111)          110.8918         0.321771   
    336. A(H 109,C  49,H 110)          106.9616         0.288372   
    337. A(C  48,C  49,H 110)          109.8617         0.322322   
    338. A(C  48,C  49,H 109)          111.7859         0.322675   
    339. A(H 113,C  50,H 114)          107.5286         0.287412   
    340. A(H 112,C  50,H 114)          107.8958         0.288176   
    341. A(C  48,C  50,H 114)          110.2883         0.321985   
    342. A(H 112,C  50,H 113)          108.6392         0.287686   
    343. A(C  48,C  50,H 113)          110.4409         0.321412   
    344. A(C  48,C  50,H 112)          111.9082         0.322306   
    345. D(H  51,C   2,C   1,N   9)    -63.3713         0.009113   
    346. D(C   3,C   2,C   1,N   9)    171.8057         0.009113   
    347. D(N   6,C   2,C   1,N   9)     55.9283         0.009113   
    348. D(N   6,C   2,C   1,O   0)   -126.0546         0.009113   
    349. D(C   3,C   2,C   1,O   0)    -10.1772         0.009113   
    350. D(H  51,C   2,C   1,O   0)    114.6458         0.009113   
    351. D(C   4,C   3,C   2,N   6)     33.9200         0.011358   
    352. D(H  53,C   3,C   2,H  51)    -88.6345         0.011358   
    353. D(H  53,C   3,C   2,C   1)     32.7359         0.011358   
    354. D(C   4,C   3,C   2,H  51)    150.4457         0.011358   
    355. D(H  53,C   3,C   2,N   6)    154.8398         0.011358   
    356. D(H  52,C   3,C   2,H  51)     32.1973         0.011358   
    357. D(C   4,C   3,C   2,C   1)    -88.1840         0.011358   
    358. D(H  52,C   3,C   2,C   1)    153.5677         0.011358   
    359. D(H  52,C   3,C   2,N   6)    -84.3284         0.011358   
    360. D(H  55,C   4,C   3,H  53)     79.3781         0.010739   
    361. D(H  55,C   4,C   3,H  52)    -43.7910         0.010739   
    362. D(H  54,C   4,C   3,H  52)   -164.6811         0.010739   
    363. D(H  55,C   4,C   3,C   2)   -161.0790         0.010739   
    364. D(H  54,C   4,C   3,H  53)    -41.5119         0.010739   
    365. D(C   5,C   4,C   3,C   2)    -39.4209         0.010739   
    366. D(H  54,C   4,C   3,C   2)     78.0309         0.010739   
    367. D(C   5,C   4,C   3,H  53)   -158.9638         0.010739   
    368. D(C   5,C   4,C   3,H  52)     77.8670         0.010739   
    369. D(N   6,C   5,C   4,C   3)     29.0752         0.010864   
    370. D(H  57,C   5,C   4,C   3)    -89.2619         0.010864   
    371. D(H  56,C   5,C   4,H  55)    -88.9425         0.010864   
    372. D(H  56,C   5,C   4,C   3)    148.4419         0.010864   
    373. D(H  57,C   5,C   4,H  54)    153.8530         0.010864   
    374. D(H  56,C   5,C   4,H  54)     31.5568         0.010864   
    375. D(H  57,C   5,C   4,H  55)     33.3536         0.010864   
    376. D(N   6,C   5,C   4,H  54)    -87.8099         0.010864   
    377. D(N   6,C   5,C   4,H  55)    151.6907         0.010864   
    378. D(C   5,N   6,C   2,C   3)    -16.4530         0.013604   
    379. D(C   7,N   6,C   5,H  57)    -61.5864         0.014080   
    380. D(C   7,N   6,C   5,H  56)     58.3608         0.014080   
    381. D(C   7,N   6,C   5,C   4)    179.5382         0.014080   
    382. D(C   2,N   6,C   5,H  57)    110.9218         0.014080   
    383. D(C   2,N   6,C   5,H  56)   -129.1310         0.014080   
    384. D(C   7,N   6,C   2,H  51)     36.2102         0.013604   
    385. D(C   2,N   6,C   5,C   4)     -7.9536         0.014080   
    386. D(C   7,N   6,C   2,C   3)    156.4327         0.013604   
    387. D(C   5,N   6,C   2,C   1)    104.4815         0.013604   
    388. D(C   7,N   6,C   2,C   1)    -82.6327         0.013604   
    389. D(C   5,N   6,C   2,H  51)   -136.6756         0.013604   
    390. D(C  24,C   7,N   6,C   5)      8.6831         0.034296   
    391. D(C  24,C   7,N   6,C   2)   -163.1372         0.034296   
    392. D(O   8,C   7,N   6,C   5)   -175.3709         0.034296   
    393. D(O   8,C   7,N   6,C   2)     12.8087         0.034296   
    394. D(H  58,N   9,C   1,O   0)    179.6971         0.032430   
    395. D(C  10,N   9,C   1,C   2)   -173.0966         0.032430   
    396. D(H  58,N   9,C   1,C   2)     -2.3320         0.032430   
    397. D(C  10,N   9,C   1,O   0)      8.9325         0.032430   
    398. D(H  59,C  10,N   9,C   1)     -9.0868         0.016568   
    399. D(C  48,C  10,N   9,H  58)    -60.9355         0.016568   
    400. D(C  48,C  10,N   9,C   1)    109.4355         0.016568   
    401. D(C  11,C  10,N   9,C   1)   -124.8736         0.016568   
    402. D(H  59,C  10,N   9,H  58)   -179.4577         0.016568   
    403. D(C  11,C  10,N   9,H  58)     64.7555         0.016568   
    404. D(O  47,C  11,C  10,N   9)   -112.4505         0.009622   
    405. D(N  12,C  11,C  10,H  59)    -47.3842         0.009622   
    406. D(N  12,C  11,C  10,C  48)   -167.9281         0.009622   
    407. D(N  12,C  11,C  10,N   9)     66.3208         0.009622   
    408. D(O  47,C  11,C  10,H  59)    133.8445         0.009622   
    409. D(O  47,C  11,C  10,C  48)     13.3006         0.009622   
    410. D(H  60,N  12,C  11,O  47)    175.1301         0.034334   
    411. D(H  60,N  12,C  11,C  10)     -3.6214         0.034334   
    412. D(C  13,N  12,C  11,O  47)      3.2981         0.034334   
    413. D(C  13,N  12,C  11,C  10)   -175.4533         0.034334   
    414. D(H  61,C  13,N  12,C  11)   -178.4237         0.013979   
    415. D(H  61,C  13,N  12,H  60)      9.7390         0.013979   
    416. D(C  45,C  13,N  12,H  60)    127.9505         0.013979   
    417. D(C  45,C  13,N  12,C  11)    -60.2122         0.013979   
    418. D(C  14,C  13,N  12,C  11)     69.4930         0.013979   
    419. D(C  14,C  13,N  12,H  60)   -102.3443         0.013979   
    420. D(O  44,C  14,C  13,C  45)   -121.9234         0.009008   
    421. D(O  44,C  14,C  13,N  12)    109.0535         0.009008   
    422. D(N  15,C  14,C  13,H  61)    177.6310         0.009008   
    423. D(N  15,C  14,C  13,C  45)     59.0830         0.009008   
    424. D(O  44,C  14,C  13,H  61)     -3.3753         0.009008   
    425. D(N  15,C  14,C  13,N  12)    -69.9401         0.009008   
    426. D(H  62,N  15,C  14,O  44)   -176.5661         0.031723   
    427. D(H  62,N  15,C  14,C  13)      2.3812         0.031723   
    428. D(C  16,N  15,C  14,O  44)    -22.4187         0.031723   
    429. D(C  16,N  15,C  14,C  13)    156.5286         0.031723   
    430. D(H  64,C  16,N  15,H  62)    167.7000         0.016618   
    431. D(H  64,C  16,N  15,C  14)     13.8918         0.016618   
    432. D(H  63,C  16,N  15,H  62)    -73.9790         0.016618   
    433. D(H  63,C  16,N  15,C  14)    132.2128         0.016618   
    434. D(C  17,C  16,N  15,C  14)   -108.2003         0.016618   
    435. D(C  17,C  16,N  15,H  62)     45.6079         0.016618   
    436. D(H  65,C  17,C  16,H  64)    -61.3747         0.010440   
    437. D(H  65,C  17,C  16,H  63)    178.7201         0.010440   
    438. D(H  65,C  17,C  16,N  15)     58.1376         0.010440   
    439. D(O  43,C  17,C  16,H  64)    179.9541         0.010440   
    440. D(O  43,C  17,C  16,H  63)     60.0489         0.010440   
    441. D(O  43,C  17,C  16,N  15)    -60.5336         0.010440   
    442. D(C  18,C  17,C  16,H  64)     59.1666         0.010440   
    443. D(C  18,C  17,C  16,H  63)    -60.7386         0.010440   
    444. D(C  18,C  17,C  16,N  15)    178.6788         0.010440   
    445. D(H  66,C  18,C  17,H  65)    177.7191         0.009714   
    446. D(H  66,C  18,C  17,O  43)    -63.5440         0.009714   
    447. D(H  66,C  18,C  17,C  16)     56.8810         0.009714   
    448. D(C  32,C  18,C  17,O  43)   -177.8540         0.009714   
    449. D(C  32,C  18,C  17,C  16)    -57.4291         0.009714   
    450. D(C  32,C  18,C  17,H  65)     63.4091         0.009714   
    451. D(C  19,C  18,C  17,H  65)    -62.3707         0.009714   
    452. D(C  19,C  18,C  17,O  43)     56.3662         0.009714   
    453. D(C  19,C  18,C  17,C  16)    176.7911         0.009714   
    454. D(O  31,C  19,C  18,H  66)    -90.3946         0.009779   
    455. D(O  31,C  19,C  18,C  32)     24.5859         0.009779   
    456. D(O  31,C  19,C  18,C  17)    149.4588         0.009779   
    457. D(N  20,C  19,C  18,H  66)     87.7097         0.009779   
    458. D(N  20,C  19,C  18,C  17)    -32.4369         0.009779   
    459. D(N  20,C  19,C  18,C  32)   -157.3098         0.009779   
    460. D(H  67,N  20,C  19,O  31)   -176.9870         0.034459   
    461. D(H  67,N  20,C  19,C  18)      4.9555         0.034459   
    462. D(C  21,N  20,C  19,O  31)     -5.1494         0.034459   
    463. D(C  21,N  20,C  19,C  18)    176.7931         0.034459   
    464. D(H  68,C  21,N  20,H  67)   -153.5221         0.015878   
    465. D(H  68,C  21,N  20,C  19)     35.0008         0.015878   
    466. D(C  27,C  21,N  20,H  67)    -31.9241         0.015878   
    467. D(C  27,C  21,N  20,C  19)    156.5988         0.015878   
    468. D(C  22,C  21,N  20,H  67)     90.4840         0.015878   
    469. D(C  22,C  21,N  20,C  19)    -80.9931         0.015878   
    470. D(N  23,C  22,C  21,C  27)   -162.3515         0.009502   
    471. D(N  23,C  22,C  21,N  20)     76.0029         0.009502   
    472. D(O  26,C  22,C  21,H  68)    144.2896         0.009502   
    473. D(O  26,C  22,C  21,C  27)     21.1276         0.009502   
    474. D(O  26,C  22,C  21,N  20)   -100.5180         0.009502   
    475. D(N  23,C  22,C  21,H  68)    -39.1895         0.009502   
    476. D(H  69,N  23,C  22,O  26)    163.5483         0.030169   
    477. D(H  69,N  23,C  22,C  21)    -13.0104         0.030169   
    478. D(C  24,N  23,C  22,O  26)     15.7773         0.030169   
    479. D(C  24,N  23,C  22,C  21)   -160.7814         0.030169   
    480. D(H  70,C  24,N  23,H  69)    151.5605         0.017253   
    481. D(H  70,C  24,N  23,C  22)    -61.5480         0.017253   
    482. D(C  25,C  24,N  23,H  69)     30.8570         0.017253   
    483. D(C  25,C  24,N  23,C  22)    177.7485         0.017253   
    484. D(C   7,C  24,N  23,H  69)    -89.1178         0.017253   
    485. D(C   7,C  24,N  23,C  22)     57.7738         0.017253   
    486. D(H  70,C  24,C   7,O   8)    148.4900         0.009786   
    487. D(H  70,C  24,C   7,N   6)    -35.4900         0.009786   
    488. D(C  25,C  24,C   7,O   8)    -90.7407         0.009786   
    489. D(C  25,C  24,C   7,N   6)     85.2793         0.009786   
    490. D(N  23,C  24,C   7,O   8)     29.6411         0.009786   
    491. D(N  23,C  24,C   7,N   6)   -154.3389         0.009786   
    492. D(H  73,C  25,C  24,H  70)    179.9175         0.010952   
    493. D(H  73,C  25,C  24,N  23)    -60.5400         0.010952   
    494. D(H  73,C  25,C  24,C   7)     59.8475         0.010952   
    495. D(H  72,C  25,C  24,H  70)     59.9875         0.010952   
    496. D(H  72,C  25,C  24,N  23)    179.5301         0.010952   
    497. D(H  72,C  25,C  24,C   7)    -60.0824         0.010952   
    498. D(H  71,C  25,C  24,H  70)    -60.2525         0.010952   
    499. D(H  71,C  25,C  24,N  23)     59.2900         0.010952   
    500. D(H  71,C  25,C  24,C   7)    179.6775         0.010952   
    501. D(H  75,C  27,C  21,H  68)   -173.6329         0.011631   
    502. D(H  75,C  27,C  21,C  22)    -52.1377         0.011631   
    503. D(H  75,C  27,C  21,N  20)     67.2238         0.011631   
    504. D(H  74,C  27,C  21,H  68)    -59.6130         0.011631   
    505. D(H  74,C  27,C  21,C  22)     61.8823         0.011631   
    506. D(H  74,C  27,C  21,N  20)   -178.7562         0.011631   
    507. D(C  28,C  27,C  21,H  68)     62.7671         0.011631   
    508. D(C  28,C  27,C  21,C  22)   -175.7376         0.011631   
    509. D(C  28,C  27,C  21,N  20)    -56.3761         0.011631   
    510. D(H  76,C  28,C  27,H  75)    -61.7209         0.010635   
    511. D(H  76,C  28,C  27,H  74)   -177.5678         0.010635   
    512. D(H  76,C  28,C  27,C  21)     60.9890         0.010635   
    513. D(C  30,C  28,C  27,H  75)    179.6221         0.010635   
    514. D(C  30,C  28,C  27,H  74)     63.7753         0.010635   
    515. D(C  30,C  28,C  27,C  21)    -57.6679         0.010635   
    516. D(C  29,C  28,C  27,H  75)     55.6196         0.010635   
    517. D(C  29,C  28,C  27,H  74)    -60.2273         0.010635   
    518. D(C  29,C  28,C  27,C  21)    178.3295         0.010635   
    519. D(H  79,C  29,C  28,C  30)     58.3868         0.010954   
    520. D(H  79,C  29,C  28,C  27)   -176.9360         0.010954   
    521. D(H  78,C  29,C  28,H  76)   -179.2459         0.010954   
    522. D(H  78,C  29,C  28,C  30)    -61.3415         0.010954   
    523. D(H  78,C  29,C  28,C  27)     63.3356         0.010954   
    524. D(H  77,C  29,C  28,H  76)     60.9080         0.010954   
    525. D(H  77,C  29,C  28,C  30)    178.8124         0.010954   
    526. D(H  79,C  29,C  28,H  76)    -59.5176         0.010954   
    527. D(H  77,C  29,C  28,C  27)    -56.5104         0.010954   
    528. D(H  82,C  30,C  28,H  76)   -176.9089         0.010943   
    529. D(H  82,C  30,C  28,C  29)     65.1407         0.010943   
    530. D(H  82,C  30,C  28,C  27)    -58.1338         0.010943   
    531. D(H  81,C  30,C  28,H  76)     63.6900         0.010943   
    532. D(H  81,C  30,C  28,C  29)    -54.2604         0.010943   
    533. D(H  81,C  30,C  28,C  27)   -177.5349         0.010943   
    534. D(H  80,C  30,C  28,H  76)    -56.2855         0.010943   
    535. D(H  80,C  30,C  28,C  29)   -174.2359         0.010943   
    536. D(H  80,C  30,C  28,C  27)     62.4896         0.010943   
    537. D(O  42,C  32,C  18,H  66)    -24.3717         0.008977   
    538. D(O  42,C  32,C  18,C  19)   -140.1743         0.008977   
    539. D(O  42,C  32,C  18,C  17)     91.0743         0.008977   
    540. D(C  33,C  32,C  18,H  66)    157.6268         0.008977   
    541. D(C  33,C  32,C  18,C  19)     41.8243         0.008977   
    542. D(C  33,C  32,C  18,C  17)    -86.9272         0.008977   
    543. D(H  84,C  33,C  32,O  42)     68.2879         0.011158   
    544. D(H  84,C  33,C  32,C  18)   -113.7621         0.011158   
    545. D(H  83,C  33,C  32,O  42)   -176.2286         0.011158   
    546. D(H  83,C  33,C  32,C  18)      1.7214         0.011158   
    547. D(C  34,C  33,C  32,O  42)    -52.8889         0.011158   
    548. D(C  34,C  33,C  32,C  18)    125.0611         0.011158   
    549. D(H  86,C  34,C  33,H  84)    -62.1807         0.010527   
    550. D(H  86,C  34,C  33,H  83)    179.9512         0.010527   
    551. D(H  86,C  34,C  33,C  32)     56.1344         0.010527   
    552. D(H  85,C  34,C  33,H  84)     53.6034         0.010527   
    553. D(H  85,C  34,C  33,H  83)    -64.2646         0.010527   
    554. D(H  85,C  34,C  33,C  32)    171.9185         0.010527   
    555. D(C  35,C  34,C  33,H  84)    173.7068         0.010527   
    556. D(C  35,C  34,C  33,H  83)     55.8388         0.010527   
    557. D(C  35,C  34,C  33,C  32)    -67.9781         0.010527   
    558. D(H  88,C  35,C  34,H  86)   -153.3464         0.010815   
    559. D(H  88,C  35,C  34,H  85)     89.0195         0.010815   
    560. D(H  88,C  35,C  34,C  33)    -29.7434         0.010815   
    561. D(H  87,C  35,C  34,H  86)    -36.9752         0.010815   
    562. D(H  87,C  35,C  34,H  85)   -154.6093         0.010815   
    563. D(H  87,C  35,C  34,C  33)     86.6278         0.010815   
    564. D(C  36,C  35,C  34,H  86)     86.8968         0.010815   
    565. D(C  36,C  35,C  34,H  85)    -30.7373         0.010815   
    566. D(C  36,C  35,C  34,C  33)   -149.5002         0.010815   
    567. D(H  90,C  36,C  35,H  87)     63.7505         0.011168   
    568. D(H  90,C  36,C  35,C  34)    -61.0572         0.011168   
    569. D(H  89,C  36,C  35,H  88)    -65.2192         0.011168   
    570. D(H  89,C  36,C  35,H  87)   -179.9435         0.011168   
    571. D(H  89,C  36,C  35,C  34)     55.2488         0.011168   
    572. D(C  37,C  36,C  35,H  88)     55.7765         0.011168   
    573. D(C  37,C  36,C  35,H  87)    -58.9478         0.011168   
    574. D(H  90,C  36,C  35,H  88)    178.4748         0.011168   
    575. D(C  37,C  36,C  35,C  34)    176.2445         0.011168   
    576. D(H  92,C  37,C  36,H  90)   -168.4191         0.011030   
    577. D(H  92,C  37,C  36,H  89)     75.2911         0.011030   
    578. D(H  92,C  37,C  36,C  35)    -45.3081         0.011030   
    579. D(H  91,C  37,C  36,H  90)    -54.7584         0.011030   
    580. D(H  91,C  37,C  36,H  89)   -171.0482         0.011030   
    581. D(H  91,C  37,C  36,C  35)     68.3526         0.011030   
    582. D(C  38,C  37,C  36,H  90)     69.8829         0.011030   
    583. D(C  38,C  37,C  36,H  89)    -46.4068         0.011030   
    584. D(C  38,C  37,C  36,C  35)   -167.0060         0.011030   
    585. D(H  94,C  38,C  37,H  92)    176.4443         0.011406   
    586. D(H  94,C  38,C  37,H  91)     61.7380         0.011406   
    587. D(H  94,C  38,C  37,C  36)    -62.1637         0.011406   
    588. D(H  93,C  38,C  37,H  92)    -67.3025         0.011406   
    589. D(H  93,C  38,C  37,H  91)    177.9912         0.011406   
    590. D(H  93,C  38,C  37,C  36)     54.0895         0.011406   
    591. D(C  39,C  38,C  37,H  92)     53.9653         0.011406   
    592. D(C  39,C  38,C  37,H  91)    -60.7410         0.011406   
    593. D(C  39,C  38,C  37,C  36)    175.3572         0.011406   
    594. D(H  95,C  39,C  38,H  94)    -63.4138         0.011102   
    595. D(H  95,C  39,C  38,H  93)   -179.0826         0.011102   
    596. D(H  95,C  39,C  38,C  37)     59.1894         0.011102   
    597. D(C  40,C  39,C  38,H  94)     59.3917         0.011102   
    598. D(C  40,C  39,C  38,H  93)    -56.2771         0.011102   
    599. D(C  40,C  39,C  38,C  37)   -178.0051         0.011102   
    600. D(H  96,C  39,C  38,H  94)   -179.7796         0.011102   
    601. D(H  96,C  39,C  38,H  93)     64.5515         0.011102   
    602. D(H  96,C  39,C  38,C  37)    -57.1765         0.011102   
    603. D(H  98,C  40,C  39,H  95)     63.3798         0.011159   
    604. D(H  98,C  40,C  39,C  38)    -59.3576         0.011159   
    605. D(H  97,C  40,C  39,H  96)    -65.0174         0.011159   
    606. D(H  97,C  40,C  39,H  95)    178.9468         0.011159   
    607. D(H  97,C  40,C  39,C  38)     56.2094         0.011159   
    608. D(C  41,C  40,C  39,H  96)     56.7245         0.011159   
    609. D(C  41,C  40,C  39,H  95)    -59.3113         0.011159   
    610. D(H  98,C  40,C  39,H  96)    179.4156         0.011159   
    611. D(C  41,C  40,C  39,C  38)    177.9514         0.011159   
    612. D(H 101,C  41,C  40,H  98)    -62.4196         0.011181   
    613. D(H 101,C  41,C  40,H  97)   -178.6999         0.011181   
    614. D(H 101,C  41,C  40,C  39)     59.9567         0.011181   
    615. D(H 100,C  41,C  40,H  98)    177.9601         0.011181   
    616. D(H 100,C  41,C  40,H  97)     61.6798         0.011181   
    617. D(H 100,C  41,C  40,C  39)    -59.6637         0.011181   
    618. D(H  99,C  41,C  40,H  98)     57.7757         0.011181   
    619. D(H  99,C  41,C  40,H  97)    -58.5046         0.011181   
    620. D(H  99,C  41,C  40,C  39)   -179.8480         0.011181   
    621. D(H 102,O  43,C  17,H  65)    -39.8337         0.016175   
    622. D(H 102,O  43,C  17,C  18)   -158.1257         0.016175   
    623. D(H 102,O  43,C  17,C  16)     78.7175         0.016175   
    624. D(H 104,C  45,C  13,H  61)   -179.0302         0.010670   
    625. D(H 104,C  45,C  13,C  14)    -62.9463         0.010670   
    626. D(H 104,C  45,C  13,N  12)     64.9685         0.010670   
    627. D(H 103,C  45,C  13,H  61)    -63.4268         0.010670   
    628. D(H 103,C  45,C  13,C  14)     52.6571         0.010670   
    629. D(H 103,C  45,C  13,N  12)   -179.4281         0.010670   
    630. D(C  46,C  45,C  13,H  61)     57.9214         0.010670   
    631. D(C  46,C  45,C  13,C  14)    174.0053         0.010670   
    632. D(C  46,C  45,C  13,N  12)    -58.0799         0.010670   
    633. D(H 107,C  46,C  45,H 104)    -60.8319         0.011261   
    634. D(H 107,C  46,C  45,H 103)   -178.4112         0.011261   
    635. D(H 107,C  46,C  45,C  13)     62.3353         0.011261   
    636. D(H 106,C  46,C  45,H 104)    178.8560         0.011261   
    637. D(H 106,C  46,C  45,H 103)     61.2766         0.011261   
    638. D(H 106,C  46,C  45,C  13)    -57.9769         0.011261   
    639. D(H 105,C  46,C  45,H 104)     58.8726         0.011261   
    640. D(H 105,C  46,C  45,H 103)    -58.7068         0.011261   
    641. D(H 105,C  46,C  45,C  13)   -177.9602         0.011261   
    642. D(H 108,C  48,C  10,H  59)   -172.5202         0.010315   
    643. D(H 108,C  48,C  10,C  11)    -52.1559         0.010315   
    644. D(H 108,C  48,C  10,N   9)     71.0036         0.010315   
    645. D(C  50,C  48,C  10,H  59)    -54.1179         0.010315   
    646. D(C  50,C  48,C  10,C  11)     66.2464         0.010315   
    647. D(C  50,C  48,C  10,N   9)   -170.5941         0.010315   
    648. D(C  49,C  48,C  10,H  59)     68.9071         0.010315   
    649. D(C  49,C  48,C  10,C  11)   -170.7286         0.010315   
    650. D(C  49,C  48,C  10,N   9)    -47.5691         0.010315   
    651. D(H 111,C  49,C  48,C  50)     66.0237         0.010995   
    652. D(H 111,C  49,C  48,C  10)    -56.4337         0.010995   
    653. D(H 110,C  49,C  48,H 108)     65.9396         0.010995   
    654. D(H 110,C  49,C  48,C  50)    -53.4729         0.010995   
    655. D(H 110,C  49,C  48,C  10)   -175.9302         0.010995   
    656. D(H 109,C  49,C  48,H 108)    -52.6428         0.010995   
    657. D(H 109,C  49,C  48,C  50)   -172.0553         0.010995   
    658. D(H 111,C  49,C  48,H 108)   -174.5638         0.010995   
    659. D(H 109,C  49,C  48,C  10)     65.4874         0.010995   
    660. D(H 114,C  50,C  48,H 108)    -60.7044         0.010902   
    661. D(H 114,C  50,C  48,C  49)     58.6027         0.010902   
    662. D(H 114,C  50,C  48,C  10)   -178.5492         0.010902   
    663. D(H 113,C  50,C  48,H 108)   -179.4200         0.010902   
    664. D(H 113,C  50,C  48,C  49)    -60.1129         0.010902   
    665. D(H 113,C  50,C  48,C  10)     62.7352         0.010902   
    666. D(H 112,C  50,C  48,H 108)     59.4137         0.010902   
    667. D(H 112,C  50,C  48,C  49)    178.7208         0.010902   
    668. D(H 112,C  50,C  48,C  10)    -58.4310         0.010902   
    -----------------------------------------------------------------

Number of atoms                         .... 115
Number of degrees of freedom            .... 668

         *************************************************************
         *                GEOMETRY OPTIMIZATION CYCLE   1            *
         *************************************************************
---------------------------------
CARTESIAN COORDINATES (ANGSTROEM)
---------------------------------
  O      2.663731   -1.904827   -2.382733
  C      2.158507   -0.928584   -1.823188
  C      2.064358    0.458228   -2.509234
  C      2.876228    0.505711   -3.801942
  C      4.268263    0.932956   -3.315098
  C      3.966480    1.978272   -2.234160
  N      2.653672    1.554995   -1.705465
  C      1.961634    2.161117   -0.717565
  O      0.897504    1.685347   -0.275779
  N      1.599523   -0.963285   -0.587231
  C      1.713649   -2.126728    0.278969
  C      0.292631   -2.567467    0.684107
  N     -0.464514   -3.033468   -0.331492
  C     -1.884925   -3.439109   -0.277066
  C     -2.802569   -2.205685   -0.065534
  N     -2.704819   -1.648029    1.170695
  C     -3.048324   -0.265678    1.465390
  C     -1.749942    0.519248    1.726374
  C     -2.002471    2.020181    2.020054
  C     -0.758565    2.858231    2.367354
  N      0.231068    2.222026    3.028049
  C      1.503143    2.852394    3.371836
  C      2.387115    2.799156    2.107257
  N      2.029725    3.721357    1.164966
  C      2.468160    3.520351   -0.201937
  C      1.911809    4.634908   -1.094575
  O      3.280703    1.970425    1.928300
  C      2.154818    2.148381    4.555796
  C      1.282764    2.075032    5.819049
  C      2.028062    1.312115    6.919494
  C      0.850705    3.462356    6.306485
  O     -0.707485    4.066896    2.075833
  C     -2.771587    2.645950    0.825618
  C     -1.991903    3.190415   -0.360551
  C     -2.410564    2.597268   -1.716702
  C     -2.039994    1.112833   -1.832056
  C     -1.722016    0.614223   -3.242799
  C     -1.278932   -0.851476   -3.213935
  C     -0.641973   -1.379927   -4.496773
  C     -0.129779   -2.813337   -4.336998
  C      0.561952   -3.375589   -5.580247
  C      1.104647   -4.789897   -5.369007
  O     -3.991063    2.655244    0.846032
  O     -1.077784   -0.076164    2.861587
  O     -3.524783   -1.790785   -0.970931
  C     -2.142232   -4.593254    0.703730
  C     -1.323901   -5.841286    0.373540
  O     -0.118496   -2.471826    1.859285
  C      2.633956   -1.885375    1.491501
  C      3.949046   -1.234279    1.051660
  C      2.893588   -3.206767    2.224391
  H      0.996760    0.678332   -2.656369
  H      2.447580    1.256312   -4.481687
  H      2.879498   -0.471046   -4.296977
  H      4.781194    0.067447   -2.872755
  H      4.904003    1.337584   -4.111981
  H      4.715320    1.994310   -1.430746
  H      3.896584    2.988799   -2.668048
  H      1.214768   -0.073126   -0.230263
  H      2.157362   -2.916039   -0.351538
  H     -0.045797   -2.992883   -1.258798
  H     -2.119816   -3.782467   -1.292983
  H     -2.016337   -2.085235    1.786457
  H     -3.687641   -0.207767    2.359187
  H     -3.611067    0.133632    0.615305
  H     -1.099226    0.441715    0.838585
  H     -2.686496    2.080380    2.883093
  H      0.096269    1.211694    3.169842
  H      1.290870    3.907181    3.601962
  H      1.117376    4.173700    1.317714
  H      3.566849    3.528017   -0.219961
  H      2.258938    5.613100   -0.737257
  H      2.238488    4.507512   -2.134851
  H      0.812932    4.624090   -1.075916
  H      3.095267    2.675390    4.786390
  H      2.450828    1.135351    4.239908
  H      0.370305    1.505601    5.570757
  H      2.322067    0.307380    6.581606
  H      2.944321    1.847995    7.214557
  H      1.403324    1.198439    7.817195
  H      0.227558    3.984010    5.566412
  H      0.265638    3.385792    7.234305
  H      1.729142    4.093813    6.516715
  H     -0.918816    3.029420   -0.212067
  H     -2.166985    4.278036   -0.347799
  H     -1.885286    3.169814   -2.499688
  H     -3.487469    2.750023   -1.881169
  H     -2.837899    0.484572   -1.409598
  H     -1.140479    0.935454   -1.220854
  H     -0.918466    1.240385   -3.676347
  H     -2.592705    0.735753   -3.908793
  H     -2.141401   -1.475954   -2.933538
  H     -0.552783   -0.970164   -2.388272
  H      0.200041   -0.728229   -4.792219
  H     -1.368212   -1.332723   -5.326432
  H     -0.972364   -3.471754   -4.057531
  H      0.592241   -2.842196   -3.500377
  H      1.388842   -2.702051   -5.862287
  H     -0.144433   -3.366469   -6.427638
  H      1.599853   -5.174651   -6.272016
  H      1.838757   -4.807994   -4.549489
  H      0.295631   -5.489788   -5.108479
  H     -0.612078   -0.893854    2.554938
  H     -3.219184   -4.816751    0.655139
  H     -1.930632   -4.269104    1.731638
  H     -1.558476   -6.656763    1.070898
  H     -1.533281   -6.198839   -0.645879
  H     -0.245646   -5.641310    0.445364
  H      2.113931   -1.196358    2.177819
  H      3.790069   -0.225686    0.651967
  H      4.622748   -1.134937    1.913365
  H      4.455045   -1.847219    0.289557
  H      1.962176   -3.675198    2.566165
  H      3.422710   -3.914343    1.566149
  H      3.528405   -3.035787    3.104828

----------------------------
CARTESIAN COORDINATES (A.U.)
----------------------------
  NO LB      ZA    FRAG     MASS         X           Y           Z
   0 O     8.0000    0    15.999    5.033722   -3.599601   -4.502713
   1 C     6.0000    0    12.011    4.078987   -1.754770   -3.445326
   2 C     6.0000    0    12.011    3.901071    0.865925   -4.741765
   3 C     6.0000    0    12.011    5.435282    0.955656   -7.184629
   4 C     6.0000    0    12.011    8.065848    1.763031   -6.264627
   5 C     6.0000    0    12.011    7.495560    3.738393   -4.221950
   6 N     7.0000    0    14.007    5.014713    2.938515   -3.222862
   7 C     6.0000    0    12.011    3.706952    4.083920   -1.356001
   8 O     8.0000    0    15.999    1.696037    3.184844   -0.521147
   9 N     7.0000    0    14.007    3.022660   -1.820346   -1.109706
  10 C     6.0000    0    12.011    3.238328   -4.018934    0.527175
  11 C     6.0000    0    12.011    0.552992   -4.851809    1.292774
  12 N     7.0000    0    14.007   -0.877804   -5.732423   -0.626430
  13 C     6.0000    0    12.011   -3.561992   -6.498974   -0.523579
  14 C     6.0000    0    12.011   -5.296088   -4.168140   -0.123841
  15 N     7.0000    0    14.007   -5.111367   -3.114324    2.212292
  16 C     6.0000    0    12.011   -5.760497   -0.502059    2.769186
  17 C     6.0000    0    12.011   -3.306911    0.981236    3.262374
  18 C     6.0000    0    12.011   -3.784121    3.817590    3.817349
  19 C     6.0000    0    12.011   -1.433479    5.401275    4.473652
  20 N     7.0000    0    14.007    0.436655    4.199020    5.722183
  21 C     6.0000    0    12.011    2.840528    5.390244    6.371847
  22 C     6.0000    0    12.011    4.510993    5.289639    3.982139
  23 N     7.0000    0    14.007    3.835625    7.032346    2.201468
  24 C     6.0000    0    12.011    4.664146    6.652500   -0.381605
  25 C     6.0000    0    12.011    3.612795    8.758706   -2.068446
  26 O     8.0000    0    15.999    6.199631    3.723564    3.643958
  27 C     6.0000    0    12.011    4.072016    4.059852    8.609206
  28 C     6.0000    0    12.011    2.424072    3.921241   10.996408
  29 C     6.0000    0    12.011    3.832482    2.479538   13.075949
  30 C     6.0000    0    12.011    1.607600    6.542904   11.917530
  31 O     8.0000    0    15.999   -1.336952    7.685319    3.922756
  32 C     6.0000    0    12.011   -5.237540    5.000120    1.560192
  33 C     6.0000    0    12.011   -3.764150    6.029011   -0.681342
  34 C     6.0000    0    12.011   -4.555306    4.908126   -3.244097
  35 C     6.0000    0    12.011   -3.855030    2.102950   -3.462084
  36 C     6.0000    0    12.011   -3.254138    1.160713   -6.128002
  37 C     6.0000    0    12.011   -2.416831   -1.609057   -6.073457
  38 C     6.0000    0    12.011   -1.213153   -2.607683   -8.497669
  39 C     6.0000    0    12.011   -0.245247   -5.316437   -8.195738
  40 C     6.0000    0    12.011    1.061936   -6.378939  -10.545138
  41 C     6.0000    0    12.011    2.087480   -9.051593  -10.145953
  42 O     8.0000    0    15.999   -7.542015    5.017683    1.598769
  43 O     8.0000    0    15.999   -2.036716   -0.143930    5.407615
  44 O     8.0000    0    15.999   -6.660875   -3.384094   -1.834794
  45 C     6.0000    0    12.011   -4.048232   -8.679992    1.329856
  46 C     6.0000    0    12.011   -2.501810  -11.038431    0.705889
  47 O     8.0000    0    15.999   -0.223926   -4.671075    3.513540
  48 C     6.0000    0    12.011    4.977456   -3.562842    2.818529
  49 C     6.0000    0    12.011    7.462615   -2.332448    1.987350
  50 C     6.0000    0    12.011    5.468088   -6.059912    4.203490
  51 H     1.0000    0     1.008    1.883603    1.281862   -5.019810
  52 H     1.0000    0     1.008    4.625256    2.374086   -8.469162
  53 H     1.0000    0     1.008    5.441463   -0.890149   -8.120109
  54 H     1.0000    0     1.008    9.035148    0.127456   -5.428720
  55 H     1.0000    0     1.008    9.267223    2.527668   -7.770518
  56 H     1.0000    0     1.008    8.910664    3.768699   -2.703718
  57 H     1.0000    0     1.008    7.363476    5.648011   -5.041879
  58 H     1.0000    0     1.008    2.295579   -0.138188   -0.435134
  59 H     1.0000    0     1.008    4.076823   -5.510516   -0.664311
  60 H     1.0000    0     1.008   -0.086543   -5.655730   -2.378784
  61 H     1.0000    0     1.008   -4.005872   -7.147828   -2.443383
  62 H     1.0000    0     1.008   -3.810324   -3.940523    3.375914
  63 H     1.0000    0     1.008   -6.968631   -0.392623    4.458218
  64 H     1.0000    0     1.008   -6.823928    0.252527    1.162759
  65 H     1.0000    0     1.008   -2.077237    0.834720    1.584696
  66 H     1.0000    0     1.008   -5.076741    3.931349    5.448257
  67 H     1.0000    0     1.008    0.181923    2.289770    5.990133
  68 H     1.0000    0     1.008    2.439390    7.383503    6.806721
  69 H     1.0000    0     1.008    2.111534    7.887149    2.490118
  70 H     1.0000    0     1.008    6.740367    6.666985   -0.415665
  71 H     1.0000    0     1.008    4.268774   10.607221   -1.393214
  72 H     1.0000    0     1.008    4.230130    8.517962   -4.034283
  73 H     1.0000    0     1.008    1.536219    8.738263   -2.033186
  74 H     1.0000    0     1.008    5.849207    5.055754    9.044966
  75 H     1.0000    0     1.008    4.631393    2.145503    8.012266
  76 H     1.0000    0     1.008    0.699774    2.845174   10.527204
  77 H     1.0000    0     1.008    4.388072    0.580864   12.437434
  78 H     1.0000    0     1.008    5.563961    3.492205   13.633537
  79 H     1.0000    0     1.008    2.651899    2.264722   14.772358
  80 H     1.0000    0     1.008    0.430023    7.528688   10.518995
  81 H     1.0000    0     1.008    0.501982    6.398220   13.670855
  82 H     1.0000    0     1.008    3.267605    7.736186   12.314807
  83 H     1.0000    0     1.008   -1.736310    5.724774   -0.400749
  84 H     1.0000    0     1.008   -4.095008    8.084317   -0.657244
  85 H     1.0000    0     1.008   -3.562674    5.990080   -4.723726
  86 H     1.0000    0     1.008   -6.590362    5.196791   -3.554894
  87 H     1.0000    0     1.008   -5.362852    0.915709   -2.663754
  88 H     1.0000    0     1.008   -2.155193    1.767753   -2.307081
  89 H     1.0000    0     1.008   -1.735649    2.343987   -6.947290
  90 H     1.0000    0     1.008   -4.899503    1.390372   -7.386548
  91 H     1.0000    0     1.008   -4.046661   -2.789148   -5.543584
  92 H     1.0000    0     1.008   -1.044608   -1.833344   -4.513181
  93 H     1.0000    0     1.008    0.378023   -1.376152   -9.055982
  94 H     1.0000    0     1.008   -2.585546   -2.518481  -10.065498
  95 H     1.0000    0     1.008   -1.837502   -6.560664   -7.667622
  96 H     1.0000    0     1.008    1.119174   -5.370972   -6.614753
  97 H     1.0000    0     1.008    2.624531   -5.106136  -11.078118
  98 H     1.0000    0     1.008   -0.272938   -6.361705  -12.146475
  99 H     1.0000    0     1.008    3.023285   -9.778673  -11.852392
 100 H     1.0000    0     1.008    3.474747   -9.085793   -8.597289
 101 H     1.0000    0     1.008    0.558662  -10.374195   -9.653626
 102 H     1.0000    0     1.008   -1.156659   -1.689140    4.828132
 103 H     1.0000    0     1.008   -6.083377   -9.102340    1.238033
 104 H     1.0000    0     1.008   -3.648365   -8.067438    3.272321
 105 H     1.0000    0     1.008   -2.945092  -12.579459    2.023704
 106 H     1.0000    0     1.008   -2.897481  -11.714109   -1.220535
 107 H     1.0000    0     1.008   -0.464204  -10.660532    0.841615
 108 H     1.0000    0     1.008    3.994751   -2.260788    4.115482
 109 H     1.0000    0     1.008    7.162192   -0.426484    1.232040
 110 H     1.0000    0     1.008    8.735728   -2.144720    3.615736
 111 H     1.0000    0     1.008    8.418815   -3.490739    0.547183
 112 H     1.0000    0     1.008    3.707975   -6.945117    4.849348
 113 H     1.0000    0     1.008    6.467985   -7.397037    2.959592
 114 H     1.0000    0     1.008    6.667720   -5.736807    5.867274

--------------------------------
INTERNAL COORDINATES (ANGSTROEM)
--------------------------------
 O      0   0   0     0.000000000000     0.00000000     0.00000000
 C      1   0   0     1.233446689151     0.00000000     0.00000000
 C      2   1   0     1.550087508016   122.15483158     0.00000000
 C      3   2   1     1.527246208069   111.72464086   349.82278761
 C      4   3   2     1.535355653199   102.83981544   271.81604373
 C      5   4   3     1.533684284523   103.57647987   320.57906740
 N      6   5   4     1.477208933817   103.40439271    29.07517890
 C      7   6   5     1.349906247518   126.07649159   179.53820420
 O      8   7   6     1.246557615381   121.71013379   184.62906903
 N      2   1   3     1.356929328072   124.17311391   177.80431368
 C     10   2   1     1.454966373251   122.03255290     8.93248706
 C     11  10   2     1.541972943529   108.22147120   235.12640415
 N     12  11  10     1.349765373848   114.70412971    66.32080442
 C     13  12  11     1.478199950787   127.30464692   184.54668699
 C     14  13  12     1.551821800621   110.80095905    69.49298368
 N     15  14  13     1.359703939349   114.04181834   290.05988739
 C     16  15  14     1.454557175459   123.84832883   156.52862772
 C     17  16  15     1.539485807123   108.64637065   251.79969843
 C     18  17  16     1.550103387343   112.85565714   178.67884222
 C     19  18  17     1.539560785504   115.98844933   176.79111190
 N     20  19  18     1.349313520812   116.51195664   327.56313901
 C     21  20  19     1.460728894849   123.39978501   176.79308298
 C     22  21  20     1.543826818496   106.91610234   279.00692688
 N     23  22  21     1.366050175429   113.07533469    76.00286202
 C     24  23  22     1.449500959095   118.53762214   199.21859180
 C     25  24  23     1.532503002043   109.79268651   177.74852417
 O     23  22  21     1.231795980875   123.88841061   259.48196941
 C     22  21  20     1.523835827446   110.84919505   156.59878302
 C     28  22  21     1.536771683394   114.71150269   303.62391087
 C     29  28  22     1.532479200287   109.75884830   178.32954064
 C     29  28  22     1.532624321023   112.22229060   302.33210347
 O     20  19  18     1.244372788995   120.59997181   149.45882664
 C     19  18  17     1.552354123838   108.98136474   302.57092937
 C     33  19  18     1.520311280983   119.37997510   273.07284680
 C     34  33  19     1.538261037240   114.21589227   125.06107803
 C     35  34  33     1.534332583470   111.93807051   292.02192348
 C     36  35  34     1.529678710949   115.77885288   210.49982495
 C     37  36  35     1.531479562612   110.77606049   176.24447702
 C     38  37  36     1.526646984721   115.85894047   192.99401828
 C     39  38  37     1.530534738353   112.09171806   175.35724485
 C     40  39  38     1.529799621114   114.24829780   181.99486872
 C     41  40  39     1.529511385529   112.83310899   177.95136258
 O     33  19  18     1.219681999990   119.04923970    91.07427537
 O     18  17  16     1.447418739488   108.35342468   299.46635966
 O     15  14  13     1.230235753917   120.98947116   109.05351236
 C     14  13  12     1.536300064120   112.99170767   299.78776017
 C     46  14  13     1.528487773910   112.69493543   301.92011809
 O     12  11  10     1.248686398043   121.92452278   247.54950748
 C     11  10   2     1.541249576923   112.95349748   109.43549943
 C     49  11  10     1.531942205370   110.68749323   312.43092582
 C     49  11  10     1.533171698048   110.01230218   189.40592087
 H      3   2   1     1.099936781950   107.28853883   114.64582175
 H      4   3   2     1.099633288102   109.70819205   153.56769502
 H      4   3   2     1.095045872992   110.88534089    32.73586828
 H      5   4   3     1.099032250779   109.36748370    78.03093169
 H      5   4   3     1.096773717378   113.44145981   198.92099236
 H      6   5   4     1.098404722167   113.03655384   148.44194207
 H      6   5   4     1.101956142580   111.09976112   270.73813956
 H     10   2   1     1.033366594848   116.48714069   179.69712733
 H     11  10   2     1.103373001699   105.27034263   350.91321716
 H     13  12  11     1.018266959409   116.15419975   356.37864949
 H     14  13  12     1.097795608348   104.91332092   181.57628177
 H     16  15  14     1.021919211837   114.88541709     2.38122874
 H     17  16  15     1.100433192495   110.59569005   132.21278794
 H     17  16  15     1.094884312708   108.10003152    13.89180935
 H     18  17  16     1.103454061840   108.97367151    58.13756216
 H     19  18  17     1.102882836284   107.58669634    56.88095133
 H     21  20  19     1.029099802066   115.74077094     4.95551444
 H     22  21  20     1.100269603980   107.15264155    35.00079053
 H     24  23  22     1.029721842766   115.21617768   346.98962208
 H     25  24  23     1.098863432517   108.47705924   298.45203837
 H     26  25  24     1.097740362295   110.10123915    59.29002929
 H     26  25  24     1.097781179532   111.07113835   179.53009150
 H     26  25  24     1.099088374180   110.23780343   299.46000881
 H     28  22  21     1.102431576739   107.84713603   181.24383189
 H     28  22  21     1.101651631486   108.47912173    67.22384861
 H     29  28  22     1.103848668339   107.98654248    60.98902837
 H     30  29  28     1.100045162217   111.35311394   303.48960736
 H     30  29  28     1.101707918856   110.77140458    63.33564099
 H     30  29  28     1.099584680198   111.18575829   183.06397089
 H     31  29  28     1.099155924869   112.04187598    62.48958719
 H     31  29  28     1.099552211004   110.81424209   182.46505737
 H     31  29  28     1.102082735053   110.76989652   301.86616823
 H     34  33  19     1.095208585702   110.12464838     1.72138544
 H     34  33  19     1.101697105546   105.24929071   246.23793159
 H     35  34  33     1.103083747499   107.21992591   171.91852419
 H     35  34  33     1.100049101155   110.16370618    56.13436687
 H     36  35  34     1.099925234208   110.39753309    86.62777027
 H     36  35  34     1.101888081833   108.13162449   330.25657617
 H     37  36  35     1.107129430679   109.12740501    55.24880723
 H     37  36  35     1.102913545937   110.90857746   298.94283568
 H     38  37  36     1.101111487719   108.72097304    68.35263131
 H     38  37  36     1.105937461383   107.86307406   314.69194212
 H     39  38  37     1.104982420283   109.78285186    54.08946694
 H     39  38  37     1.103624154239   110.01946014   297.83627919
 H     40  39  38     1.105243966376   109.21977340    59.18935043
 H     40  39  38     1.105477925573   108.78522658   302.82352809
 H     41  40  39     1.103153630865   108.80275478    56.20944333
 H     41  40  39     1.103237855563   109.36984661   300.64241376
 H     42  41  40     1.099404075920   111.71495316   180.15200721
 H     42  41  40     1.100388620738   110.77969747   300.33632217
 H     42  41  40     1.101012345745   111.08569105    59.95669178
 H     44  18  17     0.989713462134   108.38323243    78.71746857
 H     46  14  13     1.100971364785   106.74774322   180.57193275
 H     46  14  13     1.098382143502   110.08913707    64.96851803
 H     47  46  14     1.098333369257   110.77708599   182.03975633
 H     47  46  14     1.100409154116   111.31910280   302.02312332
 H     47  46  14     1.098991620915   111.25939455    62.33526047
 H     49  11  10     1.102815868826   107.81071687    71.00359776
 H     50  49  11     1.096488676605   111.78587225    65.48738955
 H     50  49  11     1.098307097161   109.86174901   184.06975033
 H     50  49  11     1.101150788471   110.89178769   303.56633542
 H     51  49  11     1.097161671616   111.90816199   301.56898019
 H     51  49  11     1.101779360062   110.44087416    62.73522776
 H     51  49  11     1.098815861484   110.28828739   181.45083909

---------------------------
INTERNAL COORDINATES (A.U.)
---------------------------
 O      0   0   0     0.000000000000     0.00000000     0.00000000
 C      1   0   0     2.330876443287     0.00000000     0.00000000
 C      2   1   0     2.929240873762   122.15483158     0.00000000
 C      3   2   1     2.886077072321   111.72464086   349.82278761
 C      4   3   2     2.901401702713   102.83981544   271.81604373
 C      5   4   3     2.898243273647   103.57647987   320.57906740
 N      6   5   4     2.791520327496   103.40439271    29.07517890
 C      7   6   5     2.550953114279   126.07649159   179.53820420
 O      8   7   6     2.355652503223   121.71013379   184.62906903
 N      2   1   3     2.564224813141   124.17311391   177.80431368
 C     10   2   1     2.749487979508   122.03255290     8.93248706
 C     11  10   2     2.913906569186   108.22147120   235.12640415
 N     12  11  10     2.550686901623   114.70412971    66.32080442
 C     13  12  11     2.793393078164   127.30464692   184.54668699
 C     14  13  12     2.932518211823   110.80095905    69.49298368
 N     15  14  13     2.569468068584   114.04181834   290.05988739
 C     16  15  14     2.748714707748   123.84832883   156.52862772
 C     17  16  15     2.909206562521   108.64637065   251.79969843
 C     18  17  16     2.929270881341   112.85565714   178.67884222
 C     19  18  17     2.909348251128   115.98844933   176.79111190
 N     20  19  18     2.549833023131   116.51195664   327.56313901
 C     21  20  19     2.760377567169   123.39978501   176.79308298
 C     22  21  20     2.917409885160   106.91610234   279.00692688
 N     23  22  21     2.581460716755   113.07533469    76.00286202
 C     24  23  22     2.739159843547   118.53762214   199.21859180
 C     25  24  23     2.896010973274   109.79268651   177.74852417
 O     23  22  21     2.327757056718   123.88841061   259.48196941
 C     22  21  20     2.879632386931   110.84919505   156.59878302
 C     28  22  21     2.904077611980   114.71150269   303.62391087
 C     29  28  22     2.895965994473   109.75884830   178.32954064
 C     29  28  22     2.896240232921   112.22229060   302.33210347
 O     20  19  18     2.351523779704   120.59997181   149.45882664
 C     19  18  17     2.933524156917   108.98136474   302.57092937
 C     33  19  18     2.872971959368   119.37997510   273.07284680
 C     34  33  19     2.906892082866   114.21589227   125.06107803
 C     35  34  33     2.899468381109   111.93807051   292.02192348
 C     36  35  34     2.890673836584   115.77885288   210.49982495
 C     37  36  35     2.894076953035   110.77606049   176.24447702
 C     38  37  36     2.884944704300   115.85894047   192.99401828
 C     39  38  37     2.892291493939   112.09171806   175.35724485
 C     40  39  38     2.890902323682   114.24829780   181.99486872
 C     41  40  39     2.890357637365   112.83310899   177.95136258
 O     33  19  18     2.304864950455   119.04923970    91.07427537
 O     18  17  16     2.735225018738   108.35342468   299.46635966
 O     15  14  13     2.324808655061   120.98947116   109.05351236
 C     14  13  12     2.903186380712   112.99170767   299.78776017
 C     46  14  13     2.888423291737   112.69493543   301.92011809
 O     12  11  10     2.359675319454   121.92452278   247.54950748
 C     11  10   2     2.912539604406   112.95349748   109.43549943
 C     49  11  10     2.894951221146   110.68749323   312.43092582
 C     49  11  10     2.897274625590   110.01230218   189.40592087
 H      3   2   1     2.078579282511   107.28853883   114.64582175
 H      4   3   2     2.078005762257   109.70819205   153.56769502
 H      4   3   2     2.069336804035   110.88534089    32.73586828
 H      5   4   3     2.076869966319   109.36748370    78.03093169
 H      5   4   3     2.072601956727   113.44145981   198.92099236
[...]
freq.      96.74  E(vib)   ...       0.46 
freq.      99.43  E(vib)   ...       0.46 
freq.     103.63  E(vib)   ...       0.46 
freq.     104.30  E(vib)   ...       0.46 
freq.     112.43  E(vib)   ...       0.45 
freq.     115.16  E(vib)   ...       0.44 
freq.     122.58  E(vib)   ...       0.43 
freq.     125.46  E(vib)   ...       0.43 
freq.     128.84  E(vib)   ...       0.43 
freq.     138.74  E(vib)   ...       0.42 
freq.     147.04  E(vib)   ...       0.41 
freq.     148.74  E(vib)   ...       0.41 
freq.     158.22  E(vib)   ...       0.39 
freq.     161.31  E(vib)   ...       0.39 
freq.     168.03  E(vib)   ...       0.38 
freq.     170.71  E(vib)   ...       0.38 
freq.     176.87  E(vib)   ...       0.38 
freq.     180.43  E(vib)   ...       0.37 
freq.     194.01  E(vib)   ...       0.36 
freq.     197.65  E(vib)   ...       0.35 
freq.     202.10  E(vib)   ...       0.35 
freq.     208.64  E(vib)   ...       0.34 
freq.     214.06  E(vib)   ...       0.34 
freq.     214.93  E(vib)   ...       0.34 
freq.     221.59  E(vib)   ...       0.33 
freq.     222.22  E(vib)   ...       0.33 
freq.     224.14  E(vib)   ...       0.33 
freq.     230.35  E(vib)   ...       0.32 
freq.     235.42  E(vib)   ...       0.32 
freq.     236.51  E(vib)   ...       0.32 
freq.     240.06  E(vib)   ...       0.31 
freq.     241.68  E(vib)   ...       0.31 
freq.     242.94  E(vib)   ...       0.31 
freq.     246.66  E(vib)   ...       0.31 
freq.     264.84  E(vib)   ...       0.29 
freq.     268.43  E(vib)   ...       0.29 
freq.     272.95  E(vib)   ...       0.29 
freq.     284.92  E(vib)   ...       0.28 
freq.     287.06  E(vib)   ...       0.27 
freq.     299.62  E(vib)   ...       0.26 
freq.     307.46  E(vib)   ...       0.26 
freq.     313.15  E(vib)   ...       0.25 
freq.     317.28  E(vib)   ...       0.25 
freq.     331.36  E(vib)   ...       0.24 
freq.     341.00  E(vib)   ...       0.23 
freq.     346.32  E(vib)   ...       0.23 
freq.     352.28  E(vib)   ...       0.23 
freq.     361.21  E(vib)   ...       0.22 
freq.     365.49  E(vib)   ...       0.22 
freq.     366.34  E(vib)   ...       0.22 
freq.     374.06  E(vib)   ...       0.21 
freq.     383.75  E(vib)   ...       0.20 
freq.     392.65  E(vib)   ...       0.20 
freq.     399.36  E(vib)   ...       0.19 
freq.     405.56  E(vib)   ...       0.19 
freq.     408.56  E(vib)   ...       0.19 
freq.     418.28  E(vib)   ...       0.18 
freq.     431.92  E(vib)   ...       0.18 
freq.     445.67  E(vib)   ...       0.17 
freq.     452.12  E(vib)   ...       0.16 
freq.     452.75  E(vib)   ...       0.16 
freq.     480.13  E(vib)   ...       0.15 
freq.     490.84  E(vib)   ...       0.14 
freq.     507.01  E(vib)   ...       0.14 
freq.     511.29  E(vib)   ...       0.14 
freq.     537.14  E(vib)   ...       0.12 
freq.     549.22  E(vib)   ...       0.12 
freq.     554.42  E(vib)   ...       0.12 
freq.     566.66  E(vib)   ...       0.11 
freq.     574.92  E(vib)   ...       0.11 
freq.     612.12  E(vib)   ...       0.10 
freq.     625.21  E(vib)   ...       0.09 
freq.     644.04  E(vib)   ...       0.09 
freq.     654.17  E(vib)   ...       0.08 
freq.     668.54  E(vib)   ...       0.08 
freq.     677.70  E(vib)   ...       0.08 
freq.     690.40  E(vib)   ...       0.07 
freq.     696.78  E(vib)   ...       0.07 
freq.     708.78  E(vib)   ...       0.07 
freq.     716.78  E(vib)   ...       0.07 
freq.     720.23  E(vib)   ...       0.07 
freq.     724.51  E(vib)   ...       0.06 
freq.     732.56  E(vib)   ...       0.06 
freq.     739.98  E(vib)   ...       0.06 
freq.     744.58  E(vib)   ...       0.06 
freq.     751.46  E(vib)   ...       0.06 
freq.     752.52  E(vib)   ...       0.06 
freq.     763.76  E(vib)   ...       0.06 
freq.     769.53  E(vib)   ...       0.06 
freq.     771.34  E(vib)   ...       0.05 
freq.     786.45  E(vib)   ...       0.05 
freq.     790.85  E(vib)   ...       0.05 
freq.     794.57  E(vib)   ...       0.05 
freq.     806.58  E(vib)   ...       0.05 
freq.     812.57  E(vib)   ...       0.05 
freq.     822.50  E(vib)   ...       0.05 
freq.     831.67  E(vib)   ...       0.04 
freq.     836.16  E(vib)   ...       0.04 
freq.     840.11  E(vib)   ...       0.04 
freq.     845.03  E(vib)   ...       0.04 
freq.     856.09  E(vib)   ...       0.04 
freq.     863.78  E(vib)   ...       0.04 
freq.     875.16  E(vib)   ...       0.04 
freq.     877.71  E(vib)   ...       0.04 
freq.     881.54  E(vib)   ...       0.04 
freq.     899.26  E(vib)   ...       0.03 
freq.     902.00  E(vib)   ...       0.03 
freq.     906.83  E(vib)   ...       0.03 
freq.     910.85  E(vib)   ...       0.03 
freq.     915.25  E(vib)   ...       0.03 
freq.     920.02  E(vib)   ...       0.03 
freq.     921.19  E(vib)   ...       0.03 
freq.     929.28  E(vib)   ...       0.03 
freq.     933.02  E(vib)   ...       0.03 
freq.     933.42  E(vib)   ...       0.03 
freq.     936.06  E(vib)   ...       0.03 
freq.     944.80  E(vib)   ...       0.03 
freq.     945.75  E(vib)   ...       0.03 
freq.     953.99  E(vib)   ...       0.03 
freq.     954.71  E(vib)   ...       0.03 
freq.     957.92  E(vib)   ...       0.03 
freq.     974.94  E(vib)   ...       0.03 
freq.     986.02  E(vib)   ...       0.02 
freq.     986.80  E(vib)   ...       0.02 
freq.     993.70  E(vib)   ...       0.02 
freq.    1004.57  E(vib)   ...       0.02 
freq.    1006.80  E(vib)   ...       0.02 
freq.    1012.60  E(vib)   ...       0.02 
freq.    1023.89  E(vib)   ...       0.02 
freq.    1028.08  E(vib)   ...       0.02 
freq.    1032.61  E(vib)   ...       0.02 
freq.    1034.98  E(vib)   ...       0.02 
freq.    1042.20  E(vib)   ...       0.02 
freq.    1050.42  E(vib)   ...       0.02 
freq.    1053.58  E(vib)   ...       0.02 
freq.    1055.82  E(vib)   ...       0.02 
freq.    1059.93  E(vib)   ...       0.02 
freq.    1064.54  E(vib)   ...       0.02 
freq.    1068.50  E(vib)   ...       0.02 
freq.    1079.24  E(vib)   ...       0.02 
freq.    1081.50  E(vib)   ...       0.02 
freq.    1088.88  E(vib)   ...       0.02 
freq.    1091.71  E(vib)   ...       0.02 
freq.    1096.07  E(vib)   ...       0.02 
freq.    1107.89  E(vib)   ...       0.02 
freq.    1114.48  E(vib)   ...       0.01 
freq.    1119.96  E(vib)   ...       0.01 
freq.    1121.11  E(vib)   ...       0.01 
freq.    1130.27  E(vib)   ...       0.01 
freq.    1131.04  E(vib)   ...       0.01 
freq.    1133.56  E(vib)   ...       0.01 
freq.    1143.55  E(vib)   ...       0.01 
freq.    1157.02  E(vib)   ...       0.01 
freq.    1157.93  E(vib)   ...       0.01 
freq.    1160.71  E(vib)   ...       0.01 
freq.    1163.04  E(vib)   ...       0.01 
freq.    1163.79  E(vib)   ...       0.01 
freq.    1169.96  E(vib)   ...       0.01 
freq.    1176.23  E(vib)   ...       0.01 
freq.    1181.55  E(vib)   ...       0.01 
freq.    1199.12  E(vib)   ...       0.01 
freq.    1208.64  E(vib)   ...       0.01 
freq.    1211.62  E(vib)   ...       0.01 
freq.    1217.17  E(vib)   ...       0.01 
freq.    1222.82  E(vib)   ...       0.01 
freq.    1224.20  E(vib)   ...       0.01 
freq.    1230.52  E(vib)   ...       0.01 
freq.    1231.38  E(vib)   ...       0.01 
freq.    1233.09  E(vib)   ...       0.01 
freq.    1235.83  E(vib)   ...       0.01 
freq.    1246.31  E(vib)   ...       0.01 
freq.    1250.71  E(vib)   ...       0.01 
freq.    1251.49  E(vib)   ...       0.01 
freq.    1252.53  E(vib)   ...       0.01 
freq.    1257.44  E(vib)   ...       0.01 
freq.    1264.47  E(vib)   ...       0.01 
freq.    1270.17  E(vib)   ...       0.01 
freq.    1274.42  E(vib)   ...       0.01 
freq.    1275.05  E(vib)   ...       0.01 
freq.    1278.22  E(vib)   ...       0.01 
freq.    1279.46  E(vib)   ...       0.01 
freq.    1286.46  E(vib)   ...       0.01 
freq.    1288.57  E(vib)   ...       0.01 
freq.    1290.88  E(vib)   ...       0.01 
freq.    1294.24  E(vib)   ...       0.01 
freq.    1294.96  E(vib)   ...       0.01 
freq.    1298.85  E(vib)   ...       0.01 
freq.    1301.06  E(vib)   ...       0.01 
freq.    1302.61  E(vib)   ...       0.01 
freq.    1304.37  E(vib)   ...       0.01 
freq.    1307.25  E(vib)   ...       0.01 
freq.    1310.40  E(vib)   ...       0.01 
freq.    1314.40  E(vib)   ...       0.01 
freq.    1316.38  E(vib)   ...       0.01 
freq.    1317.07  E(vib)   ...       0.01 
freq.    1320.11  E(vib)   ...       0.01 
freq.    1324.28  E(vib)   ...       0.01 
freq.    1331.35  E(vib)   ...       0.01 
freq.    1338.45  E(vib)   ...       0.01 
freq.    1340.03  E(vib)   ...       0.01 
freq.    1340.97  E(vib)   ...       0.01 
freq.    1344.07  E(vib)   ...       0.01 
freq.    1345.98  E(vib)   ...       0.01 
freq.    1347.19  E(vib)   ...       0.01 
freq.    1350.92  E(vib)   ...       0.01 
freq.    1351.67  E(vib)   ...       0.01 
freq.    1352.43  E(vib)   ...       0.01 
freq.    1355.69  E(vib)   ...       0.01 
freq.    1359.01  E(vib)   ...       0.01 
freq.    1362.87  E(vib)   ...       0.01 
freq.    1365.13  E(vib)   ...       0.01 
freq.    1372.44  E(vib)   ...       0.01 
freq.    1375.28  E(vib)   ...       0.01 
freq.    1390.13  E(vib)   ...       0.00 
freq.    1410.94  E(vib)   ...       0.00 
freq.    1419.65  E(vib)   ...       0.00 
freq.    1426.77  E(vib)   ...       0.00 
freq.    1427.23  E(vib)   ...       0.00 
freq.    1430.69  E(vib)   ...       0.00 
freq.    1431.39  E(vib)   ...       0.00 
freq.    1434.47  E(vib)   ...       0.00 
freq.    1436.15  E(vib)   ...       0.00 
freq.    1437.01  E(vib)   ...       0.00 
freq.    1438.90  E(vib)   ...       0.00 
freq.    1440.59  E(vib)   ...       0.00 
freq.    1442.28  E(vib)   ...       0.00 
freq.    1443.49  E(vib)   ...       0.00 
freq.    1444.44  E(vib)   ...       0.00 
freq.    1445.95  E(vib)   ...       0.00 
freq.    1447.85  E(vib)   ...       0.00 
freq.    1449.97  E(vib)   ...       0.00 
freq.    1450.53  E(vib)   ...       0.00 
freq.    1451.73  E(vib)   ...       0.00 
freq.    1453.72  E(vib)   ...       0.00 
freq.    1454.96  E(vib)   ...       0.00 
freq.    1455.93  E(vib)   ...       0.00 
freq.    1456.28  E(vib)   ...       0.00 
freq.    1458.27  E(vib)   ...       0.00 
freq.    1461.70  E(vib)   ...       0.00 
freq.    1463.15  E(vib)   ...       0.00 
freq.    1465.92  E(vib)   ...       0.00 
freq.    1470.37  E(vib)   ...       0.00 
freq.    1472.15  E(vib)   ...       0.00 
freq.    1506.13  E(vib)   ...       0.00 
freq.    1507.62  E(vib)   ...       0.00 
freq.    1516.16  E(vib)   ...       0.00 
freq.    1522.54  E(vib)   ...       0.00 
freq.    1541.97  E(vib)   ...       0.00 
freq.    1614.27  E(vib)   ...       0.00 
freq.    1618.39  E(vib)   ...       0.00 
freq.    1626.94  E(vib)   ...       0.00 
freq.    1672.12  E(vib)   ...       0.00 
freq.    1683.23  E(vib)   ...       0.00 
freq.    1694.57  E(vib)   ...       0.00 
freq.    1709.13  E(vib)   ...       0.00 
freq.    2904.96  E(vib)   ...       0.00 
freq.    2915.49  E(vib)   ...       0.00 
freq.    2922.81  E(vib)   ...       0.00 
freq.    2930.50  E(vib)   ...       0.00 
freq.    2940.03  E(vib)   ...       0.00 
freq.    2942.26  E(vib)   ...       0.00 
freq.    2943.57  E(vib)   ...       0.00 
freq.    2946.68  E(vib)   ...       0.00 
freq.    2950.98  E(vib)   ...       0.00 
freq.    2951.54  E(vib)   ...       0.00 
freq.    2952.72  E(vib)   ...       0.00 
freq.    2953.16  E(vib)   ...       0.00 
freq.    2954.73  E(vib)   ...       0.00 
freq.    2956.55  E(vib)   ...       0.00 
freq.    2958.58  E(vib)   ...       0.00 
freq.    2959.63  E(vib)   ...       0.00 
freq.    2962.13  E(vib)   ...       0.00 
freq.    2964.19  E(vib)   ...       0.00 
freq.    2964.57  E(vib)   ...       0.00 
freq.    2966.16  E(vib)   ...       0.00 
freq.    2970.72  E(vib)   ...       0.00 
freq.    2972.25  E(vib)   ...       0.00 
freq.    2974.08  E(vib)   ...       0.00 
freq.    2975.99  E(vib)   ...       0.00 
freq.    2978.28  E(vib)   ...       0.00 
freq.    2979.18  E(vib)   ...       0.00 
freq.    2979.27  E(vib)   ...       0.00 
freq.    2985.92  E(vib)   ...       0.00 
freq.    2986.58  E(vib)   ...       0.00 
freq.    2987.03  E(vib)   ...       0.00 
freq.    2996.02  E(vib)   ...       0.00 
freq.    2996.96  E(vib)   ...       0.00 
freq.    2999.77  E(vib)   ...       0.00 
freq.    3001.79  E(vib)   ...       0.00 
freq.    3002.32  E(vib)   ...       0.00 
freq.    3003.36  E(vib)   ...       0.00 
freq.    3010.82  E(vib)   ...       0.00 
freq.    3015.93  E(vib)   ...       0.00 
freq.    3016.35  E(vib)   ...       0.00 
freq.    3020.07  E(vib)   ...       0.00 
freq.    3020.81  E(vib)   ...       0.00 
freq.    3021.20  E(vib)   ...       0.00 
freq.    3024.48  E(vib)   ...       0.00 
freq.    3026.10  E(vib)   ...       0.00 
freq.    3028.69  E(vib)   ...       0.00 
freq.    3028.79  E(vib)   ...       0.00 
freq.    3032.56  E(vib)   ...       0.00 
freq.    3035.67  E(vib)   ...       0.00 
freq.    3041.88  E(vib)   ...       0.00 
freq.    3043.16  E(vib)   ...       0.00 
freq.    3050.11  E(vib)   ...       0.00 
freq.    3050.53  E(vib)   ...       0.00 
freq.    3054.13  E(vib)   ...       0.00 
freq.    3056.16  E(vib)   ...       0.00 
freq.    3060.00  E(vib)   ...       0.00 
freq.    3060.54  E(vib)   ...       0.00 
freq.    3069.53  E(vib)   ...       0.00 
freq.    3076.65  E(vib)   ...       0.00 
freq.    3197.60  E(vib)   ...       0.00 
freq.    3264.66  E(vib)   ...       0.00 
freq.    3286.61  E(vib)   ...       0.00 
freq.    3355.81  E(vib)   ...       0.00 
freq.    3395.21  E(vib)   ...       0.00 
freq.    3475.43  E(vib)   ...       0.00 

------------
INNER ENERGY
------------

The inner energy is: U= E(el) + E(ZPE) + E(vib) + E(rot) + E(trans)
    E(el)   - is the total energy from the electronic structure calculation
              = E(kin-el) + E(nuc-el) + E(el-el) + E(nuc-nuc)
    E(ZPE)  - the the zero temperature vibrational energy from the frequency calculation
    E(vib)  - the the finite temperature correction to E(ZPE) due to population
              of excited vibrational states
    E(rot)  - is the rotational thermal energy
    E(trans)- is the translational thermal energy

Summary of contributions to the inner energy U:
Electronic energy                ...  -2380.09790852 Eh
Zero point energy                ...      0.97948157 Eh     614.63 kcal/mol
Thermal vibrational correction   ...      0.05365745 Eh      33.67 kcal/mol
Thermal rotational correction    ...      0.00141627 Eh       0.89 kcal/mol
Thermal translational correction ...      0.00141627 Eh       0.89 kcal/mol
-----------------------------------------------------------------------
Total thermal energy                  -2379.06193696 Eh


Summary of corrections to the electronic energy:
(perhaps to be used in another calculation)
Total thermal correction                  0.05649000 Eh      35.45 kcal/mol
Non-thermal (ZPE) correction              0.97948157 Eh     614.63 kcal/mol
-----------------------------------------------------------------------
Total correction                          1.03597156 Eh     650.08 kcal/mol


--------
ENTHALPY
--------

The enthalpy is H = U + kB*T
                kB is Boltzmann's constant
Total free energy                 ...  -2379.06193696 Eh 
Thermal Enthalpy correction       ...      0.00094421 Eh       0.59 kcal/mol
-----------------------------------------------------------------------
Total Enthalpy                    ...  -2379.06099275 Eh


Note: Only C1 symmetry has been detected, increase convergence thresholds 
      if your molecule has a higher symmetry. Symmetry factor of 1.0 is   
      used for the rotational entropy correction. 
 

Note: Rotational entropy computed according to Herzberg 
Infrared and Raman Spectra, Chapter V,1, Van Nostrand Reinhold, 1945 
Point Group:  C1, Symmetry Number:   1  
Rotational constants in cm-1:     0.002412     0.001647     0.001517 

Vibrational entropy computed according to the QRRHO of S. Grimme
Chem.Eur.J. 2012 18 9955


-------
ENTROPY
-------

The entropy contributions are T*S = T*(S(el)+S(vib)+S(rot)+S(trans))
     S(el)   - electronic entropy
     S(vib)  - vibrational entropy
     S(rot)  - rotational entropy
     S(trans)- translational entropy
The entropies will be listed as mutliplied by the temperature to get
units of energy

Electronic entropy                ...      0.00000000 Eh      0.00 kcal/mol
Vibrational entropy               ...      0.09692279 Eh     60.82 kcal/mol
Rotational entropy                ...      0.01844622 Eh     11.58 kcal/mol
Translational entropy             ...      0.02166895 Eh     13.60 kcal/mol
-----------------------------------------------------------------------
Final entropy term                ...      0.13703796 Eh     85.99 kcal/mol

In case the symmetry of your molecule has not been determined correctly
or in case you have a reason to use a different symmetry number we print 
out the resulting rotational entropy values for sn=1,12 :
 --------------------------------------------------------
|  sn= 1 | S(rot)=       0.01844622 Eh     11.58 kcal/mol|
|  sn= 2 | S(rot)=       0.01779176 Eh     11.16 kcal/mol|
|  sn= 3 | S(rot)=       0.01740893 Eh     10.92 kcal/mol|
|  sn= 4 | S(rot)=       0.01713731 Eh     10.75 kcal/mol|
|  sn= 5 | S(rot)=       0.01692662 Eh     10.62 kcal/mol|
|  sn= 6 | S(rot)=       0.01675448 Eh     10.51 kcal/mol|
|  sn= 7 | S(rot)=       0.01660893 Eh     10.42 kcal/mol|
|  sn= 8 | S(rot)=       0.01648285 Eh     10.34 kcal/mol|
|  sn= 9 | S(rot)=       0.01637164 Eh     10.27 kcal/mol|
|  sn=10 | S(rot)=       0.01627216 Eh     10.21 kcal/mol|
|  sn=11 | S(rot)=       0.01618217 Eh     10.15 kcal/mol|
|  sn=12 | S(rot)=       0.01610002 Eh     10.10 kcal/mol|
 --------------------------------------------------------


-------------------
GIBBS FREE ENERGY
-------------------

The Gibbs free energy is G = H - T*S

Total enthalpy                    ...  -2379.06099275 Eh 
Total entropy correction          ...     -0.13703796 Eh    -85.99 kcal/mol
-----------------------------------------------------------------------
Final Gibbs free energy         ...  -2379.19803071 Eh

For completeness - the Gibbs free energy minus the electronic energy
G-E(el)                           ...      0.89987781 Eh    564.68 kcal/mol

--------------------------------------------------------------------------
WARNING: No preset parameters were found for the device that Open MPI
detected:

  Local host:            eu-g1-042-2
  Device name:           mlx5_0
  Device vendor ID:      0x02c9
  Device vendor part ID: 4123

Default device parameters will be used, which may result in lower
performance.  You can edit any of the files specified by the
btl_openib_device_param_files MCA parameter to set values for your
device.

NOTE: You can turn off this warning by setting the MCA parameter
      btl_openib_warn_no_device_params_found to 0.
--------------------------------------------------------------------------
--------------------------------------------------------------------------
WARNING: There was an error initializing an OpenFabrics device.

  Local host:   eu-g1-042-2
  Local device: mlx5_0
--------------------------------------------------------------------------

Timings for individual modules:

Sum of individual times         ...    39959.650 sec (= 665.994 min)
GTO integral calculation        ...       14.916 sec (=   0.249 min)   0.0 %
SCF iterations                  ...      383.355 sec (=   6.389 min)   1.0 %
SCF Gradient evaluation         ...       79.556 sec (=   1.326 min)   0.2 %
Geometry relaxation             ...        3.862 sec (=   0.064 min)   0.0 %
Analytical frequency calculation...    39477.961 sec (= 657.966 min)  98.8 %
                             ****ORCA TERMINATED NORMALLY****
TOTAL RUN TIME: 0 days 11 hours 6 minutes 17 seconds 875 msec
