
                                 *****************
                                 * O   R   C   A *
                                 *****************

           --- An Ab Initio, DFT and Semiempirical electronic structure package ---

                  #######################################################
                  #                        -***-                        #
                  #          Department of theory and spectroscopy      #
                  #               Directorship: Frank Neese             #
                  #        Max Planck Institute fuer Kohlenforschung    #
                  #                Kaiser Wilhelm Platz 1               #
                  #                 D-45470 Muelheim/Ruhr               #
                  #                      Germany                        #
                  #                                                     #
                  #                  All rights reserved                #
                  #                        -***-                        #
                  #######################################################


                         Program Version 4.2.0 -  RELEASE  -


 With contributions from (in alphabetic order):
   Daniel Aravena         : Magnetic Suceptibility
   Michael Atanasov       : Ab Initio Ligand Field Theory (pilot matlab implementation)
   Alexander A. Auer      : GIAO ZORA, VPT2
   Ute Becker             : Parallelization
   Giovanni Bistoni       : ED, misc. LED, open-shell LED, HFLED
   Martin Brehm           : Molecular dynamics
   Dmytro Bykov           : SCF Hessian
   Vijay G. Chilkuri      : MRCI spin determinant printing, contributions to CSF-ICE
   Dipayan Datta          : RHF DLPNO-CCSD density
   Achintya Kumar Dutta   : EOM-CC, STEOM-CC
   Dmitry Ganyushin       : Spin-Orbit,Spin-Spin,Magnetic field MRCI
   Miquel Garcia          : C-PCM Hessian, Gaussian charge scheme
   Yang Guo               : DLPNO-NEVPT2, CIM, IAO-localization
   Andreas Hansen         : Spin unrestricted coupled pair/coupled cluster methods
   Benjamin Helmich-Paris : CASSCF linear response (MC-RPA)
   Lee Huntington         : MR-EOM, pCC
   Robert Izsak           : Overlap fitted RIJCOSX, COSX-SCS-MP3, EOM
   Christian Kollmar      : KDIIS, OOCD, Brueckner-CCSD(T), CCSD density
   Simone Kossmann        : Meta GGA functionals, TD-DFT gradient, OOMP2, MP2 Hessian
   Martin Krupicka        : AUTO-CI
   Lucas Lang             : DCDCAS
   Dagmar Lenk            : GEPOL surface, SMD
   Dimitrios Liakos       : Extrapolation schemes; Compound Job, initial MDCI parallelization
   Dimitrios Manganas     : Further ROCIS development; embedding schemes
   Dimitrios Pantazis     : SARC Basis sets
   Taras Petrenko         : DFT Hessian,TD-DFT gradient, ASA, ECA, R-Raman, ABS, FL, XAS/XES, NRVS
   Peter Pinski           : DLPNO-MP2, DLPNO-MP2 Gradient
   Christoph Reimann      : Effective Core Potentials
   Marius Retegan         : Local ZFS, SOC
   Christoph Riplinger    : Optimizer, TS searches, QM/MM, DLPNO-CCSD(T), (RO)-DLPNO pert. Triples
   Tobias Risthaus        : Range-separated hybrids, TD-DFT gradient, RPA, STAB
   Michael Roemelt        : Original ROCIS implementation
   Masaaki Saitow         : Open-shell DLPNO-CCSD energy and density
   Barbara Sandhoefer     : DKH picture change effects
   Avijit Sen             : IP-ROCIS
   Kantharuban Sivalingam : CASSCF convergence, NEVPT2, FIC-MRCI
   Bernardo de Souza      : ESD, SOC TD-DFT
   Georgi Stoychev        : AutoAux, RI-MP2 NMR
   Willem Van den Heuvel  : Paramagnetic NMR
   Boris Wezisla          : Elementary symmetry handling
   Frank Wennmohs         : Technical directorship


 We gratefully acknowledge several colleagues who have allowed us to
 interface, adapt or use parts of their codes:
   Stefan Grimme, W. Hujo, H. Kruse,             : VdW corrections, initial TS optimization,
                  C. Bannwarth                     DFT functionals, gCP, sTDA/sTD-DF
   Ed Valeev, F. Pavosevic, A. Kumar             : LibInt (2-el integral package), F12 methods
   Garnet Chan, S. Sharma, J. Yang, R. Olivares  : DMRG
   Ulf Ekstrom                                   : XCFun DFT Library
   Mihaly Kallay                                 : mrcc  (arbitrary order and MRCC methods)
   Andreas Klamt, Michael Diedenhofen            : otool_cosmo (COSMO solvation model)
   Jiri Pittner, Ondrej Demel                    : Mk-CCSD
   Frank Weinhold                                : gennbo (NPA and NBO analysis)
   Christopher J. Cramer and Donald G. Truhlar   : smd solvation model
   Lars Goerigk                                  : TD-DFT with DH, B97 family of functionals
   V. Asgeirsson, H. Jonsson                     : NEB implementation
   FAccTs GmbH                                   : IRC, NEB, NEB-TS, Multilevel, MM, QM/MM, CI optimization
   S Lehtola, MJT Oliveira, MAL Marques          : LibXC Library


 Your calculation uses the libint2 library for the computation of 2-el integrals
 For citations please refer to: http://libint.valeyev.net

 Your ORCA version has been built with support for libXC version: 4.2.3
 For citations please refer to: https://tddft.org/programs/libxc/

 This ORCA versions uses:
   CBLAS   interface :  Fast vector & matrix operations
   LAPACKE interface :  Fast linear algebra routines
   SCALAPACK package :  Parallel linear algebra routines




***************************************
The coordinates will be read from file: 45.xyz
***************************************


Your calculation utilizes the atom-pairwise dispersion correction
with the Becke-Johnson damping scheme (D3BJ)
Cite in your paper:
S.Grimme, S.Ehrlich, L.Goerigk, J Comput Chem, (2011), 32, 1456–1465 
S.Grimme, J.Antony, S.Ehrlich and H.Krieg, J.Chem.Phys., 132, (2010), 154104 
   

----- Orbital basis set information -----
Your calculation utilizes the basis: def2-TZVP
   F. Weigend and R. Ahlrichs, Phys. Chem. Chem. Phys. 7, 3297 (2005).

----- AuxJ basis set information -----
Your calculation utilizes the auxiliary basis: def2/J
   F. Weigend, Phys. Chem. Chem. Phys. 8, 1057 (2006).

================================================================================
                                        WARNINGS
                       Please study these warnings very carefully!
================================================================================


WARNING: Geometry Optimization
  ===> : Switching off AutoStart
         For restart on a previous wavefunction, please use MOREAD

INFO   : the flag for use of LIBINT has been found!

================================================================================
                                       INPUT FILE
================================================================================
NAME = 45.inp
|  1> !RI BP86 def2-tzvp def2/J D3BJ VeryTightSCF VeryTightOpt Grid5 FinalGrid6 freq
|  2> %maxcore 4000
|  3> %pal nprocs 24
|  4> end
|  5> * xyzfile 0 1 45.xyz 
|  6> 
|  7>                          ****END OF INPUT****
================================================================================

                       *****************************
                       * Geometry Optimization Run *
                       *****************************

Geometry optimization settings:
Update method            Update   .... BFGS
Choice of coordinates    CoordSys .... Z-matrix Internals
Initial Hessian          InHess   .... Almoef's Model

Convergence Tolerances:
Energy Change            TolE     ....  2.0000e-07 Eh
Max. Gradient            TolMAXG  ....  3.0000e-05 Eh/bohr
RMS Gradient             TolRMSG  ....  8.0000e-06 Eh/bohr
Max. Displacement        TolMAXD  ....  2.0000e-04 bohr
RMS Displacement         TolRMSD  ....  1.0000e-04 bohr
Strict Convergence                ....  False
------------------------------------------------------------------------------
                        ORCA OPTIMIZATION COORDINATE SETUP
------------------------------------------------------------------------------

The optimization will be done in new redundant internal coordinates
Making redundant internal coordinates   ...  (new redundants) done
Evaluating the initial hessian          ...  (Almloef) done
Evaluating the coordinates              ...  done
Calculating the B-matrix                .... done
Calculating the G-matrix                .... done
Diagonalizing the G-matrix              .... done
Small eigenvalue found = 7.115e-04
Small eigenvalue found = 1.201e-03
Small eigenvalue found = 2.910e-03
Small eigenvalue found = 4.200e-03
Small eigenvalue found = 4.625e-03
Small eigenvalue found = 5.492e-03
Small eigenvalue found = 7.480e-03
Small eigenvalue found = 9.204e-03
Small eigenvalue found = 9.807e-03
Small eigenvalue found = 1.337e-02
Small eigenvalue found = 1.380e-02
Small eigenvalue found = 1.550e-02
Small eigenvalue found = 1.586e-02
Small eigenvalue found = 1.759e-02
Small eigenvalue found = 2.060e-02
Small eigenvalue found = 2.167e-02
Small eigenvalue found = 2.593e-02
Small eigenvalue found = 2.780e-02
The first mode is                       ....  328
The number of degrees of freedom        ....  339

    -----------------------------------------------------------------
                    Redundant Internal Coordinates


    -----------------------------------------------------------------
         Definition                    Initial Value    Approx d2E/dq
    -----------------------------------------------------------------
      1. B(C   1,O   0)                  1.2285         1.012821   
      2. B(C   2,C   1)                  1.5348         0.367055   
      3. B(C   3,C   2)                  1.5425         0.356767   
      4. B(C   4,C   3)                  1.5337         0.368497   
      5. B(C   5,C   4)                  1.5286         0.375445   
      6. B(N   6,C   2)                  1.4799         0.402188   
      7. B(N   6,C   5)                  1.4785         0.404344   
      8. B(C   7,N   6)                  1.3619         0.620369   
      9. B(O   8,C   7)                  1.2428         0.960866   
     10. B(N   9,C   1)                  1.3628         0.618309   
     11. B(C  10,N   9)                  1.4568         0.437751   
     12. B(C  11,C  10)                  1.5428         0.356359   
     13. B(N  12,C  11)                  1.3530         0.641023   
     14. B(C  13,N  12)                  1.4675         0.420906   
     15. B(C  14,C  13)                  1.5387         0.361886   
     16. B(N  15,C  14)                  1.3500         0.648149   
     17. B(C  16,N  15)                  1.4561         0.438961   
     18. B(C  17,C  16)                  1.5368         0.364381   
     19. B(C  18,C  17)                  1.5411         0.358594   
     20. B(C  19,C  18)                  1.5472         0.350673   
     21. B(N  20,C  19)                  1.3593         0.626492   
     22. B(C  21,N  20)                  1.4707         0.416014   
     23. B(C  22,C  21)                  1.5552         0.340584   
     24. B(N  23,C  22)                  1.3713         0.599398   
     25. B(C  24,N  23)                  1.4498         0.449213   
     26. B(C  24,C   7)                  1.5257         0.379463   
     27. B(C  25,C  24)                  1.5431         0.355984   
     28. B(O  26,C  22)                  1.2282         1.013796   
     29. B(C  27,C  21)                  1.5279         0.376426   
     30. B(C  28,C  27)                  1.5385         0.362146   
     31. B(C  29,C  28)                  1.5336         0.368630   
     32. B(C  30,C  28)                  1.5324         0.370315   
     33. B(O  31,C  19)                  1.2332         0.995545   
     34. B(C  32,C  18)                  1.5373         0.363670   
     35. B(C  33,C  32)                  1.5187         0.389439   
     36. B(C  34,C  33)                  1.5267         0.378195   
     37. B(C  35,C  34)                  1.5289         0.375059   
     38. B(C  36,C  35)                  1.5277         0.376701   
     39. B(C  37,C  36)                  1.5315         0.371552   
     40. B(C  38,C  37)                  1.5333         0.369025   
     41. B(C  39,C  38)                  1.5315         0.371547   
     42. B(C  40,C  39)                  1.5310         0.372185   
     43. B(C  41,C  40)                  1.5297         0.373921   
     44. B(O  42,C  32)                  1.2211         1.040737   
     45. B(O  43,C  17)                  1.4190         0.502984   
     46. B(O  44,C  14)                  1.2451         0.952820   
     47. B(C  45,C  13)                  1.5357         0.365770   
     48. B(C  46,C  45)                  1.5291         0.374848   
     49. B(O  47,C  11)                  1.2419         0.964297   
     50. B(C  48,C  10)                  1.5408         0.359038   
     51. B(C  49,C  48)                  1.5308         0.372455   
     52. B(C  50,C  48)                  1.5279         0.376473   
     53. B(H  51,C   2)                  1.0997         0.347526   
     54. B(H  52,C   3)                  1.0994         0.347846   
     55. B(H  53,C   3)                  1.0956         0.352733   
     56. B(H  54,C   4)                  1.1006         0.346410   
     57. B(H  55,C   4)                  1.0966         0.351494   
     58. B(H  56,C   5)                  1.0963         0.351913   
     59. B(H  57,C   5)                  1.1026         0.343787   
     60. B(H  58,N   9)                  1.0167         0.422159   
     61. B(H  59,C  10)                  1.1036         0.342563   
     62. B(H  60,N  12)                  1.0250         0.409519   
     63. B(H  61,C  13)                  1.0977         0.350090   
     64. B(H  62,N  15)                  1.0308         0.400861   
     65. B(H  63,C  16)                  1.0988         0.348671   
     66. B(H  64,C  16)                  1.0970         0.350980   
     67. B(H  65,C  17)                  1.1080         0.337063   
     68. B(H  66,C  18)                  1.1050         0.340827   
     69. B(H  67,N  20)                  1.0331         0.397505   
     70. B(H  68,C  21)                  1.1019         0.344704   
     71. B(H  69,O  44)                  2.5846         0.001331   
     72. B(H  69,N  23)                  1.0204         0.416549   
     73. B(H  70,C  24)                  1.0992         0.348112   
     74. B(H  71,C  25)                  1.0962         0.352007   
     75. B(H  72,C  25)                  1.0997         0.347449   
     76. B(H  73,C  25)                  1.0979         0.349849   
     77. B(H  74,C  27)                  1.0971         0.350882   
     78. B(H  75,C  27)                  1.1022         0.344270   
     79. B(H  76,C  28)                  1.1027         0.343699   
     80. B(H  77,C  29)                  1.1003         0.346667   
     81. B(H  78,C  29)                  1.1019         0.344642   
     82. B(H  79,C  29)                  1.0999         0.347192   
     83. B(H  80,C  30)                  1.0993         0.348061   
     84. B(H  81,C  30)                  1.1001         0.346958   
     85. B(H  82,C  30)                  1.1021         0.344488   
     86. B(H  83,H  71)                  4.7820         0.000000   
     87. B(H  83,C  33)                  1.1008         0.346057   
     88. B(H  84,H  58)                  2.0746         0.001852   
     89. B(H  84,C  33)                  1.1069         0.338445   
     90. B(H  85,C  34)                  1.1006         0.346393   
     91. B(H  86,C  34)                  1.1030         0.343287   
     92. B(H  87,H  54)                  2.2716         0.000898   
     93. B(H  87,C  35)                  1.1067         0.338657   
     94. B(H  88,C  35)                  1.1005         0.346438   
     95. B(H  89,C  36)                  1.1020         0.344572   
     96. B(H  90,C  36)                  1.1054         0.340272   
     97. B(H  91,C  37)                  1.1038         0.342260   
     98. B(H  92,C  37)                  1.1041         0.341895   
     99. B(H  93,C  38)                  1.1048         0.341095   
    100. B(H  94,C  38)                  1.1032         0.343028   
    101. B(H  95,C  39)                  1.1048         0.340993   
    102. B(H  96,C  39)                  1.1029         0.343395   
    103. B(H  97,C  40)                  1.1035         0.342633   
    104. B(H  98,C  40)                  1.1034         0.342740   
    105. B(H  99,C  41)                  1.0994         0.347897   
    106. B(H 100,C  41)                  1.1007         0.346254   
    107. B(H 101,C  41)                  1.1007         0.346266   
    108. B(H 102,O  43)                  0.9787         0.485416   
    109. B(H 103,C  45)                  1.0973         0.350624   
    110. B(H 104,C  45)                  1.1011         0.345739   
    111. B(H 105,C  46)                  1.0981         0.349505   
    112. B(H 106,H  67)                  4.6707         0.000000   
    113. B(H 106,C  46)                  1.0998         0.347348   
    114. B(H 107,C  46)                  1.1000         0.347139   
    115. B(H 108,C  48)                  1.1005         0.346450   
    116. B(H 109,C  49)                  1.0992         0.348096   
    117. B(H 110,H  91)                  3.0287         0.000056   
    118. B(H 110,C  49)                  1.1005         0.346466   
    119. B(H 111,C  49)                  1.0987         0.348814   
    120. B(H 112,H  65)                  2.1337         0.001490   
    121. B(H 112,C  50)                  1.0970         0.350999   
    122. B(H 113,C  50)                  1.0984         0.349173   
    123. B(H 114,C  50)                  1.0978         0.349978   
    124. A(O   0,C   1,N   9)          123.8056         0.468052   
    125. A(C   2,C   1,N   9)          117.3806         0.392751   
    126. A(O   0,C   1,C   2)          118.8074         0.428647   
    127. A(C   1,C   2,H  51)          103.8452         0.321505   
    128. A(N   6,C   2,H  51)          108.8363         0.324412   
    129. A(C   1,C   2,N   6)          117.1670         0.364577   
    130. A(C   1,C   2,C   3)          111.7426         0.359428   
    131. A(C   3,C   2,H  51)          111.9780         0.320014   
    132. A(C   3,C   2,N   6)          103.4616         0.362809   
    133. A(C   4,C   3,H  53)          114.2653         0.322496   
    134. A(C   4,C   3,H  52)          110.2567         0.321760   
    135. A(C   2,C   3,C   4)          103.4532         0.359668   
    136. A(C   2,C   3,H  53)          111.1512         0.320793   
    137. A(C   2,C   3,H  52)          109.6419         0.320062   
    138. A(H  52,C   3,H  53)          107.9950         0.288329   
    139. A(H  54,C   4,H  55)          107.9978         0.287984   
    140. A(C   3,C   4,H  55)          113.4091         0.322310   
    141. A(C   3,C   4,C   5)          102.8342         0.362812   
    142. A(C   3,C   4,H  54)          110.5037         0.321542   
    143. A(C   5,C   4,H  55)          112.2530         0.323299   
    144. A(C   5,C   4,H  54)          109.7847         0.322527   
    145. A(H  56,C   5,H  57)          108.4471         0.287696   
    146. A(C   4,C   5,N   6)          102.6518         0.366325   
    147. A(C   4,C   5,H  56)          113.1596         0.323362   
    148. A(N   6,C   5,H  57)          110.7133         0.324121   
    149. A(N   6,C   5,H  56)          110.7102         0.325368   
    150. A(C   4,C   5,H  57)          111.1008         0.322126   
    151. A(C   5,N   6,C   7)          126.0730         0.397153   
    152. A(C   2,N   6,C   7)          120.3800         0.396780   
    153. A(C   2,N   6,C   5)          111.7782         0.368361   
    154. A(O   8,C   7,C  24)          120.4649         0.427157   
    155. A(N   6,C   7,O   8)          121.5636         0.463843   
    156. A(N   6,C   7,C  24)          117.8281         0.395275   
    157. A(C   1,N   9,C  10)          121.6444         0.402504   
    158. A(C  10,N   9,H  58)          119.5003         0.336851   
    159. A(C   1,N   9,H  58)          117.6745         0.357001   
    160. A(C  48,C  10,H  59)          108.3804         0.319594   
    161. A(C  11,C  10,H  59)          106.3906         0.319203   
    162. A(N   9,C  10,C  11)          111.3788         0.368039   
    163. A(N   9,C  10,C  48)          113.5570         0.368512   
    164. A(N   9,C  10,H  59)          104.2834         0.328191   
    165. A(C  11,C  10,C  48)          112.2315         0.358010   
    166. A(N  12,C  11,O  47)          123.9896         0.466937   
    167. A(C  10,C  11,O  47)          120.7982         0.422653   
    168. A(C  10,C  11,N  12)          115.1964         0.393198   
    169. A(C  13,N  12,H  60)          114.5322         0.332975   
    170. A(C  11,N  12,C  13)          125.6960         0.402279   
    171. A(C  11,N  12,H  60)          118.9991         0.357345   
    172. A(C  14,C  13,C  45)          114.0584         0.360086   
    173. A(N  12,C  13,H  61)          105.1937         0.327245   
    174. A(C  14,C  13,H  61)          103.9514         0.321146   
    175. A(N  12,C  13,C  14)          109.8520         0.366537   
    176. A(C  45,C  13,H  61)          108.6578         0.321707   
    177. A(N  12,C  13,C  45)          114.2199         0.367208   
    178. A(C  13,C  14,N  15)          115.8394         0.395024   
    179. A(N  15,C  14,O  44)          124.3687         0.466858   
    180. A(C  13,C  14,O  44)          119.7760         0.422911   
    181. A(C  14,N  15,H  62)          115.6956         0.356720   
    182. A(C  16,N  15,H  62)          119.2165         0.334117   
    183. A(C  14,N  15,C  16)          123.9000         0.406064   
    184. A(H  63,C  16,H  64)          107.6771         0.288211   
    185. A(C  17,C  16,H  64)          110.9917         0.321641   
    186. A(N  15,C  16,H  63)          109.2392         0.329299   
    187. A(C  17,C  16,H  63)          107.5423         0.321293   
    188. A(N  15,C  16,C  17)          112.1398         0.369624   
    189. A(N  15,C  16,H  64)          109.1278         0.329659   
    190. A(O  43,C  17,H  65)          110.0552         0.334928   
    191. A(C  18,C  17,H  65)          106.4227         0.318686   
    192. A(C  16,C  17,H  65)          107.2571         0.319520   
    193. A(C  16,C  17,C  18)          114.1050         0.359293   
    194. A(C  18,C  17,O  43)          111.9642         0.377359   
    195. A(C  16,C  17,O  43)          106.9306         0.378406   
    196. A(C  19,C  18,H  66)          107.7595         0.318103   
    197. A(C  17,C  18,H  66)          108.6152         0.319264   
    198. A(C  17,C  18,C  32)          111.1605         0.359174   
    199. A(C  17,C  18,C  19)          116.1124         0.356957   
    200. A(C  19,C  18,C  32)          104.8038         0.357811   
    201. A(C  32,C  18,H  66)          108.0662         0.319998   
    202. A(C  18,C  19,N  20)          116.3735         0.390524   
    203. A(N  20,C  19,O  31)          123.6658         0.467704   
    204. A(C  18,C  19,O  31)          119.6958         0.423849   
    205. A(C  19,N  20,H  67)          117.2616         0.354163   
    206. A(C  19,N  20,C  21)          119.5209         0.399834   
    207. A(C  21,N  20,H  67)          114.3391         0.330696   
    208. A(C  27,C  21,H  68)          109.3701         0.322404   
    209. A(C  22,C  21,H  68)          107.2238         0.317178   
    210. A(N  20,C  21,H  68)          104.7557         0.325783   
    211. A(N  20,C  21,C  22)          107.9028         0.362028   
    212. A(C  22,C  21,C  27)          112.1891         0.358133   
    213. A(N  20,C  21,C  27)          114.8891         0.368282   
    214. A(C  21,C  22,N  23)          113.9394         0.385556   
    215. A(C  21,C  22,O  26)          124.0538         0.423014   
    216. A(N  23,C  22,O  26)          121.9687         0.465478   
    217. A(C  22,N  23,C  24)          120.9563         0.402134   
    218. A(C  24,N  23,H  69)          117.4442         0.337551   
    219. A(C  22,N  23,H  69)          121.5701         0.354318   
    220. A(C  25,C  24,H  70)          108.3550         0.319987   
    221. A(N  23,C  24,H  70)          107.4431         0.330470   
    222. A(C   7,C  24,H  70)          111.5666         0.323350   
    223. A(N  23,C  24,C  25)          112.7544         0.369609   
    224. A(C   7,C  24,N  23)          108.9169         0.373695   
    225. A(C   7,C  24,C  25)          107.8532         0.361335   
    226. A(H  71,C  25,H  73)          109.6508         0.288495   
    227. A(C  24,C  25,H  73)          109.8918         0.320247   
    228. A(H  71,C  25,H  72)          108.7207         0.288185   
    229. A(C  24,C  25,H  72)          111.2315         0.319887   
    230. A(C  24,C  25,H  71)          108.4903         0.320569   
    231. A(H  72,C  25,H  73)          108.8336         0.287908   
    232. A(C  28,C  27,H  75)          109.4626         0.320304   
    233. A(C  21,C  27,C  28)          113.9483         0.361898   
    234. A(H  74,C  27,H  75)          107.2134         0.287627   
    235. A(C  21,C  27,H  75)          107.6417         0.322338   
    236. A(C  28,C  27,H  74)          110.1069         0.321302   
    237. A(C  21,C  27,H  74)          108.2259         0.323345   
    238. A(C  29,C  28,C  30)          110.5149         0.361983   
    239. A(C  27,C  28,C  30)          109.6632         0.360889   
    240. A(C  27,C  28,C  29)          112.2885         0.360608   
    241. A(C  30,C  28,H  76)          107.7745         0.321388   
    242. A(C  29,C  28,H  76)          108.7474         0.321148   
    243. A(C  27,C  28,H  76)          107.7044         0.320217   
    244. A(C  28,C  29,H  79)          110.9794         0.321680   
    245. A(H  78,C  29,H  79)          107.6982         0.287201   
    246. A(H  77,C  29,H  79)          107.1276         0.287464   
    247. A(H  77,C  29,H  78)          107.5709         0.287133   
    248. A(C  28,C  29,H  78)          110.6368         0.321292   
    249. A(C  28,C  29,H  77)          112.6097         0.321600   
    250. A(H  81,C  30,H  82)          107.6923         0.287150   
    251. A(H  80,C  30,H  82)          107.8296         0.287293   
    252. A(C  28,C  30,H  82)          110.7269         0.321508   
    253. A(H  80,C  30,H  81)          108.1291         0.287614   
    254. A(C  28,C  30,H  81)          111.3181         0.321885   
    255. A(C  28,C  30,H  80)          110.9998         0.322052   
    256. A(C  33,C  32,O  42)          123.0913         0.435353   
    257. A(C  18,C  32,O  42)          121.4116         0.430027   
    258. A(C  18,C  32,C  33)          115.4858         0.364267   
    259. A(C  32,C  33,C  34)          115.9070         0.366718   
    260. A(C  34,C  33,H  84)          111.0593         0.321685   
    261. A(H  83,C  33,H  84)          105.4578         0.286242   
    262. A(C  32,C  33,H  84)          107.3127         0.323233   
    263. A(C  34,C  33,H  83)          111.0214         0.322860   
    264. A(C  32,C  33,H  83)          105.4152         0.324415   
    265. A(C  33,C  34,C  35)          114.0930         0.364363   
    266. A(H  85,C  34,H  86)          106.2261         0.286921   
    267. A(C  35,C  34,H  86)          109.1237         0.321995   
    268. A(C  33,C  34,H  86)          108.6440         0.322434   
    269. A(C  35,C  34,H  85)          109.8661         0.322470   
    270. A(C  33,C  34,H  85)          108.5865         0.322911   
    271. A(C  34,C  35,C  36)          113.6978         0.364116   
    272. A(H  87,C  35,H  88)          106.0376         0.286319   
    273. A(C  36,C  35,H  88)          109.5083         0.322708   
    274. A(C  34,C  35,H  88)          109.3340         0.322477   
    275. A(C  36,C  35,H  87)          108.8118         0.321510   
    276. A(C  34,C  35,H  87)          109.1663         0.321280   
    277. A(C  35,C  36,C  37)          112.6339         0.363532   
    278. A(H  89,C  36,H  90)          106.0596         0.286290   
    279. A(C  37,C  36,H  90)          109.2472         0.321036   
    280. A(C  35,C  36,H  90)          109.4676         0.321760   
    281. A(C  37,C  36,H  89)          110.1713         0.321697   
    282. A(C  35,C  36,H  89)          109.0469         0.322423   
    283. A(C  36,C  37,C  38)          114.4783         0.362256   
    284. A(H  91,C  37,H  92)          105.8681         0.286202   
    285. A(C  38,C  37,H  92)          109.3226         0.320928   
    286. A(C  36,C  37,H  92)          109.0988         0.321286   
    287. A(C  38,C  37,H  91)          109.0562         0.320984   
    288. A(C  36,C  37,H  91)          108.6638         0.321342   
    289. A(C  37,C  38,C  39)          114.3723         0.362255   
    290. A(H  93,C  38,H  94)          105.9561         0.286198   
    291. A(C  39,C  38,H  94)          108.7527         0.321460   
    292. A(C  37,C  38,H  94)          108.9395         0.321102   
    293. A(C  39,C  38,H  93)          109.2141         0.321163   
    294. A(C  37,C  38,H  93)          109.2684         0.320805   
    295. A(C  38,C  39,C  40)          113.2516         0.362783   
    296. A(H  95,C  39,H  96)          105.9465         0.286232   
    297. A(C  40,C  39,H  96)          108.9082         0.321606   
    298. A(C  38,C  39,H  96)          110.0167         0.321516   
    299. A(C  40,C  39,H  95)          109.2991         0.321237   
    300. A(C  38,C  39,H  95)          109.1574         0.321147   
    301. A(C  39,C  40,C  41)          113.1037         0.363178   
    302. A(H  97,C  40,H  98)          105.9375         0.286361   
    303. A(C  41,C  40,H  98)          109.6714         0.321751   
    304. A(C  39,C  40,H  98)          109.1378         0.321506   
    305. A(C  41,C  40,H  97)          109.6304         0.321734   
    306. A(C  39,C  40,H  97)          109.1069         0.321489   
    307. A(H 100,C  41,H 101)          107.4404         0.287290   
    308. A(H  99,C  41,H 101)          107.6947         0.287503   
    309. A(C  40,C  41,H 101)          111.0822         0.322290   
    310. A(H  99,C  41,H 100)          107.6937         0.287501   
    311. A(C  40,C  41,H 100)          111.0988         0.322289   
    312. A(C  40,C  41,H  99)          111.6397         0.322539   
    313. A(C  17,O  43,H 102)          105.2540         0.352979   
    314. A(C  13,C  45,C  46)          111.5723         0.362254   
    315. A(C  46,C  45,H 104)          110.4787         0.322341   
    316. A(C  13,C  45,H 104)          107.2729         0.321050   
    317. A(C  46,C  45,H 103)          110.7353         0.323083   
    318. A(C  13,C  45,H 103)          109.9574         0.321788   
    319. A(H 103,C  45,H 104)          106.6491         0.287785   
    320. A(H 106,C  46,H 107)          107.5181         0.287545   
    321. A(H 105,C  46,H 107)          107.9607         0.287823   
    322. A(C  45,C  46,H 107)          111.5244         0.322554   
    323. A(H 105,C  46,H 106)          107.6121         0.287850   
    324. A(C  45,C  46,H 106)          111.4367         0.322586   
    325. A(C  45,C  46,H 105)          110.6146         0.322914   
    326. A(C  50,C  48,H 108)          108.2263         0.322678   
    327. A(C  49,C  48,H 108)          109.1989         0.322111   
    328. A(C  10,C  48,H 108)          105.2958         0.320183   
    329. A(C  49,C  48,C  50)          111.6068         0.363645   
    330. A(C  10,C  48,C  50)          111.9987         0.361374   
    331. A(C  10,C  48,C  49)          110.2667         0.360713   
    332. A(H 110,C  49,H 111)          107.5682         0.287647   
    333. A(H 109,C  49,H 111)          108.3639         0.287858   
    334. A(C  48,C  49,H 111)          110.4973         0.322470   
    335. A(H 109,C  49,H 110)          107.7182         0.287554   
    336. A(C  48,C  49,H 110)          110.9034         0.322114   
    337. A(C  48,C  49,H 109)          111.6412         0.322361   
    338. A(H 113,C  50,H 114)          106.5757         0.288147   
    339. A(H 112,C  50,H 114)          108.9058         0.288383   
    340. A(C  48,C  50,H 114)          111.0979         0.323214   
    341. A(H 112,C  50,H 113)          107.6808         0.288279   
    342. A(C  48,C  50,H 113)          111.1081         0.323092   
    343. A(C  48,C  50,H 112)          111.2908         0.323369   
    344. D(H  51,C   2,C   1,N   9)   -127.8828         0.010101   
    345. D(C   3,C   2,C   1,N   9)    111.2357         0.010101   
    346. D(N   6,C   2,C   1,N   9)     -7.8667         0.010101   
    347. D(N   6,C   2,C   1,O   0)    171.2522         0.010101   
    348. D(C   3,C   2,C   1,O   0)    -69.6454         0.010101   
    349. D(H  51,C   2,C   1,O   0)     51.2361         0.010101   
    350. D(C   4,C   3,C   2,N   6)     27.2021         0.010225   
    351. D(H  53,C   3,C   2,H  51)    -92.6902         0.010225   
    352. D(H  53,C   3,C   2,C   1)     23.3352         0.010225   
    353. D(C   4,C   3,C   2,H  51)    144.2419         0.010225   
    354. D(H  53,C   3,C   2,N   6)    150.2700         0.010225   
    355. D(H  52,C   3,C   2,H  51)     26.6373         0.010225   
    356. D(C   4,C   3,C   2,C   1)    -99.7327         0.010225   
    357. D(H  52,C   3,C   2,C   1)    142.6627         0.010225   
    358. D(H  52,C   3,C   2,N   6)    -90.4025         0.010225   
    359. D(H  55,C   4,C   3,H  53)     78.1469         0.010861   
    360. D(H  55,C   4,C   3,H  52)    -43.6951         0.010861   
    361. D(H  54,C   4,C   3,H  52)   -165.1187         0.010861   
    362. D(H  55,C   4,C   3,C   2)   -160.8690         0.010861   
    363. D(H  54,C   4,C   3,H  53)    -43.2768         0.010861   
    364. D(C   5,C   4,C   3,C   2)    -39.4114         0.010861   
    365. D(H  54,C   4,C   3,C   2)     77.7074         0.010861   
    366. D(C   5,C   4,C   3,H  53)   -160.3955         0.010861   
    367. D(C   5,C   4,C   3,H  52)     77.7625         0.010861   
    368. D(N   6,C   5,C   4,C   3)     35.9030         0.011249   
    369. D(H  57,C   5,C   4,C   3)    -82.4673         0.011249   
    370. D(H  56,C   5,C   4,H  55)    -82.5001         0.011249   
    371. D(H  56,C   5,C   4,C   3)    155.2588         0.011249   
    372. D(H  57,C   5,C   4,H  54)    159.9046         0.011249   
    373. D(H  56,C   5,C   4,H  54)     37.6307         0.011249   
    374. D(H  57,C   5,C   4,H  55)     39.7738         0.011249   
    375. D(N   6,C   5,C   4,H  54)    -81.7252         0.011249   
    376. D(N   6,C   5,C   4,H  55)    158.1441         0.011249   
    377. D(C   5,N   6,C   2,C   3)     -4.7504         0.013808   
    378. D(C   7,N   6,C   5,H  57)    -65.7461         0.013953   
    379. D(C   7,N   6,C   5,H  56)     54.5605         0.013953   
    380. D(C   7,N   6,C   5,C   4)    175.6111         0.013953   
    381. D(C   2,N   6,C   5,H  57)     99.0165         0.013953   
    382. D(C   2,N   6,C   5,H  56)   -140.6769         0.013953   
    383. D(C   7,N   6,C   2,H  51)     41.7684         0.013808   
    384. D(C   2,N   6,C   5,C   4)    -19.6263         0.013953   
    385. D(C   7,N   6,C   2,C   3)    160.9945         0.013808   
    386. D(C   5,N   6,C   2,C   1)    118.6838         0.013808   
    387. D(C   7,N   6,C   2,C   1)    -75.5712         0.013808   
    388. D(C   5,N   6,C   2,H  51)   -123.9765         0.013808   
    389. D(C  24,C   7,N   6,C   5)      6.5699         0.031167   
    390. D(C  24,C   7,N   6,C   2)   -156.9964         0.031167   
    391. D(O   8,C   7,N   6,C   5)   -177.7657         0.031167   
    392. D(O   8,C   7,N   6,C   2)     18.6681         0.031167   
    393. D(H  58,N   9,C   1,O   0)   -178.0894         0.030944   
    394. D(C  10,N   9,C   1,C   2)    168.4953         0.030944   
    395. D(H  58,N   9,C   1,C   2)      0.9814         0.030944   
    396. D(C  10,N   9,C   1,O   0)    -10.5755         0.030944   
    397. D(H  59,C  10,N   9,C   1)      4.6051         0.016339   
    398. D(C  48,C  10,N   9,H  58)    -70.3307         0.016339   
    399. D(C  48,C  10,N   9,C   1)    122.3777         0.016339   
    400. D(C  11,C  10,N   9,C   1)   -109.7484         0.016339   
    401. D(H  59,C  10,N   9,H  58)    171.8967         0.016339   
    402. D(C  11,C  10,N   9,H  58)     57.5431         0.016339   
    403. D(O  47,C  11,C  10,N   9)   -154.5271         0.009565   
    404. D(N  12,C  11,C  10,H  59)    -86.1755         0.009565   
    405. D(N  12,C  11,C  10,C  48)    155.4456         0.009565   
    406. D(N  12,C  11,C  10,N   9)     26.8611         0.009565   
    407. D(O  47,C  11,C  10,H  59)     92.4363         0.009565   
    408. D(O  47,C  11,C  10,C  48)    -25.9426         0.009565   
    409. D(H  60,N  12,C  11,O  47)    170.3890         0.033454   
    410. D(H  60,N  12,C  11,C  10)    -11.0492         0.033454   
    411. D(C  13,N  12,C  11,O  47)      1.0371         0.033454   
    412. D(C  13,N  12,C  11,C  10)    179.5989         0.033454   
    413. D(H  61,C  13,N  12,C  11)   -173.7466         0.015106   
    414. D(H  61,C  13,N  12,H  60)     16.4862         0.015106   
    415. D(C  45,C  13,N  12,H  60)    135.5422         0.015106   
    416. D(C  45,C  13,N  12,C  11)    -54.6906         0.015106   
    417. D(C  14,C  13,N  12,C  11)     74.9278         0.015106   
    418. D(C  14,C  13,N  12,H  60)    -94.8395         0.015106   
    419. D(O  44,C  14,C  13,C  45)   -116.6312         0.009840   
    420. D(O  44,C  14,C  13,N  12)    113.6632         0.009840   
    421. D(N  15,C  14,C  13,H  61)   -177.0866         0.009840   
    422. D(N  15,C  14,C  13,C  45)     64.7550         0.009840   
    423. D(O  44,C  14,C  13,H  61)      1.5272         0.009840   
    424. D(N  15,C  14,C  13,N  12)    -64.9506         0.009840   
    425. D(H  62,N  15,C  14,O  44)   -173.8274         0.034267   
    426. D(H  62,N  15,C  14,C  13)      4.7149         0.034267   
    427. D(C  16,N  15,C  14,O  44)     -6.4186         0.034267   
    428. D(C  16,N  15,C  14,C  13)    172.1237         0.034267   
    429. D(H  64,C  16,N  15,H  62)   -169.0756         0.016430   
    430. D(H  64,C  16,N  15,C  14)     23.9314         0.016430   
    431. D(H  63,C  16,N  15,H  62)    -51.5948         0.016430   
    432. D(H  63,C  16,N  15,C  14)    141.4122         0.016430   
    433. D(C  17,C  16,N  15,C  14)    -99.4672         0.016430   
    434. D(C  17,C  16,N  15,H  62)     67.5258         0.016430   
    435. D(H  65,C  17,C  16,H  64)   -178.1749         0.010635   
    436. D(H  65,C  17,C  16,H  63)     64.2836         0.010635   
    437. D(H  65,C  17,C  16,N  15)    -55.8296         0.010635   
    438. D(O  43,C  17,C  16,H  64)     63.7959         0.010635   
    439. D(O  43,C  17,C  16,H  63)    -53.7456         0.010635   
    440. D(O  43,C  17,C  16,N  15)   -173.8587         0.010635   
    441. D(C  18,C  17,C  16,H  64)    -60.5733         0.010635   
    442. D(C  18,C  17,C  16,H  63)   -178.1148         0.010635   
    443. D(C  18,C  17,C  16,N  15)     61.7721         0.010635   
    444. D(H  66,C  18,C  17,H  65)     70.6616         0.010322   
    445. D(H  66,C  18,C  17,O  43)   -169.0494         0.010322   
    446. D(H  66,C  18,C  17,C  16)    -47.4182         0.010322   
    447. D(C  32,C  18,C  17,O  43)     72.1818         0.010322   
    448. D(C  32,C  18,C  17,C  16)   -166.1870         0.010322   
    449. D(C  32,C  18,C  17,H  65)    -48.1072         0.010322   
    450. D(C  19,C  18,C  17,H  65)   -167.7677         0.010322   
    451. D(C  19,C  18,C  17,O  43)    -47.4787         0.010322   
    452. D(C  19,C  18,C  17,C  16)     74.1524         0.010322   
    453. D(O  31,C  19,C  18,H  66)   -127.7269         0.009289   
    454. D(O  31,C  19,C  18,C  32)    -12.8001         0.009289   
    455. D(O  31,C  19,C  18,C  17)    110.2490         0.009289   
    456. D(N  20,C  19,C  18,H  66)     46.5769         0.009289   
    457. D(N  20,C  19,C  18,C  17)    -75.4472         0.009289   
    458. D(N  20,C  19,C  18,C  32)    161.5037         0.009289   
    459. D(H  67,N  20,C  19,O  31)    173.9846         0.031834   
    460. D(H  67,N  20,C  19,C  18)     -0.0694         0.031834   
    461. D(C  21,N  20,C  19,O  31)     28.4374         0.031834   
    462. D(C  21,N  20,C  19,C  18)   -145.6165         0.031834   
    463. D(H  68,C  21,N  20,H  67)     20.1531         0.014759   
    464. D(H  68,C  21,N  20,C  19)    166.6526         0.014759   
    465. D(C  27,C  21,N  20,H  67)    140.1726         0.014759   
    466. D(C  27,C  21,N  20,C  19)    -73.3280         0.014759   
    467. D(C  22,C  21,N  20,H  67)    -93.8552         0.014759   
    468. D(C  22,C  21,N  20,C  19)     52.6443         0.014759   
    469. D(N  23,C  22,C  21,C  27)    176.5401         0.008811   
    470. D(N  23,C  22,C  21,N  20)     48.9931         0.008811   
    471. D(O  26,C  22,C  21,H  68)    118.8474         0.008811   
    472. D(O  26,C  22,C  21,C  27)     -1.2490         0.008811   
    473. D(O  26,C  22,C  21,N  20)   -128.7960         0.008811   
    474. D(N  23,C  22,C  21,H  68)    -63.3636         0.008811   
    475. D(H  69,N  23,C  22,O  26)   -173.1581         0.028946   
    476. D(H  69,N  23,C  22,C  21)      9.0011         0.028946   
    477. D(C  24,N  23,C  22,O  26)      4.8170         0.028946   
    478. D(C  24,N  23,C  22,C  21)   -173.0238         0.028946   
    479. D(H  70,C  24,N  23,H  69)   -139.6710         0.017214   
    480. D(H  70,C  24,N  23,C  22)     42.2730         0.017214   
    481. D(C  25,C  24,N  23,H  69)    101.0064         0.017214   
    482. D(C  25,C  24,N  23,C  22)    -77.0497         0.017214   
    483. D(C   7,C  24,N  23,H  69)    -18.6749         0.017214   
    484. D(C   7,C  24,N  23,C  22)    163.2691         0.017214   
    485. D(H  70,C  24,C   7,O   8)    155.5091         0.010747   
    486. D(H  70,C  24,C   7,N   6)    -28.7767         0.010747   
    487. D(C  25,C  24,C   7,O   8)    -85.6063         0.010747   
    488. D(C  25,C  24,C   7,N   6)     90.1079         0.010747   
    489. D(N  23,C  24,C   7,O   8)     37.0727         0.010747   
    490. D(N  23,C  24,C   7,N   6)   -147.2131         0.010747   
    491. D(H  73,C  25,C  24,H  70)   -179.6798         0.010183   
    492. D(H  73,C  25,C  24,N  23)    -60.8871         0.010183   
    493. D(H  73,C  25,C  24,C   7)     59.4068         0.010183   
    494. D(H  72,C  25,C  24,H  70)     59.7312         0.010183   
    495. D(H  72,C  25,C  24,N  23)    178.5238         0.010183   
    496. D(H  72,C  25,C  24,C   7)    -61.1823         0.010183   
    497. D(H  71,C  25,C  24,H  70)    -59.8061         0.010183   
    498. D(H  71,C  25,C  24,N  23)     58.9866         0.010183   
    499. D(H  71,C  25,C  24,C   7)    179.2805         0.010183   
    500. D(H  75,C  27,C  21,H  68)     78.0701         0.011305   
    501. D(H  75,C  27,C  21,C  22)   -163.0896         0.011305   
    502. D(H  75,C  27,C  21,N  20)    -39.3643         0.011305   
    503. D(H  74,C  27,C  21,H  68)   -166.3572         0.011305   
    504. D(H  74,C  27,C  21,C  22)    -47.5169         0.011305   
    505. D(H  74,C  27,C  21,N  20)     76.2084         0.011305   
    506. D(C  28,C  27,C  21,H  68)    -43.5185         0.011305   
    507. D(C  28,C  27,C  21,C  22)     75.3217         0.011305   
    508. D(C  28,C  27,C  21,N  20)   -160.9530         0.011305   
    509. D(H  76,C  28,C  27,H  75)   -172.0667         0.010513   
    510. D(H  76,C  28,C  27,H  74)     70.3133         0.010513   
    511. D(H  76,C  28,C  27,C  21)    -51.4919         0.010513   
    512. D(C  30,C  28,C  27,H  75)     70.9095         0.010513   
    513. D(C  30,C  28,C  27,H  74)    -46.7105         0.010513   
    514. D(C  30,C  28,C  27,C  21)   -168.5157         0.010513   
    515. D(C  29,C  28,C  27,H  75)    -52.3662         0.010513   
    516. D(C  29,C  28,C  27,H  74)   -169.9862         0.010513   
    517. D(C  29,C  28,C  27,C  21)     68.2086         0.010513   
    518. D(H  79,C  29,C  28,C  30)     58.2088         0.010868   
    519. D(H  79,C  29,C  28,C  27)   -178.9945         0.010868   
    520. D(H  78,C  29,C  28,H  76)   -179.3970         0.010868   
    521. D(H  78,C  29,C  28,C  30)    -61.2845         0.010868   
    522. D(H  78,C  29,C  28,C  27)     61.5122         0.010868   
    523. D(H  77,C  29,C  28,H  76)     60.1864         0.010868   
    524. D(H  77,C  29,C  28,C  30)    178.2989         0.010868   
    525. D(H  79,C  29,C  28,H  76)    -59.9036         0.010868   
    526. D(H  77,C  29,C  28,C  27)    -58.9045         0.010868   
    527. D(H  82,C  30,C  28,H  76)   -177.9181         0.010961   
    528. D(H  82,C  30,C  28,C  29)     63.3760         0.010961   
    529. D(H  82,C  30,C  28,C  27)    -60.9383         0.010961   
    530. D(H  81,C  30,C  28,H  76)     62.3150         0.010961   
    531. D(H  81,C  30,C  28,C  29)    -56.3910         0.010961   
    532. D(H  81,C  30,C  28,C  27)    179.2947         0.010961   
    533. D(H  80,C  30,C  28,H  76)    -58.1876         0.010961   
    534. D(H  80,C  30,C  28,C  29)   -176.8935         0.010961   
    535. D(H  80,C  30,C  28,C  27)     58.7922         0.010961   
    536. D(O  42,C  32,C  18,H  66)   -137.8833         0.009929   
    537. D(O  42,C  32,C  18,C  19)    107.4043         0.009929   
    538. D(O  42,C  32,C  18,C  17)    -18.7852         0.009929   
    539. D(C  33,C  32,C  18,H  66)     43.3021         0.009929   
    540. D(C  33,C  32,C  18,C  19)    -71.4103         0.009929   
    541. D(C  33,C  32,C  18,C  17)    162.4001         0.009929   
    542. D(H  84,C  33,C  32,O  42)    122.1339         0.011285   
    543. D(H  84,C  33,C  32,C  18)    -59.0736         0.011285   
    544. D(H  83,C  33,C  32,O  42)   -125.8083         0.011285   
    545. D(H  83,C  33,C  32,C  18)     52.9842         0.011285   
    546. D(C  34,C  33,C  32,O  42)     -2.6054         0.011285   
    547. D(C  34,C  33,C  32,C  18)    176.1872         0.011285   
    548. D(H  86,C  34,C  33,H  84)     78.2558         0.011405   
    549. D(H  86,C  34,C  33,H  83)    -38.7410         0.011405   
    550. D(H  86,C  34,C  33,C  32)   -158.9556         0.011405   
    551. D(H  85,C  34,C  33,H  84)   -166.6196         0.011405   
    552. D(H  85,C  34,C  33,H  83)     76.3836         0.011405   
    553. D(H  85,C  34,C  33,C  32)    -43.8310         0.011405   
    554. D(C  35,C  34,C  33,H  84)    -43.7241         0.011405   
    555. D(C  35,C  34,C  33,H  83)   -160.7209         0.011405   
    556. D(C  35,C  34,C  33,C  32)     79.0646         0.011405   
    557. D(H  88,C  35,C  34,H  86)    173.2647         0.011227   
    558. D(H  88,C  35,C  34,H  85)     57.1766         0.011227   
    559. D(H  88,C  35,C  34,C  33)    -65.0196         0.011227   
    560. D(H  87,C  35,C  34,H  86)    -71.1463         0.011227   
    561. D(H  87,C  35,C  34,H  85)    172.7656         0.011227   
    562. D(H  87,C  35,C  34,C  33)     50.5693         0.011227   
    563. D(C  36,C  35,C  34,H  86)     50.5475         0.011227   
    564. D(C  36,C  35,C  34,H  85)    -65.5406         0.011227   
    565. D(C  36,C  35,C  34,C  33)    172.2631         0.011227   
    566. D(H  90,C  36,C  35,H  87)     65.2325         0.011320   
    567. D(H  90,C  36,C  35,C  34)    -56.6582         0.011320   
    568. D(H  89,C  36,C  35,H  88)    -63.6569         0.011320   
    569. D(H  89,C  36,C  35,H  87)   -179.1448         0.011320   
    570. D(H  89,C  36,C  35,C  34)     58.9645         0.011320   
    571. D(C  37,C  36,C  35,H  88)     58.9718         0.011320   
    572. D(C  37,C  36,C  35,H  87)    -56.5162         0.011320   
    573. D(H  90,C  36,C  35,H  88)   -179.2796         0.011320   
    574. D(C  37,C  36,C  35,C  34)   -178.4068         0.011320   
    575. D(H  92,C  37,C  36,H  90)    177.5747         0.011030   
    576. D(H  92,C  37,C  36,H  89)     61.4435         0.011030   
    577. D(H  92,C  37,C  36,C  35)    -60.5518         0.011030   
    578. D(H  91,C  37,C  36,H  90)    -67.4410         0.011030   
    579. D(H  91,C  37,C  36,H  89)    176.4277         0.011030   
    580. D(H  91,C  37,C  36,C  35)     54.4324         0.011030   
    581. D(C  38,C  37,C  36,H  90)     54.7288         0.011030   
    582. D(C  38,C  37,C  36,H  89)    -61.4025         0.011030   
    583. D(C  38,C  37,C  36,C  35)    176.6023         0.011030   
    584. D(H  94,C  38,C  37,H  92)     64.0276         0.010890   
    585. D(H  94,C  38,C  37,H  91)    -51.2917         0.010890   
    586. D(H  94,C  38,C  37,C  36)   -173.2475         0.010890   
    587. D(H  93,C  38,C  37,H  92)    179.3580         0.010890   
    588. D(H  93,C  38,C  37,H  91)     64.0387         0.010890   
    589. D(H  93,C  38,C  37,C  36)    -57.9171         0.010890   
    590. D(C  39,C  38,C  37,H  92)    -57.8830         0.010890   
    591. D(C  39,C  38,C  37,H  91)   -173.2023         0.010890   
    592. D(C  39,C  38,C  37,C  36)     64.8419         0.010890   
    593. D(H  95,C  39,C  38,H  94)    -67.4407         0.011030   
    594. D(H  95,C  39,C  38,H  93)    177.3605         0.011030   
    595. D(H  95,C  39,C  38,C  37)     54.5721         0.011030   
    596. D(C  40,C  39,C  38,H  94)     54.5695         0.011030   
    597. D(C  40,C  39,C  38,H  93)    -60.6292         0.011030   
    598. D(C  40,C  39,C  38,C  37)    176.5823         0.011030   
    599. D(H  96,C  39,C  38,H  94)    176.7036         0.011030   
    600. D(H  96,C  39,C  38,H  93)     61.5048         0.011030   
    601. D(H  96,C  39,C  38,C  37)    -61.2836         0.011030   
    602. D(H  98,C  40,C  39,H  95)     64.1701         0.011066   
    603. D(H  98,C  40,C  39,C  38)    -57.7611         0.011066   
    604. D(H  97,C  40,C  39,H  96)    -65.1826         0.011066   
    605. D(H  97,C  40,C  39,H  95)    179.4988         0.011066   
    606. D(H  97,C  40,C  39,C  38)     57.5677         0.011066   
    607. D(C  41,C  40,C  39,H  96)     57.1155         0.011066   
    608. D(C  41,C  40,C  39,H  95)    -58.2031         0.011066   
    609. D(H  98,C  40,C  39,H  96)    179.4886         0.011066   
    610. D(C  41,C  40,C  39,C  38)    179.8658         0.011066   
    611. D(H 101,C  41,C  40,H  98)    -62.3673         0.011163   
    612. D(H 101,C  41,C  40,H  97)   -178.2870         0.011163   
    613. D(H 101,C  41,C  40,C  39)     59.7076         0.011163   
    614. D(H 100,C  41,C  40,H  98)    178.0920         0.011163   
    615. D(H 100,C  41,C  40,H  97)     62.1723         0.011163   
    616. D(H 100,C  41,C  40,C  39)    -59.8331         0.011163   
    617. D(H  99,C  41,C  40,H  98)     57.8573         0.011163   
    618. D(H  99,C  41,C  40,H  97)    -58.0624         0.011163   
    619. D(H  99,C  41,C  40,C  39)    179.9322         0.011163   
    620. D(H 102,O  43,C  17,H  65)     59.8747         0.020009   
    621. D(H 102,O  43,C  17,C  18)    -58.2736         0.020009   
    622. D(H 102,O  43,C  17,C  16)    176.0581         0.020009   
    623. D(H 104,C  45,C  13,H  61)     63.4339         0.010711   
    624. D(H 104,C  45,C  13,C  14)    178.8653         0.010711   
    625. D(H 104,C  45,C  13,N  12)    -53.6447         0.010711   
    626. D(H 103,C  45,C  13,H  61)    179.0364         0.010711   
    627. D(H 103,C  45,C  13,C  14)    -65.5322         0.010711   
    628. D(H 103,C  45,C  13,N  12)     61.9578         0.010711   
    629. D(C  46,C  45,C  13,H  61)    -57.6918         0.010711   
    630. D(C  46,C  45,C  13,C  14)     57.7396         0.010711   
    631. D(C  46,C  45,C  13,N  12)   -174.7703         0.010711   
    632. D(H 107,C  46,C  45,H 104)    -61.2777         0.011215   
    633. D(H 107,C  46,C  45,H 103)   -179.2083         0.011215   
    634. D(H 107,C  46,C  45,C  13)     57.9632         0.011215   
    635. D(H 106,C  46,C  45,H 104)    178.5583         0.011215   
    636. D(H 106,C  46,C  45,H 103)     60.6277         0.011215   
    637. D(H 106,C  46,C  45,C  13)    -62.2008         0.011215   
    638. D(H 105,C  46,C  45,H 104)     58.8891         0.011215   
    639. D(H 105,C  46,C  45,H 103)    -59.0415         0.011215   
    640. D(H 105,C  46,C  45,C  13)    178.1300         0.011215   
    641. D(H 108,C  48,C  10,H  59)    -61.2619         0.010346   
    642. D(H 108,C  48,C  10,C  11)     55.9347         0.010346   
    643. D(H 108,C  48,C  10,N   9)   -176.6336         0.010346   
    644. D(C  50,C  48,C  10,H  59)   -178.6625         0.010346   
    645. D(C  50,C  48,C  10,C  11)    -61.4659         0.010346   
    646. D(C  50,C  48,C  10,N   9)     65.9659         0.010346   
    647. D(C  49,C  48,C  10,H  59)     56.4102         0.010346   
    648. D(C  49,C  48,C  10,C  11)    173.6068         0.010346   
    649. D(C  49,C  48,C  10,N   9)    -58.9614         0.010346   
    650. D(H 111,C  49,C  48,C  50)     59.0334         0.011081   
    651. D(H 111,C  49,C  48,C  10)   -175.8158         0.011081   
    652. D(H 110,C  49,C  48,H 108)   -179.7705         0.011081   
    653. D(H 110,C  49,C  48,C  50)    -60.1576         0.011081   
    654. D(H 110,C  49,C  48,C  10)     64.9932         0.011081   
    655. D(H 109,C  49,C  48,H 108)     60.0959         0.011081   
    656. D(H 109,C  49,C  48,C  50)    179.7087         0.011081   
    657. D(H 111,C  49,C  48,H 108)    -60.5795         0.011081   
    658. D(H 109,C  49,C  48,C  10)    -55.1404         0.011081   
    659. D(H 114,C  50,C  48,H 108)   -176.5162         0.011307   
    660. D(H 114,C  50,C  48,C  49)     63.2980         0.011307   
    661. D(H 114,C  50,C  48,C  10)    -60.8848         0.011307   
    662. D(H 113,C  50,C  48,H 108)     65.0129         0.011307   
    663. D(H 113,C  50,C  48,C  49)    -55.1729         0.011307   
    664. D(H 113,C  50,C  48,C  10)   -179.3557         0.011307   
    665. D(H 112,C  50,C  48,H 108)    -54.9766         0.011307   
    666. D(H 112,C  50,C  48,C  49)   -175.1624         0.011307   
    667. D(H 112,C  50,C  48,C  10)     60.6548         0.011307   
    -----------------------------------------------------------------

Number of atoms                         .... 115
Number of degrees of freedom            .... 667

         *************************************************************
         *                GEOMETRY OPTIMIZATION CYCLE   1            *
         *************************************************************
---------------------------------
CARTESIAN COORDINATES (ANGSTROEM)
---------------------------------
  O      2.354937   -3.453287    2.418828
  C      1.844943   -2.414166    2.007300
  C      1.506919   -1.306733    3.014732
  C      0.335109   -1.708601    3.933842
  C     -0.870508   -0.997945    3.306331
  C     -0.289585    0.353616    2.890935
  N      1.081302   -0.000231    2.465152
  C      1.996320    0.849085    1.920843
  O      3.115359    0.451681    1.554143
  N      1.573196   -2.171155    0.694122
  C      2.074018   -3.039082   -0.363366
  C      3.168176   -2.338220   -1.195216
  N      3.863377   -1.379264   -0.541179
  C      4.954854   -0.577185   -1.105965
  C      4.382517    0.486640   -2.058940
  N      3.772516    0.016313   -3.167643
  C      3.028538    0.850315   -4.100996
  C      1.512049    0.773772   -3.864131
  C      1.066236    1.269284   -2.474586
  C      1.091974    2.800947   -2.257242
  N      2.315476    3.364568   -2.075679
  C      2.456331    4.514721   -1.169976
  C      1.825965    4.126294    0.197616
  N      2.246389    2.913298    0.679634
  C      1.645732    2.332941    1.864686
  C      2.146907    2.987173    3.169313
  O      0.993456    4.808185    0.789673
  C      1.897917    5.830506   -1.709843
  C      2.443379    7.079782   -0.996657
  C      3.932448    7.309370   -1.282967
  C      1.622303    8.307091   -1.406233
  O      0.031205    3.420841   -2.151176
  C     -0.383736    0.854547   -2.176405
  C     -0.792499    0.912177   -0.714907
  C     -2.254899    0.589746   -0.418099
  C     -2.575844   -0.905101   -0.413040
  C     -3.990096   -1.227849    0.066221
  C     -4.272357   -2.732743    0.098601
  C     -5.652372   -3.108570    0.651259
  C     -6.828241   -2.623592   -0.201714
  C     -8.189211   -3.083106    0.328016
  C     -9.361433   -2.594124   -0.524580
  O     -1.148135    0.525498   -3.069999
  O      0.892808    1.503645   -4.911739
  O      4.477544    1.693385   -1.767262
  C      6.099530   -1.405695   -1.707470
  C      7.258560   -0.517338   -2.160832
  O      3.386565   -2.674455   -2.370583
  C      0.962653   -3.636762   -1.247516
  C     -0.011287   -4.454015   -0.394909
  C      0.237112   -2.563938   -2.058135
  H      2.441882   -1.167912    3.576744
  H      0.514882   -1.328228    4.949585
  H      0.234861   -2.798017    3.993185
  H     -1.218902   -1.543149    2.416059
  H     -1.719347   -0.891914    3.992428
  H     -0.840962    0.825768    2.069448
  H     -0.265004    1.053714    3.742421
  H      1.176879   -1.266304    0.453511
  H      2.572195   -3.863971    0.174491
  H      3.527544   -1.057704    0.372291
  H      5.348639    0.006349   -0.263760
  H      3.684123   -1.008906   -3.228325
  H      3.221303    0.506552   -5.126660
  H      3.386709    1.884268   -4.023375
  H      1.223642   -0.294399   -3.923181
  H      1.718285    0.809394   -1.710191
  H      3.134148    2.734716   -2.094539
  H      3.542091    4.616039   -1.011767
  H      3.010531    2.399536    0.240010
  H      0.559977    2.489194    1.793996
  H      1.911619    4.057239    3.134296
  H      1.656659    2.546602    4.049637
  H      3.232241    2.850664    3.262666
  H      0.804289    5.797749   -1.629582
  H      2.144812    5.882962   -2.782792
  H      2.309689    6.931975    0.087872
  H      4.558704    6.459142   -0.973642
  H      4.100342    7.471768   -2.359869
  H      4.303920    8.196433   -0.749123
  H      0.560844    8.173055   -1.153840
  H      1.982161    9.215751   -0.901154
  H      1.691826    8.478002   -2.492743
  H     -0.536290    1.928804   -0.379275
  H     -0.115272    0.237739   -0.156620
  H     -2.885046    1.105055   -1.158784
  H     -2.518584    1.019274    0.563033
  H     -1.850224   -1.430321    0.236906
  H     -2.428597   -1.312801   -1.424605
  H     -4.716397   -0.718986   -0.587955
  H     -4.141594   -0.806853    1.077040
  H     -3.494116   -3.225098    0.707182
  H     -4.162934   -3.142846   -0.920676
  H     -5.756452   -2.707699    1.675447
  H     -5.712841   -4.205921    0.747486
  H     -6.698409   -2.985549   -1.237477
  H     -6.821654   -1.522357   -0.262497
  H     -8.311749   -2.727655    1.365527
  H     -8.203195   -4.185162    0.381652
  H    -10.325570   -2.938339   -0.123828
  H     -9.389737   -1.494593   -0.565966
  H     -9.278873   -2.961158   -1.558955
  H     -0.068981    1.385561   -4.774289
  H      5.724913   -2.011548   -2.542085
  H      6.435424   -2.110989   -0.931513
  H      8.081090   -1.127352   -2.557334
  H      6.946306    0.176729   -2.954785
  H      7.653539    0.085920   -1.330156
  H      1.479819   -4.307897   -1.949841
  H      0.509507   -5.229399    0.184623
  H     -0.547879   -3.808019    0.316339
  H     -0.762281   -4.942856   -1.030609
  H      0.926457   -2.038493   -2.730482
  H     -0.558806   -3.004142   -2.673920
  H     -0.245893   -1.830299   -1.399683

----------------------------
CARTESIAN COORDINATES (A.U.)
----------------------------
  NO LB      ZA    FRAG     MASS         X           Y           Z
   0 O     8.0000    0    15.999    4.450185   -6.525766    4.570923
   1 C     6.0000    0    12.011    3.486437   -4.562112    3.793246
   2 C     6.0000    0    12.011    2.847665   -2.469367    5.697017
   3 C     6.0000    0    12.011    0.633264   -3.228788    7.433885
   4 C     6.0000    0    12.011   -1.645021   -1.885842    6.248060
   5 C     6.0000    0    12.011   -0.547235    0.668238    5.463076
   6 N     7.0000    0    14.007    2.043365   -0.000437    4.658462
   7 C     6.0000    0    12.011    3.772499    1.604539    3.629867
   8 O     8.0000    0    15.999    5.887176    0.853553    2.936905
   9 N     7.0000    0    14.007    2.972909   -4.102889    1.311700
  10 C     6.0000    0    12.011    3.919326   -5.743032   -0.686661
  11 C     6.0000    0    12.011    5.986985   -4.418595   -2.258630
  12 N     7.0000    0    14.007    7.300724   -2.606431   -1.022680
  13 C     6.0000    0    12.011    9.363318   -1.090722   -2.089971
  14 C     6.0000    0    12.011    8.281756    0.919616   -3.890832
  15 N     7.0000    0    14.007    7.129022    0.030827   -5.985977
  16 C     6.0000    0    12.011    5.723107    1.606862   -7.749759
  17 C     6.0000    0    12.011    2.857358    1.462217   -7.302149
  18 C     6.0000    0    12.011    2.014895    2.398599   -4.676290
  19 C     6.0000    0    12.011    2.063531    5.293022   -4.265570
  20 N     7.0000    0    14.007    4.375616    6.358113   -3.922464
  21 C     6.0000    0    12.011    4.641792    8.531587   -2.210935
  22 C     6.0000    0    12.011    3.450574    7.797565    0.373441
  23 N     7.0000    0    14.007    4.245059    5.505336    1.284322
  24 C     6.0000    0    12.011    3.109983    4.408619    3.523745
  25 C     6.0000    0    12.011    4.057066    5.644940    5.989133
  26 O     8.0000    0    15.999    1.877361    9.086152    1.492267
  27 C     6.0000    0    12.011    3.586544   11.018059   -3.231136
  28 C     6.0000    0    12.011    4.617316   13.378848   -1.883409
  29 C     6.0000    0    12.011    7.431250   13.812708   -2.424456
  30 C     6.0000    0    12.011    3.065709   15.698128   -2.657395
  31 O     8.0000    0    15.999    0.058968    6.464452   -4.065134
  32 C     6.0000    0    12.011   -0.725155    1.614860   -4.112810
  33 C     6.0000    0    12.011   -1.497606    1.723765   -1.350979
  34 C     6.0000    0    12.011   -4.261142    1.114458   -0.790092
  35 C     6.0000    0    12.011   -4.867641   -1.710393   -0.780533
  36 C     6.0000    0    12.011   -7.540188   -2.320299    0.125139
  37 C     6.0000    0    12.011   -8.073585   -5.164135    0.186329
  38 C     6.0000    0    12.011  -10.681435   -5.874346    1.230700
  39 C     6.0000    0    12.011  -12.903506   -4.957870   -0.381184
  40 C     6.0000    0    12.011  -15.475366   -5.826226    0.619861
  41 C     6.0000    0    12.011  -17.690545   -4.902184   -0.991313
  42 O     8.0000    0    15.999   -2.169662    0.993047   -5.801458
  43 O     8.0000    0    15.999    1.687164    2.841478   -9.281842
  44 O     8.0000    0    15.999    8.461332    3.200035   -3.339641
  45 C     6.0000    0    12.011   11.526442   -2.656379   -3.226650
  46 C     6.0000    0    12.011   13.716691   -0.977627   -4.083381
  47 O     8.0000    0    15.999    6.399681   -5.053987   -4.479752
  48 C     6.0000    0    12.011    1.819151   -6.872485   -2.357464
  49 C     6.0000    0    12.011   -0.021329   -8.416869   -0.746269
  50 C     6.0000    0    12.011    0.448076   -4.845140   -3.889312
  51 H     1.0000    0     1.008    4.614489   -2.207035    6.759066
  52 H     1.0000    0     1.008    0.972986   -2.509987    9.353359
  53 H     1.0000    0     1.008    0.443822   -5.287486    7.546026
  54 H     1.0000    0     1.008   -2.303390   -2.916129    4.565689
  55 H     1.0000    0     1.008   -3.249094   -1.685473    7.544595
  56 H     1.0000    0     1.008   -1.589188    1.560476    3.910690
  57 H     1.0000    0     1.008   -0.500785    1.991230    7.072151
  58 H     1.0000    0     1.008    2.223979   -2.392967    0.857012
  59 H     1.0000    0     1.008    4.860744   -7.301847    0.329740
  60 H     1.0000    0     1.008    6.666092   -1.998771    0.703528
  61 H     1.0000    0     1.008   10.107463    0.011998   -0.498434
  62 H     1.0000    0     1.008    6.961983   -1.906556   -6.100650
  63 H     1.0000    0     1.008    6.087380    0.957245   -9.687983
  64 H     1.0000    0     1.008    6.399952    3.560751   -7.603076
  65 H     1.0000    0     1.008    2.312349   -0.556334   -7.413738
  66 H     1.0000    0     1.008    3.247088    1.529533   -3.231792
  67 H     1.0000    0     1.008    5.922681    5.167864   -3.958106
  68 H     1.0000    0     1.008    6.693582    8.723049   -1.911962
  69 H     1.0000    0     1.008    5.689078    4.534467    0.453552
  70 H     1.0000    0     1.008    1.058203    4.703895    3.390162
  71 H     1.0000    0     1.008    3.612437    7.667071    5.922960
  72 H     1.0000    0     1.008    3.130631    4.812381    7.652705
  73 H     1.0000    0     1.008    6.108051    5.386975    6.165545
  74 H     1.0000    0     1.008    1.519885   10.956157   -3.079464
  75 H     1.0000    0     1.008    4.053106   11.117187   -5.258715
  76 H     1.0000    0     1.008    4.364680   13.099534    0.166054
  77 H     1.0000    0     1.008    8.614702   12.206009   -1.839916
  78 H     1.0000    0     1.008    7.748523   14.119595   -4.459506
  79 H     1.0000    0     1.008    8.133230   15.489013   -1.415638
  80 H     1.0000    0     1.008    1.059842   15.444836   -2.180441
  81 H     1.0000    0     1.008    3.745741   17.415245   -1.702934
  82 H     1.0000    0     1.008    3.197087   16.021101   -4.710601
  83 H     1.0000    0     1.008   -1.013442    3.644911   -0.716726
  84 H     1.0000    0     1.008   -0.217832    0.449261   -0.295969
  85 H     1.0000    0     1.008   -5.451946    2.088250   -2.189784
  86 H     1.0000    0     1.008   -4.759434    1.926149    1.063979
  87 H     1.0000    0     1.008   -3.496417   -2.702914    0.447688
  88 H     1.0000    0     1.008   -4.589383   -2.480834   -2.692113
  89 H     1.0000    0     1.008   -8.912698   -1.358686   -1.111074
  90 H     1.0000    0     1.008   -7.826478   -1.524730    2.035311
  91 H     1.0000    0     1.008   -6.602922   -6.094553    1.336380
  92 H     1.0000    0     1.008   -7.866806   -5.939119   -1.739826
  93 H     1.0000    0     1.008  -10.878117   -5.116810    3.166137
  94 H     1.0000    0     1.008  -10.795706   -7.948040    1.412545
  95 H     1.0000    0     1.008  -12.658159   -5.641870   -2.338492
  96 H     1.0000    0     1.008  -12.891057   -2.876838   -0.496047
  97 H     1.0000    0     1.008  -15.706929   -5.154521    2.580472
  98 H     1.0000    0     1.008  -15.501792   -7.908810    0.721218
  99 H     1.0000    0     1.008  -19.512499   -5.552656   -0.234001
 100 H     1.0000    0     1.008  -17.744032   -2.824372   -1.069520
 101 H     1.0000    0     1.008  -17.534529   -5.595777   -2.945998
 102 H     1.0000    0     1.008   -0.130356    2.618331   -9.022099
 103 H     1.0000    0     1.008   10.818518   -3.801274   -4.803844
 104 H     1.0000    0     1.008   12.161189   -3.989192   -1.760305
 105 H     1.0000    0     1.008   15.271048   -2.130387   -4.832661
 106 H     1.0000    0     1.008   13.126616    0.333970   -5.583734
 107 H     1.0000    0     1.008   14.463093    0.162365   -2.513630
 108 H     1.0000    0     1.008    2.796453   -8.140746   -3.684665
 109 H     1.0000    0     1.008    0.962829   -9.882132    0.348887
 110 H     1.0000    0     1.008   -1.035340   -7.196114    0.597793
 111 H     1.0000    0     1.008   -1.440502   -9.340644   -1.947569
 112 H     1.0000    0     1.008    1.750750   -3.852194   -5.159864
 113 H     1.0000    0     1.008   -1.055991   -5.677006   -5.052977
 114 H     1.0000    0     1.008   -0.464671   -3.458763   -2.645018

--------------------------------
INTERNAL COORDINATES (ANGSTROEM)
--------------------------------
 O      0   0   0     0.000000000000     0.00000000     0.00000000
 C      1   0   0     1.228503649145     0.00000000     0.00000000
 C      2   1   0     1.534792597720   118.80740773     0.00000000
 C      3   2   1     1.542531149152   111.74263391   290.35460584
 C      4   3   2     1.533725479289   103.45323293   260.26730874
 C      5   4   3     1.528640874077   102.83424690   320.58862338
 N      6   5   4     1.478454891907   102.65177517    35.90298318
 C      7   6   5     1.361935923837   126.07299076   175.61105006
 O      8   7   6     1.242838154192   121.56359981   182.23429199
 N      2   1   3     1.362841213761   123.80561610   179.05839398
 C     10   2   1     1.456845581763   121.64435670   349.42449599
 C     11  10   2     1.542842789593   111.37880479   250.25155319
 N     12  11  10     1.353020645462   115.19638950    26.86113332
 C     13  12  11     1.467527468770   125.69597376   179.59892125
 C     14  13  12     1.538653370163   109.85203807    74.92779168
 N     15  14  13     1.350011417799   115.83937856   295.04939552
 C     16  15  14     1.456094293705   123.90004389   172.12367780
 C     17  16  15     1.536783079154   112.13984975   260.53278581
 C     18  17  16     1.541140745551   114.10495145    61.77207239
 C     19  18  17     1.547220789567   116.11239910    74.15242409
 N     20  19  18     1.359262240843   116.37345051   284.55284552
 C     21  20  19     1.470710023884   119.52091786   214.38345315
 C     22  21  20     1.555167723804   107.90275617    52.64428889
 N     23  22  21     1.371296940763   113.93940395    48.99307894
 C     24  23  22     1.449810364977   120.95629164   186.97622941
 C     25  24  23     1.543129632717   112.75444709   282.95032924
 O     23  22  21     1.228241626721   124.05379750   231.20399366
 C     22  21  20     1.527930369705   114.88910967   286.67204789
 C     28  22  21     1.538457929148   113.94827469   199.04701132
 C     29  28  22     1.533627142695   112.28845197    68.20861744
 C     29  28  22     1.532385916742   109.66318160   191.48429927
 O     20  19  18     1.233186709726   119.69581654   110.24902950
 C     19  18  17     1.537314925329   111.16050021   193.81297955
 C     33  19  18     1.518678890172   115.48576199   162.40010487
 C     34  33  19     1.526653701939   115.90701708   176.18715057
 C     35  34  33     1.528920924317   114.09299979    79.06457427
 C     36  35  34     1.527731600304   113.69783371   172.26314938
 C     37  36  35     1.531477574568   112.63391427   181.59317572
 C     38  37  36     1.533335638362   114.47825613   176.60225391
 C     39  38  37     1.531481305479   114.37227034    64.84187350
 C     40  39  38     1.531014842986   113.25155240   176.58234991
 C     41  40  39     1.529747904991   113.10368905   179.86580426
 O     33  19  18     1.221102331658   121.41164289   341.21477262
 O     18  17  16     1.419033764106   106.93062708   186.14126736
 O     15  14  13     1.245127069013   119.77602990   113.66318416
 C     14  13  12     1.535747310172   114.21991368   305.30943669
 C     46  14  13     1.529073774839   111.57230051   185.22965505
 O     12  11  10     1.241867929969   120.79824250   205.47292424
 C     11  10   2     1.540803610226   113.55700606   122.37770502
 C     49  11  10     1.530817249152   110.26665866   301.03855112
 C     49  11  10     1.527896319498   111.99867895    65.96585114
 H      3   2   1     1.099674866652   103.84520107    51.23605718
 H      4   3   2     1.099424667699   109.64188881   142.66269203
 H      4   3   2     1.095626652445   111.15116380    23.33518520
 H      5   4   3     1.100550488486   110.50371422    77.70736332
 H      5   4   3     1.096584725769   113.40911315   199.13099727
 H      6   5   4     1.096259897297   113.15958856   155.25882615
 H      6   5   4     1.102619161314   111.10080293   277.53271609
 H     10   2   1     1.016718783031   117.67451079   181.91056664
 H     11  10   2     1.103590658888   104.28344373     4.60509396
 H     13  12  11     1.024993605362   118.99911708   348.95081711
 H     14  13  12     1.097673960808   105.19372939   186.25343241
 H     16  15  14     1.030809908193   115.69563082     4.71492814
 H     17  16  15     1.098779745588   109.23917448   141.41215116
 H     17  16  15     1.096983061266   109.12775439    23.93142681
 H     18  17  16     1.107996139034   107.25714119   304.17044784
 H     19  18  17     1.104973426368   108.61517705   312.58179518
 H     21  20  19     1.033098360841   117.26162745   359.93062111
 H     22  21  20     1.101894348894   104.75569262   166.65257813
 H     24  23  22     1.020359864397   121.57008182     9.00114839
 H     25  24  23     1.099216384273   107.44312266    42.27300879
 H     26  25  24     1.096187587153   108.49027246    58.98656123
 H     26  25  24     1.099735200967   111.23149805   178.52378622
 H     26  25  24     1.097861543618   109.89184401   299.11286549
 H     28  22  21     1.097059036735   108.22590988    76.20837402
 H     28  22  21     1.102237345494   107.64167109   320.63567296
 H     29  28  22     1.102688967071   107.70437639   308.50809773
 H     30  29  28     1.100348479160   112.60974122   301.09554506
 H     30  29  28     1.101943417156   110.63679609    61.51216949
 H     30  29  28     1.099936451907   110.97941007   181.00551795
 H     31  29  28     1.099256073228   110.99979477    58.79216909
 H     31  29  28     1.100119937805   111.31808325   179.29469903
 H     31  29  28     1.102064960269   110.72686575   299.06168578
 H     34  33  19     1.100827684506   105.41518874    52.98423724
 H     34  33  19     1.106882418435   107.31266932   300.92638578
 H     35  34  33     1.100564159713   108.58647127   316.16901795
 H     35  34  33     1.103016066566   108.64395130   201.04439987
 H     36  35  34     1.106711822880   109.16628010    50.56932585
 H     36  35  34     1.100528885492   109.33399870   294.98037978
 H     37  36  35     1.101998671588   109.04693005    58.96452736
 H     37  36  35     1.105416875392   109.46760616   303.34183582
 H     38  37  36     1.103831347634   108.66377770    54.43244427
 H     38  37  36     1.104121924877   109.09880222   299.44821145
 H     39  38  37     1.104759155241   109.26840513   302.08289806
 H     39  38  37     1.103220830443   108.93948871   186.75249705
 H     40  39  38     1.104841202735   109.15744607    54.57207850
 H     40  39  38     1.102930366328   110.01670383   298.71639889
 H     41  40  39     1.103534691688   109.10690453    57.56769285
 H     41  40  39     1.103449450970   109.13781076   302.23893569
 H     42  41  40     1.099384272367   111.63967324   179.93222367
 H     42  41  40     1.100673388007   111.09884649   300.16691573
 H     42  41  40     1.100663849958   111.08221655    59.70763362
 H     44  18  17     0.978711398769   105.25403995   176.05807140
 H     46  14  13     1.097259217326   109.95739894    61.95781669
 H     46  14  13     1.101078229778   107.27292889   306.35533854
 H     47  46  14     1.098128996473   110.61462309   178.13002328
 H     47  46  14     1.099814822988   111.43672701   297.79919606
 H     47  46  14     1.099978081762   111.52443260    57.96322309
 H     49  11  10     1.100519211941   105.29581963   183.36644937
 H     50  49  11     1.099228787853   111.64121489   304.85960740
 H     50  49  11     1.100506153057   110.90341561    64.99322833
 H     50  49  11     1.098668292960   110.49733070   184.18424410
 H     51  49  11     1.096968015917   111.29082962    60.65484536
 H     51  49  11     1.098388021074   111.10811435   180.64433394
 H     51  49  11     1.097761090229   111.09789006   299.11523137

---------------------------
INTERNAL COORDINATES (A.U.)
---------------------------
 O      0   0   0     0.000000000000     0.00000000     0.00000000
 C      1   0   0     2.321535451406     0.00000000     0.00000000
 C      2   1   0     2.900337682060   118.80740773     0.00000000
 C      3   2   1     2.914961424940   111.74263391   290.35460584
 C      4   3   2     2.898321120474   103.45323293   260.26730874
 C      5   4   3     2.888712609123   102.83424690   320.58862338
 N      6   5   4     2.793874847061   102.65177517    35.90298318
 C      7   6   5     2.573685908001   126.07299076   175.61105006
 O      8   7   6     2.348623740211   121.56359981   182.23429199
 N      2   1   3     2.575396658030   123.80561610   179.05839398
 C     10   2   1     2.753039168944   121.64435670   349.42449599
 C     11  10   2     2.915550340027   111.37880479   250.25155319
 N     12  11  10     2.556838473465   115.19638950    26.86113332
 C     13  12  11     2.773225009982   125.69597376   179.59892125
 C     14  13  12     2.907633484644   109.85203807    74.92779168
 N     15  14  13     2.551151857307   115.83937856   295.04939552
 C     16  15  14     2.751619440269   123.90004389   172.12367780
 C     17  16  15     2.904099146846   112.13984975   260.53278581
 C     18  17  16     2.912333942918   114.10495145    61.77207239
 C     19  18  17     2.923823560991   116.11239910    74.15242409
 N     20  19  18     2.568633379374   116.37345051   284.55284552
 C     21  20  19     2.779239167553   119.52091786   214.38345315
 C     22  21  20     2.938841090303   107.90275617    52.64428889
 N     23  22  21     2.591375666326   113.93940395    48.99307894
 C     24  23  22     2.739744535928   120.95629164   186.97622941
 C     25  24  23     2.916092394973   112.75444709   282.95032924
 O     23  22  21     2.321040300785   124.05379750   231.20399366
 C     22  21  20     2.887369950444   114.88910967   286.67204789
 C     28  22  21     2.907264154649   113.94827469   199.04701132
 C     29  28  22     2.898135291242   112.28845197    68.20861744
 C     29  28  22     2.895789714120   109.66318160   191.48429927
 O     20  19  18     2.330385153374   119.69581654   110.24902950
 C     19  18  17     2.905104190462   111.16050021   193.81297955
 C     33  19  18     2.869887187793   115.48576199   162.40010487
 C     34  33  19     2.884957398002   115.90701708   176.18715057
 C     35  34  33     2.889241827380   114.09299979    79.06457427
 C     36  35  34     2.886994330712   113.69783371   172.26314938
 C     37  36  35     2.894073196175   112.63391427   181.59317572
 C     38  37  36     2.897584427885   114.47825613   176.60225391
 C     39  38  37     2.894080246575   114.37227034    64.84187350
 C     40  39  38     2.893198760212   113.25155240   176.58234991
 C     41  40  39     2.890804594372   113.10368905   179.86580426
 O     33  19  18     2.307548988327   121.41164289   341.21477262
 O     18  17  16     2.681585188947   106.93062708   186.14126736
 O     15  14  13     2.352949162366   119.77602990   113.66318416
 C     14  13  12     2.902141827131   114.21991368   305.30943669
 C     46  14  13     2.889530673007   111.57230051   185.22965505
 O     12  11  10     2.346790282142   120.79824250   205.47292424
 C     11  10   2     2.911696849483   113.55700606   122.37770502
 C     49  11  10     2.892825361980   110.26665866   301.03855112
 C     49  11  10     2.887305604877   111.99867895    65.96585114
 H      3   2   1     2.078084334328   103.84520107    51.23605718
 H      4   3   2     2.077611526828   109.64188881   142.66269203
 H      4   3   2     2.070434318146   111.15116380    23.33518520
 H      5   4   3     2.079739019791   110.50371422    77.70736332
 H      5   4   3     2.072244814345   113.40911315   199.13099727
 H      6   5   4     2.071630977493   113.15958856   155.25882615
[...]
freq.      90.21  E(vib)   ...       0.47 
freq.      95.25  E(vib)   ...       0.47 
freq.      99.97  E(vib)   ...       0.46 
freq.     102.56  E(vib)   ...       0.46 
freq.     109.83  E(vib)   ...       0.45 
freq.     111.01  E(vib)   ...       0.45 
freq.     114.64  E(vib)   ...       0.44 
freq.     116.62  E(vib)   ...       0.44 
freq.     123.15  E(vib)   ...       0.43 
freq.     128.55  E(vib)   ...       0.43 
freq.     132.62  E(vib)   ...       0.42 
freq.     139.16  E(vib)   ...       0.42 
freq.     147.10  E(vib)   ...       0.41 
freq.     153.75  E(vib)   ...       0.40 
freq.     158.72  E(vib)   ...       0.39 
freq.     162.45  E(vib)   ...       0.39 
freq.     166.81  E(vib)   ...       0.39 
freq.     169.00  E(vib)   ...       0.38 
freq.     185.19  E(vib)   ...       0.37 
freq.     193.81  E(vib)   ...       0.36 
freq.     194.14  E(vib)   ...       0.36 
freq.     204.74  E(vib)   ...       0.35 
freq.     209.63  E(vib)   ...       0.34 
freq.     214.82  E(vib)   ...       0.34 
freq.     215.45  E(vib)   ...       0.34 
freq.     217.94  E(vib)   ...       0.33 
freq.     230.42  E(vib)   ...       0.32 
freq.     233.78  E(vib)   ...       0.32 
freq.     234.25  E(vib)   ...       0.32 
freq.     237.56  E(vib)   ...       0.32 
freq.     238.37  E(vib)   ...       0.32 
freq.     240.06  E(vib)   ...       0.31 
freq.     247.15  E(vib)   ...       0.31 
freq.     248.38  E(vib)   ...       0.31 
freq.     259.80  E(vib)   ...       0.30 
freq.     260.59  E(vib)   ...       0.30 
freq.     267.27  E(vib)   ...       0.29 
freq.     275.28  E(vib)   ...       0.28 
freq.     280.19  E(vib)   ...       0.28 
freq.     287.02  E(vib)   ...       0.27 
freq.     301.82  E(vib)   ...       0.26 
freq.     307.07  E(vib)   ...       0.26 
freq.     314.49  E(vib)   ...       0.25 
freq.     318.88  E(vib)   ...       0.25 
freq.     322.98  E(vib)   ...       0.25 
freq.     330.09  E(vib)   ...       0.24 
freq.     331.47  E(vib)   ...       0.24 
freq.     337.47  E(vib)   ...       0.24 
freq.     352.26  E(vib)   ...       0.23 
freq.     374.87  E(vib)   ...       0.21 
freq.     389.37  E(vib)   ...       0.20 
freq.     391.72  E(vib)   ...       0.20 
freq.     396.67  E(vib)   ...       0.20 
freq.     403.16  E(vib)   ...       0.19 
freq.     409.76  E(vib)   ...       0.19 
freq.     413.16  E(vib)   ...       0.19 
freq.     438.44  E(vib)   ...       0.17 
freq.     451.46  E(vib)   ...       0.16 
freq.     458.39  E(vib)   ...       0.16 
freq.     465.02  E(vib)   ...       0.16 
freq.     468.63  E(vib)   ...       0.16 
freq.     491.47  E(vib)   ...       0.14 
freq.     505.11  E(vib)   ...       0.14 
freq.     509.34  E(vib)   ...       0.14 
freq.     511.65  E(vib)   ...       0.14 
freq.     516.36  E(vib)   ...       0.13 
freq.     537.59  E(vib)   ...       0.12 
freq.     542.10  E(vib)   ...       0.12 
freq.     548.97  E(vib)   ...       0.12 
freq.     559.46  E(vib)   ...       0.12 
freq.     564.36  E(vib)   ...       0.11 
freq.     575.21  E(vib)   ...       0.11 
freq.     585.91  E(vib)   ...       0.11 
freq.     596.00  E(vib)   ...       0.10 
freq.     630.72  E(vib)   ...       0.09 
freq.     636.15  E(vib)   ...       0.09 
freq.     652.93  E(vib)   ...       0.08 
freq.     661.90  E(vib)   ...       0.08 
freq.     687.20  E(vib)   ...       0.07 
freq.     710.21  E(vib)   ...       0.07 
freq.     720.50  E(vib)   ...       0.07 
freq.     722.46  E(vib)   ...       0.07 
freq.     725.67  E(vib)   ...       0.06 
freq.     732.33  E(vib)   ...       0.06 
freq.     736.78  E(vib)   ...       0.06 
freq.     743.05  E(vib)   ...       0.06 
freq.     752.69  E(vib)   ...       0.06 
freq.     759.43  E(vib)   ...       0.06 
freq.     773.42  E(vib)   ...       0.05 
freq.     780.06  E(vib)   ...       0.05 
freq.     796.52  E(vib)   ...       0.05 
freq.     802.15  E(vib)   ...       0.05 
freq.     808.15  E(vib)   ...       0.05 
freq.     815.83  E(vib)   ...       0.05 
freq.     821.83  E(vib)   ...       0.05 
freq.     827.84  E(vib)   ...       0.04 
freq.     829.40  E(vib)   ...       0.04 
freq.     830.85  E(vib)   ...       0.04 
freq.     842.08  E(vib)   ...       0.04 
freq.     855.23  E(vib)   ...       0.04 
freq.     864.90  E(vib)   ...       0.04 
freq.     866.52  E(vib)   ...       0.04 
freq.     872.36  E(vib)   ...       0.04 
freq.     878.02  E(vib)   ...       0.04 
freq.     880.87  E(vib)   ...       0.04 
freq.     888.77  E(vib)   ...       0.04 
freq.     895.87  E(vib)   ...       0.03 
freq.     902.36  E(vib)   ...       0.03 
freq.     902.65  E(vib)   ...       0.03 
freq.     906.03  E(vib)   ...       0.03 
freq.     907.79  E(vib)   ...       0.03 
freq.     913.98  E(vib)   ...       0.03 
freq.     918.43  E(vib)   ...       0.03 
freq.     925.30  E(vib)   ...       0.03 
freq.     932.76  E(vib)   ...       0.03 
freq.     938.09  E(vib)   ...       0.03 
freq.     939.74  E(vib)   ...       0.03 
freq.     944.34  E(vib)   ...       0.03 
freq.     954.68  E(vib)   ...       0.03 
freq.     959.98  E(vib)   ...       0.03 
freq.     963.32  E(vib)   ...       0.03 
freq.     978.86  E(vib)   ...       0.03 
freq.     979.82  E(vib)   ...       0.02 
freq.     993.78  E(vib)   ...       0.02 
freq.     996.05  E(vib)   ...       0.02 
freq.     999.75  E(vib)   ...       0.02 
freq.    1007.36  E(vib)   ...       0.02 
freq.    1011.48  E(vib)   ...       0.02 
freq.    1019.54  E(vib)   ...       0.02 
freq.    1031.30  E(vib)   ...       0.02 
freq.    1033.28  E(vib)   ...       0.02 
freq.    1034.43  E(vib)   ...       0.02 
freq.    1036.63  E(vib)   ...       0.02 
freq.    1040.73  E(vib)   ...       0.02 
freq.    1048.51  E(vib)   ...       0.02 
freq.    1051.56  E(vib)   ...       0.02 
freq.    1054.77  E(vib)   ...       0.02 
freq.    1060.23  E(vib)   ...       0.02 
freq.    1067.54  E(vib)   ...       0.02 
freq.    1070.63  E(vib)   ...       0.02 
freq.    1072.52  E(vib)   ...       0.02 
freq.    1079.33  E(vib)   ...       0.02 
freq.    1093.46  E(vib)   ...       0.02 
freq.    1101.41  E(vib)   ...       0.02 
freq.    1103.45  E(vib)   ...       0.02 
freq.    1106.99  E(vib)   ...       0.02 
freq.    1108.47  E(vib)   ...       0.02 
freq.    1113.95  E(vib)   ...       0.01 
freq.    1119.14  E(vib)   ...       0.01 
freq.    1123.91  E(vib)   ...       0.01 
freq.    1130.06  E(vib)   ...       0.01 
freq.    1140.53  E(vib)   ...       0.01 
freq.    1146.41  E(vib)   ...       0.01 
freq.    1149.46  E(vib)   ...       0.01 
freq.    1151.52  E(vib)   ...       0.01 
freq.    1156.77  E(vib)   ...       0.01 
freq.    1157.41  E(vib)   ...       0.01 
freq.    1168.65  E(vib)   ...       0.01 
freq.    1177.03  E(vib)   ...       0.01 
freq.    1177.87  E(vib)   ...       0.01 
freq.    1189.74  E(vib)   ...       0.01 
freq.    1196.80  E(vib)   ...       0.01 
freq.    1207.89  E(vib)   ...       0.01 
freq.    1211.34  E(vib)   ...       0.01 
freq.    1218.06  E(vib)   ...       0.01 
freq.    1224.85  E(vib)   ...       0.01 
freq.    1226.51  E(vib)   ...       0.01 
freq.    1231.02  E(vib)   ...       0.01 
freq.    1241.50  E(vib)   ...       0.01 
freq.    1242.42  E(vib)   ...       0.01 
freq.    1244.56  E(vib)   ...       0.01 
freq.    1245.62  E(vib)   ...       0.01 
freq.    1250.69  E(vib)   ...       0.01 
freq.    1255.63  E(vib)   ...       0.01 
freq.    1256.25  E(vib)   ...       0.01 
freq.    1263.47  E(vib)   ...       0.01 
freq.    1264.67  E(vib)   ...       0.01 
freq.    1271.39  E(vib)   ...       0.01 
freq.    1273.98  E(vib)   ...       0.01 
freq.    1280.70  E(vib)   ...       0.01 
freq.    1282.83  E(vib)   ...       0.01 
freq.    1286.66  E(vib)   ...       0.01 
freq.    1289.28  E(vib)   ...       0.01 
freq.    1290.30  E(vib)   ...       0.01 
freq.    1293.11  E(vib)   ...       0.01 
freq.    1293.40  E(vib)   ...       0.01 
freq.    1298.42  E(vib)   ...       0.01 
freq.    1299.05  E(vib)   ...       0.01 
freq.    1304.66  E(vib)   ...       0.01 
freq.    1306.67  E(vib)   ...       0.01 
freq.    1309.46  E(vib)   ...       0.01 
freq.    1310.83  E(vib)   ...       0.01 
freq.    1316.44  E(vib)   ...       0.01 
freq.    1317.49  E(vib)   ...       0.01 
freq.    1319.75  E(vib)   ...       0.01 
freq.    1321.73  E(vib)   ...       0.01 
freq.    1324.26  E(vib)   ...       0.01 
freq.    1328.22  E(vib)   ...       0.01 
freq.    1332.08  E(vib)   ...       0.01 
freq.    1332.81  E(vib)   ...       0.01 
freq.    1336.77  E(vib)   ...       0.01 
freq.    1342.55  E(vib)   ...       0.01 
freq.    1344.49  E(vib)   ...       0.01 
freq.    1346.06  E(vib)   ...       0.01 
freq.    1348.36  E(vib)   ...       0.01 
freq.    1349.60  E(vib)   ...       0.01 
freq.    1351.01  E(vib)   ...       0.01 
freq.    1351.92  E(vib)   ...       0.01 
freq.    1353.08  E(vib)   ...       0.01 
freq.    1364.47  E(vib)   ...       0.01 
freq.    1370.00  E(vib)   ...       0.01 
freq.    1370.13  E(vib)   ...       0.01 
freq.    1371.31  E(vib)   ...       0.01 
freq.    1379.64  E(vib)   ...       0.01 
freq.    1388.18  E(vib)   ...       0.00 
freq.    1396.68  E(vib)   ...       0.00 
freq.    1425.64  E(vib)   ...       0.00 
freq.    1426.77  E(vib)   ...       0.00 
freq.    1430.49  E(vib)   ...       0.00 
freq.    1431.69  E(vib)   ...       0.00 
freq.    1433.60  E(vib)   ...       0.00 
freq.    1436.23  E(vib)   ...       0.00 
freq.    1438.50  E(vib)   ...       0.00 
freq.    1438.99  E(vib)   ...       0.00 
freq.    1439.21  E(vib)   ...       0.00 
freq.    1445.50  E(vib)   ...       0.00 
freq.    1445.62  E(vib)   ...       0.00 
freq.    1446.52  E(vib)   ...       0.00 
freq.    1447.29  E(vib)   ...       0.00 
freq.    1448.33  E(vib)   ...       0.00 
freq.    1449.94  E(vib)   ...       0.00 
freq.    1450.30  E(vib)   ...       0.00 
freq.    1451.09  E(vib)   ...       0.00 
freq.    1453.21  E(vib)   ...       0.00 
freq.    1453.60  E(vib)   ...       0.00 
freq.    1453.94  E(vib)   ...       0.00 
freq.    1455.63  E(vib)   ...       0.00 
freq.    1459.02  E(vib)   ...       0.00 
freq.    1460.31  E(vib)   ...       0.00 
freq.    1460.89  E(vib)   ...       0.00 
freq.    1462.24  E(vib)   ...       0.00 
freq.    1463.59  E(vib)   ...       0.00 
freq.    1466.23  E(vib)   ...       0.00 
freq.    1468.77  E(vib)   ...       0.00 
freq.    1472.89  E(vib)   ...       0.00 
freq.    1510.65  E(vib)   ...       0.00 
freq.    1546.69  E(vib)   ...       0.00 
freq.    1557.94  E(vib)   ...       0.00 
freq.    1626.16  E(vib)   ...       0.00 
freq.    1631.89  E(vib)   ...       0.00 
freq.    1649.70  E(vib)   ...       0.00 
freq.    1661.61  E(vib)   ...       0.00 
freq.    1687.12  E(vib)   ...       0.00 
freq.    1689.07  E(vib)   ...       0.00 
freq.    1712.47  E(vib)   ...       0.00 
freq.    2895.05  E(vib)   ...       0.00 
freq.    2910.03  E(vib)   ...       0.00 
freq.    2921.39  E(vib)   ...       0.00 
freq.    2924.45  E(vib)   ...       0.00 
freq.    2926.58  E(vib)   ...       0.00 
freq.    2932.95  E(vib)   ...       0.00 
freq.    2934.21  E(vib)   ...       0.00 
freq.    2943.04  E(vib)   ...       0.00 
freq.    2944.11  E(vib)   ...       0.00 
freq.    2948.89  E(vib)   ...       0.00 
freq.    2949.09  E(vib)   ...       0.00 
freq.    2949.90  E(vib)   ...       0.00 
freq.    2950.31  E(vib)   ...       0.00 
freq.    2953.78  E(vib)   ...       0.00 
freq.    2956.08  E(vib)   ...       0.00 
freq.    2957.67  E(vib)   ...       0.00 
freq.    2960.39  E(vib)   ...       0.00 
freq.    2962.65  E(vib)   ...       0.00 
freq.    2965.17  E(vib)   ...       0.00 
freq.    2966.41  E(vib)   ...       0.00 
freq.    2967.33  E(vib)   ...       0.00 
freq.    2972.21  E(vib)   ...       0.00 
freq.    2972.90  E(vib)   ...       0.00 
freq.    2974.16  E(vib)   ...       0.00 
freq.    2977.20  E(vib)   ...       0.00 
freq.    2980.73  E(vib)   ...       0.00 
freq.    2982.85  E(vib)   ...       0.00 
freq.    2984.15  E(vib)   ...       0.00 
freq.    2987.40  E(vib)   ...       0.00 
freq.    2988.50  E(vib)   ...       0.00 
freq.    2991.46  E(vib)   ...       0.00 
freq.    2996.19  E(vib)   ...       0.00 
freq.    2998.65  E(vib)   ...       0.00 
freq.    3000.25  E(vib)   ...       0.00 
freq.    3001.85  E(vib)   ...       0.00 
freq.    3002.36  E(vib)   ...       0.00 
freq.    3011.33  E(vib)   ...       0.00 
freq.    3011.91  E(vib)   ...       0.00 
freq.    3015.82  E(vib)   ...       0.00 
freq.    3017.10  E(vib)   ...       0.00 
freq.    3021.12  E(vib)   ...       0.00 
freq.    3021.91  E(vib)   ...       0.00 
freq.    3025.60  E(vib)   ...       0.00 
freq.    3027.98  E(vib)   ...       0.00 
freq.    3028.47  E(vib)   ...       0.00 
freq.    3031.32  E(vib)   ...       0.00 
freq.    3040.33  E(vib)   ...       0.00 
freq.    3041.80  E(vib)   ...       0.00 
freq.    3042.11  E(vib)   ...       0.00 
freq.    3044.66  E(vib)   ...       0.00 
freq.    3046.90  E(vib)   ...       0.00 
freq.    3047.16  E(vib)   ...       0.00 
freq.    3049.25  E(vib)   ...       0.00 
freq.    3049.88  E(vib)   ...       0.00 
freq.    3053.73  E(vib)   ...       0.00 
freq.    3062.24  E(vib)   ...       0.00 
freq.    3062.68  E(vib)   ...       0.00 
freq.    3073.88  E(vib)   ...       0.00 
freq.    3174.27  E(vib)   ...       0.00 
freq.    3258.06  E(vib)   ...       0.00 
freq.    3350.86  E(vib)   ...       0.00 
freq.    3446.68  E(vib)   ...       0.00 
freq.    3488.23  E(vib)   ...       0.00 
freq.    3596.74  E(vib)   ...       0.00 

------------
INNER ENERGY
------------

The inner energy is: U= E(el) + E(ZPE) + E(vib) + E(rot) + E(trans)
    E(el)   - is the total energy from the electronic structure calculation
              = E(kin-el) + E(nuc-el) + E(el-el) + E(nuc-nuc)
    E(ZPE)  - the the zero temperature vibrational energy from the frequency calculation
    E(vib)  - the the finite temperature correction to E(ZPE) due to population
              of excited vibrational states
    E(rot)  - is the rotational thermal energy
    E(trans)- is the translational thermal energy

Summary of contributions to the inner energy U:
Electronic energy                ...  -2380.08461087 Eh
Zero point energy                ...      0.97768772 Eh     613.51 kcal/mol
Thermal vibrational correction   ...      0.05437446 Eh      34.12 kcal/mol
Thermal rotational correction    ...      0.00141627 Eh       0.89 kcal/mol
Thermal translational correction ...      0.00141627 Eh       0.89 kcal/mol
-----------------------------------------------------------------------
Total thermal energy                  -2379.04971615 Eh


Summary of corrections to the electronic energy:
(perhaps to be used in another calculation)
Total thermal correction                  0.05720700 Eh      35.90 kcal/mol
Non-thermal (ZPE) correction              0.97768772 Eh     613.51 kcal/mol
-----------------------------------------------------------------------
Total correction                          1.03489472 Eh     649.40 kcal/mol


--------
ENTHALPY
--------

The enthalpy is H = U + kB*T
                kB is Boltzmann's constant
Total free energy                 ...  -2379.04971615 Eh 
Thermal Enthalpy correction       ...      0.00094421 Eh       0.59 kcal/mol
-----------------------------------------------------------------------
Total Enthalpy                    ...  -2379.04877195 Eh


Note: Only C1 symmetry has been detected, increase convergence thresholds 
      if your molecule has a higher symmetry. Symmetry factor of 1.0 is   
      used for the rotational entropy correction. 
 

Note: Rotational entropy computed according to Herzberg 
Infrared and Raman Spectra, Chapter V,1, Van Nostrand Reinhold, 1945 
Point Group:  C1, Symmetry Number:   1  
Rotational constants in cm-1:     0.002156     0.001317     0.001131 

Vibrational entropy computed according to the QRRHO of S. Grimme
Chem.Eur.J. 2012 18 9955


-------
ENTROPY
-------

The entropy contributions are T*S = T*(S(el)+S(vib)+S(rot)+S(trans))
     S(el)   - electronic entropy
     S(vib)  - vibrational entropy
     S(rot)  - rotational entropy
     S(trans)- translational entropy
The entropies will be listed as mutliplied by the temperature to get
units of energy

Electronic entropy                ...      0.00000000 Eh      0.00 kcal/mol
Vibrational entropy               ...      0.09883196 Eh     62.02 kcal/mol
Rotational entropy                ...      0.01874303 Eh     11.76 kcal/mol
Translational entropy             ...      0.02166895 Eh     13.60 kcal/mol
-----------------------------------------------------------------------
Final entropy term                ...      0.13924394 Eh     87.38 kcal/mol

In case the symmetry of your molecule has not been determined correctly
or in case you have a reason to use a different symmetry number we print 
out the resulting rotational entropy values for sn=1,12 :
 --------------------------------------------------------
|  sn= 1 | S(rot)=       0.01874303 Eh     11.76 kcal/mol|
|  sn= 2 | S(rot)=       0.01808857 Eh     11.35 kcal/mol|
|  sn= 3 | S(rot)=       0.01770574 Eh     11.11 kcal/mol|
|  sn= 4 | S(rot)=       0.01743412 Eh     10.94 kcal/mol|
|  sn= 5 | S(rot)=       0.01722343 Eh     10.81 kcal/mol|
|  sn= 6 | S(rot)=       0.01705128 Eh     10.70 kcal/mol|
|  sn= 7 | S(rot)=       0.01690574 Eh     10.61 kcal/mol|
|  sn= 8 | S(rot)=       0.01677966 Eh     10.53 kcal/mol|
|  sn= 9 | S(rot)=       0.01666845 Eh     10.46 kcal/mol|
|  sn=10 | S(rot)=       0.01656897 Eh     10.40 kcal/mol|
|  sn=11 | S(rot)=       0.01647898 Eh     10.34 kcal/mol|
|  sn=12 | S(rot)=       0.01639683 Eh     10.29 kcal/mol|
 --------------------------------------------------------


-------------------
GIBBS FREE ENERGY
-------------------

The Gibbs free energy is G = H - T*S

Total enthalpy                    ...  -2379.04877195 Eh 
Total entropy correction          ...     -0.13924394 Eh    -87.38 kcal/mol
-----------------------------------------------------------------------
Final Gibbs free energy         ...  -2379.18801588 Eh

For completeness - the Gibbs free energy minus the electronic energy
G-E(el)                           ...      0.89659499 Eh    562.62 kcal/mol

--------------------------------------------------------------------------
WARNING: No preset parameters were found for the device that Open MPI
detected:

  Local host:            eu-g1-046-3
  Device name:           mlx5_0
  Device vendor ID:      0x02c9
  Device vendor part ID: 4123

Default device parameters will be used, which may result in lower
performance.  You can edit any of the files specified by the
btl_openib_device_param_files MCA parameter to set values for your
device.

NOTE: You can turn off this warning by setting the MCA parameter
      btl_openib_warn_no_device_params_found to 0.
--------------------------------------------------------------------------
--------------------------------------------------------------------------
WARNING: There was an error initializing an OpenFabrics device.

  Local host:   eu-g1-046-3
  Local device: mlx5_0
--------------------------------------------------------------------------

Timings for individual modules:

Sum of individual times         ...    39543.199 sec (= 659.053 min)
GTO integral calculation        ...       60.876 sec (=   1.015 min)   0.2 %
SCF iterations                  ...     1915.804 sec (=  31.930 min)   4.8 %
SCF Gradient evaluation         ...      685.298 sec (=  11.422 min)   1.7 %
Geometry relaxation             ...       26.396 sec (=   0.440 min)   0.1 %
Analytical frequency calculation...    36854.825 sec (= 614.247 min)  93.2 %
                             ****ORCA TERMINATED NORMALLY****
TOTAL RUN TIME: 0 days 10 hours 59 minutes 35 seconds 549 msec
