
                                 *****************
                                 * O   R   C   A *
                                 *****************

           --- An Ab Initio, DFT and Semiempirical electronic structure package ---

                  #######################################################
                  #                        -***-                        #
                  #          Department of theory and spectroscopy      #
                  #               Directorship: Frank Neese             #
                  #        Max Planck Institute fuer Kohlenforschung    #
                  #                Kaiser Wilhelm Platz 1               #
                  #                 D-45470 Muelheim/Ruhr               #
                  #                      Germany                        #
                  #                                                     #
                  #                  All rights reserved                #
                  #                        -***-                        #
                  #######################################################


                         Program Version 4.2.0 -  RELEASE  -


 With contributions from (in alphabetic order):
   Daniel Aravena         : Magnetic Suceptibility
   Michael Atanasov       : Ab Initio Ligand Field Theory (pilot matlab implementation)
   Alexander A. Auer      : GIAO ZORA, VPT2
   Ute Becker             : Parallelization
   Giovanni Bistoni       : ED, misc. LED, open-shell LED, HFLED
   Martin Brehm           : Molecular dynamics
   Dmytro Bykov           : SCF Hessian
   Vijay G. Chilkuri      : MRCI spin determinant printing, contributions to CSF-ICE
   Dipayan Datta          : RHF DLPNO-CCSD density
   Achintya Kumar Dutta   : EOM-CC, STEOM-CC
   Dmitry Ganyushin       : Spin-Orbit,Spin-Spin,Magnetic field MRCI
   Miquel Garcia          : C-PCM Hessian, Gaussian charge scheme
   Yang Guo               : DLPNO-NEVPT2, CIM, IAO-localization
   Andreas Hansen         : Spin unrestricted coupled pair/coupled cluster methods
   Benjamin Helmich-Paris : CASSCF linear response (MC-RPA)
   Lee Huntington         : MR-EOM, pCC
   Robert Izsak           : Overlap fitted RIJCOSX, COSX-SCS-MP3, EOM
   Christian Kollmar      : KDIIS, OOCD, Brueckner-CCSD(T), CCSD density
   Simone Kossmann        : Meta GGA functionals, TD-DFT gradient, OOMP2, MP2 Hessian
   Martin Krupicka        : AUTO-CI
   Lucas Lang             : DCDCAS
   Dagmar Lenk            : GEPOL surface, SMD
   Dimitrios Liakos       : Extrapolation schemes; Compound Job, initial MDCI parallelization
   Dimitrios Manganas     : Further ROCIS development; embedding schemes
   Dimitrios Pantazis     : SARC Basis sets
   Taras Petrenko         : DFT Hessian,TD-DFT gradient, ASA, ECA, R-Raman, ABS, FL, XAS/XES, NRVS
   Peter Pinski           : DLPNO-MP2, DLPNO-MP2 Gradient
   Christoph Reimann      : Effective Core Potentials
   Marius Retegan         : Local ZFS, SOC
   Christoph Riplinger    : Optimizer, TS searches, QM/MM, DLPNO-CCSD(T), (RO)-DLPNO pert. Triples
   Tobias Risthaus        : Range-separated hybrids, TD-DFT gradient, RPA, STAB
   Michael Roemelt        : Original ROCIS implementation
   Masaaki Saitow         : Open-shell DLPNO-CCSD energy and density
   Barbara Sandhoefer     : DKH picture change effects
   Avijit Sen             : IP-ROCIS
   Kantharuban Sivalingam : CASSCF convergence, NEVPT2, FIC-MRCI
   Bernardo de Souza      : ESD, SOC TD-DFT
   Georgi Stoychev        : AutoAux, RI-MP2 NMR
   Willem Van den Heuvel  : Paramagnetic NMR
   Boris Wezisla          : Elementary symmetry handling
   Frank Wennmohs         : Technical directorship


 We gratefully acknowledge several colleagues who have allowed us to
 interface, adapt or use parts of their codes:
   Stefan Grimme, W. Hujo, H. Kruse,             : VdW corrections, initial TS optimization,
                  C. Bannwarth                     DFT functionals, gCP, sTDA/sTD-DF
   Ed Valeev, F. Pavosevic, A. Kumar             : LibInt (2-el integral package), F12 methods
   Garnet Chan, S. Sharma, J. Yang, R. Olivares  : DMRG
   Ulf Ekstrom                                   : XCFun DFT Library
   Mihaly Kallay                                 : mrcc  (arbitrary order and MRCC methods)
   Andreas Klamt, Michael Diedenhofen            : otool_cosmo (COSMO solvation model)
   Jiri Pittner, Ondrej Demel                    : Mk-CCSD
   Frank Weinhold                                : gennbo (NPA and NBO analysis)
   Christopher J. Cramer and Donald G. Truhlar   : smd solvation model
   Lars Goerigk                                  : TD-DFT with DH, B97 family of functionals
   V. Asgeirsson, H. Jonsson                     : NEB implementation
   FAccTs GmbH                                   : IRC, NEB, NEB-TS, Multilevel, MM, QM/MM, CI optimization
   S Lehtola, MJT Oliveira, MAL Marques          : LibXC Library


 Your calculation uses the libint2 library for the computation of 2-el integrals
 For citations please refer to: http://libint.valeyev.net

 Your ORCA version has been built with support for libXC version: 4.2.3
 For citations please refer to: https://tddft.org/programs/libxc/

 This ORCA versions uses:
   CBLAS   interface :  Fast vector & matrix operations
   LAPACKE interface :  Fast linear algebra routines
   SCALAPACK package :  Parallel linear algebra routines




***************************************
The coordinates will be read from file: 49.xyz
***************************************


Your calculation utilizes the atom-pairwise dispersion correction
with the Becke-Johnson damping scheme (D3BJ)
Cite in your paper:
S.Grimme, S.Ehrlich, L.Goerigk, J Comput Chem, (2011), 32, 1456–1465 
S.Grimme, J.Antony, S.Ehrlich and H.Krieg, J.Chem.Phys., 132, (2010), 154104 
   

----- Orbital basis set information -----
Your calculation utilizes the basis: def2-TZVP
   F. Weigend and R. Ahlrichs, Phys. Chem. Chem. Phys. 7, 3297 (2005).

----- AuxJ basis set information -----
Your calculation utilizes the auxiliary basis: def2/J
   F. Weigend, Phys. Chem. Chem. Phys. 8, 1057 (2006).

================================================================================
                                        WARNINGS
                       Please study these warnings very carefully!
================================================================================


WARNING: Geometry Optimization
  ===> : Switching off AutoStart
         For restart on a previous wavefunction, please use MOREAD

INFO   : the flag for use of LIBINT has been found!

================================================================================
                                       INPUT FILE
================================================================================
NAME = 49.inp
|  1> !RI BP86 def2-tzvp def2/J D3BJ VeryTightSCF VeryTightOpt Grid5 FinalGrid6 freq
|  2> %maxcore 4000
|  3> %pal nprocs 24
|  4> end
|  5> * xyzfile 0 1 49.xyz 
|  6> 
|  7>                          ****END OF INPUT****
================================================================================

                       *****************************
                       * Geometry Optimization Run *
                       *****************************

Geometry optimization settings:
Update method            Update   .... BFGS
Choice of coordinates    CoordSys .... Z-matrix Internals
Initial Hessian          InHess   .... Almoef's Model

Convergence Tolerances:
Energy Change            TolE     ....  2.0000e-07 Eh
Max. Gradient            TolMAXG  ....  3.0000e-05 Eh/bohr
RMS Gradient             TolRMSG  ....  8.0000e-06 Eh/bohr
Max. Displacement        TolMAXD  ....  2.0000e-04 bohr
RMS Displacement         TolRMSD  ....  1.0000e-04 bohr
Strict Convergence                ....  False
------------------------------------------------------------------------------
                        ORCA OPTIMIZATION COORDINATE SETUP
------------------------------------------------------------------------------

The optimization will be done in new redundant internal coordinates
Making redundant internal coordinates   ...  (new redundants) done
Evaluating the initial hessian          ...  (Almloef) done
Evaluating the coordinates              ...  done
Calculating the B-matrix                .... done
Calculating the G-matrix                .... done
Diagonalizing the G-matrix              .... done
Small eigenvalue found = 4.328e-04
Small eigenvalue found = 1.585e-03
Small eigenvalue found = 2.357e-03
Small eigenvalue found = 3.414e-03
Small eigenvalue found = 4.620e-03
Small eigenvalue found = 6.488e-03
Small eigenvalue found = 7.067e-03
Small eigenvalue found = 9.063e-03
Small eigenvalue found = 9.432e-03
Small eigenvalue found = 1.111e-02
Small eigenvalue found = 1.274e-02
Small eigenvalue found = 1.477e-02
Small eigenvalue found = 1.696e-02
Small eigenvalue found = 1.760e-02
Small eigenvalue found = 2.066e-02
Small eigenvalue found = 2.271e-02
Small eigenvalue found = 2.655e-02
Small eigenvalue found = 2.968e-02
The first mode is                       ....  328
The number of degrees of freedom        ....  339

    -----------------------------------------------------------------
                    Redundant Internal Coordinates


    -----------------------------------------------------------------
         Definition                    Initial Value    Approx d2E/dq
    -----------------------------------------------------------------
      1. B(C   1,O   0)                  1.2313         1.002598   
      2. B(C   2,C   1)                  1.5568         0.338512   
      3. B(C   3,C   2)                  1.5287         0.375423   
      4. B(C   4,C   3)                  1.5346         0.367331   
      5. B(C   5,C   4)                  1.5316         0.371442   
      6. B(N   6,C   5)                  1.4773         0.406051   
      7. B(N   6,C   2)                  1.4818         0.399434   
      8. B(C   7,N   6)                  1.3550         0.636333   
      9. B(O   8,C   7)                  1.2459         0.949962   
     10. B(N   9,C   1)                  1.3576         0.630261   
     11. B(C  10,N   9)                  1.4658         0.423605   
     12. B(C  11,C  10)                  1.5368         0.364417   
     13. B(N  12,C  11)                  1.3590         0.627132   
     14. B(C  13,N  12)                  1.4467         0.454327   
     15. B(C  14,C  13)                  1.5271         0.377617   
     16. B(N  15,C  14)                  1.3447         0.660812   
     17. B(C  16,N  15)                  1.4620         0.429580   
     18. B(C  17,C  16)                  1.5448         0.353859   
     19. B(C  18,C  17)                  1.5546         0.341341   
     20. B(C  19,C  18)                  1.5220         0.384647   
     21. B(N  20,C  19)                  1.3555         0.635164   
     22. B(C  21,N  20)                  1.4568         0.437791   
     23. B(C  22,C  21)                  1.5428         0.356425   
     24. B(N  23,C  22)                  1.3607         0.623281   
     25. B(C  24,C   7)                  1.5401         0.359933   
     26. B(C  24,N  23)                  1.4586         0.434927   
     27. B(C  25,C  24)                  1.5265         0.378377   
     28. B(O  26,C  22)                  1.2318         1.000645   
     29. B(C  27,C  21)                  1.5399         0.360267   
     30. B(C  28,C  27)                  1.5351         0.366661   
     31. B(C  29,C  28)                  1.5313         0.371831   
     32. B(C  30,C  28)                  1.5327         0.369936   
     33. B(O  31,C  19)                  1.2450         0.953213   
     34. B(C  32,C  18)                  1.5535         0.342705   
     35. B(C  33,C  32)                  1.5049         0.409627   
     36. B(C  34,C  33)                  1.5496         0.347636   
     37. B(C  35,C  34)                  1.5334         0.368909   
     38. B(C  36,C  35)                  1.5310         0.372265   
     39. B(C  37,C  36)                  1.5291         0.374830   
     40. B(C  38,C  37)                  1.5301         0.373476   
     41. B(C  39,C  38)                  1.5295         0.374251   
     42. B(C  40,C  39)                  1.5310         0.372184   
     43. B(C  41,C  40)                  1.5297         0.373955   
     44. B(O  42,C  32)                  1.2190         1.048730   
     45. B(O  43,C  17)                  1.4149         0.510634   
     46. B(O  44,C  14)                  1.2462         0.949074   
     47. B(C  45,C  13)                  1.5488         0.348586   
     48. B(C  46,C  45)                  1.5275         0.376962   
     49. B(O  47,C  11)                  1.2305         1.005445   
     50. B(C  48,C  10)                  1.5604         0.334055   
     51. B(C  49,C  48)                  1.5318         0.371064   
     52. B(C  50,C  48)                  1.5312         0.371956   
     53. B(H  51,C   2)                  1.1014         0.345334   
     54. B(H  52,C   3)                  1.0997         0.347458   
     55. B(H  53,C   3)                  1.0952         0.353267   
     56. B(H  54,C   4)                  1.0996         0.347647   
     57. B(H  55,C   4)                  1.0968         0.351187   
     58. B(H  56,C   5)                  1.0970         0.350991   
     59. B(H  57,C   5)                  1.1014         0.345311   
     60. B(H  58,N   9)                  1.0324         0.398554   
     61. B(H  59,C  10)                  1.1016         0.345076   
     62. B(H  60,N  12)                  1.0189         0.418813   
     63. B(H  61,C  13)                  1.1026         0.343783   
     64. B(H  62,N  15)                  1.0154         0.424258   
     65. B(H  63,C  16)                  1.0972         0.350695   
     66. B(H  64,C  16)                  1.0982         0.349397   
     67. B(H  65,C  17)                  1.1022         0.344318   
     68. B(H  66,C  18)                  1.0988         0.348588   
     69. B(H  67,N  20)                  1.0172         0.421393   
     70. B(H  68,C  21)                  1.0975         0.350301   
     71. B(H  69,O  44)                  1.8095         0.022946   
     72. B(H  69,N  23)                  1.0268         0.406811   
     73. B(H  70,C  24)                  1.1002         0.346839   
     74. B(H  71,C  25)                  1.0976         0.350127   
     75. B(H  72,C  25)                  1.0981         0.349552   
     76. B(H  73,C  25)                  1.0972         0.350732   
     77. B(H  74,C  27)                  1.1051         0.340706   
     78. B(H  75,C  27)                  1.1042         0.341821   
     79. B(H  76,C  28)                  1.1020         0.344542   
     80. B(H  77,C  29)                  1.0976         0.350157   
     81. B(H  78,C  29)                  1.1022         0.344351   
     82. B(H  79,C  29)                  1.0993         0.347972   
     83. B(H  80,H  56)                  3.3573         0.000017   
     84. B(H  80,C  30)                  1.1004         0.346594   
     85. B(H  81,C  30)                  1.0992         0.348162   
     86. B(H  82,C  30)                  1.1017         0.344925   
     87. B(H  83,C  33)                  1.0981         0.349590   
     88. B(H  84,C  33)                  1.0983         0.349321   
     89. B(H  85,C  34)                  1.1026         0.343813   
     90. B(H  86,C  34)                  1.1000         0.347135   
     91. B(H  87,C  35)                  1.1027         0.343658   
     92. B(H  88,C  35)                  1.1037         0.342409   
     93. B(H  89,C  36)                  1.1026         0.343788   
     94. B(H  90,O  26)                  4.8254         0.000000   
     95. B(H  90,C  36)                  1.1047         0.341187   
     96. B(H  91,C  37)                  1.1045         0.341450   
     97. B(H  92,C  37)                  1.1042         0.341777   
     98. B(H  93,C  38)                  1.1039         0.342158   
     99. B(H  94,H  77)                  2.4260         0.000509   
    100. B(H  94,C  38)                  1.1032         0.343024   
    101. B(H  95,C  39)                  1.1047         0.341156   
    102. B(H  96,C  39)                  1.1046         0.341333   
    103. B(H  97,C  40)                  1.1032         0.343041   
    104. B(H  98,C  40)                  1.1033         0.342945   
    105. B(H  99,C  41)                  1.0994         0.347834   
    106. B(H 100,C  41)                  1.1008         0.346133   
    107. B(H 101,C  41)                  1.1008         0.346053   
    108. B(H 102,H  71)                  4.4174         0.000000   
    109. B(H 102,O  43)                  0.9923         0.461747   
    110. B(H 103,C  45)                  1.1014         0.345349   
    111. B(H 104,C  45)                  1.0991         0.348207   
    112. B(H 105,C  46)                  1.0980         0.349635   
    113. B(H 106,H  67)                  4.7965         0.000000   
    114. B(H 106,C  46)                  1.0993         0.348005   
    115. B(H 107,C  46)                  1.1015         0.345208   
    116. B(H 108,C  48)                  1.0985         0.349059   
    117. B(H 109,H  74)                  3.4952         0.000010   
    118. B(H 109,C  49)                  1.0996         0.347570   
    119. B(H 110,C  49)                  1.1002         0.346829   
    120. B(H 111,C  49)                  1.0990         0.348367   
    121. B(H 112,C  50)                  1.0989         0.348474   
    122. B(H 113,C  50)                  1.0991         0.348200   
    123. B(H 114,C  50)                  1.1002         0.346798   
    124. A(O   0,C   1,N   9)          125.2250         0.468825   
    125. A(C   2,C   1,N   9)          113.2412         0.388531   
    126. A(O   0,C   1,C   2)          121.5141         0.421716   
    127. A(C   1,C   2,H  51)          106.8877         0.316957   
    128. A(N   6,C   2,H  51)          107.8296         0.323710   
    129. A(C   1,C   2,N   6)          114.4126         0.359153   
    130. A(C   1,C   2,C   3)          111.5081         0.357599   
    131. A(C   3,C   2,H  51)          113.3465         0.322360   
    132. A(C   3,C   2,N   6)          102.9535         0.365556   
    133. A(C   4,C   3,H  53)          113.0031         0.322408   
    134. A(C   4,C   3,H  52)          110.8083         0.321534   
    135. A(C   2,C   3,C   4)          102.8669         0.362612   
    136. A(C   2,C   3,H  53)          110.7486         0.323563   
    137. A(C   2,C   3,H  52)          109.8130         0.322684   
    138. A(H  52,C   3,H  53)          109.4385         0.288347   
    139. A(H  54,C   4,H  55)          108.1072         0.288105   
    140. A(C   3,C   4,H  55)          113.5088         0.322097   
    141. A(C   3,C   4,C   5)          103.4398         0.361953   
    142. A(C   3,C   4,H  54)          109.4084         0.321563   
    143. A(C   5,C   4,H  55)          111.9616         0.322685   
    144. A(C   5,C   4,H  54)          110.3601         0.322150   
    145. A(H  56,C   5,H  57)          107.5879         0.287777   
    146. A(C   4,C   5,N   6)          103.4518         0.365917   
    147. A(C   4,C   5,H  56)          113.2787         0.322655   
    148. A(N   6,C   5,H  57)          110.4343         0.324581   
    149. A(N   6,C   5,H  56)          110.5549         0.325453   
    150. A(C   4,C   5,H  57)          111.5381         0.321794   
    151. A(C   5,N   6,C   7)          125.6922         0.399226   
    152. A(C   2,N   6,C   7)          121.7051         0.398074   
    153. A(C   2,N   6,C   5)          111.7405         0.368192   
    154. A(O   8,C   7,C  24)          121.1085         0.422275   
    155. A(N   6,C   7,O   8)          121.8782         0.465032   
    156. A(N   6,C   7,C  24)          117.0118         0.393380   
    157. A(C   1,N   9,C  10)          124.6488         0.401533   
    158. A(C  10,N   9,H  58)          119.0873         0.331832   
    159. A(C   1,N   9,H  58)          114.8801         0.354682   
    160. A(C  48,C  10,H  59)          107.3168         0.316236   
    161. A(C  11,C  10,H  59)          105.6260         0.320754   
    162. A(N   9,C  10,C  11)          109.0422         0.367377   
    163. A(N   9,C  10,C  48)          113.2104         0.361950   
    164. A(N   9,C  10,H  59)          109.9865         0.326812   
    165. A(C  11,C  10,C  48)          111.3714         0.354997   
    166. A(N  12,C  11,O  47)          123.5177         0.468641   
    167. A(C  10,C  11,O  47)          123.0164         0.427532   
    168. A(C  10,C  11,N  12)          113.4430         0.393229   
    169. A(C  13,N  12,H  60)          114.8637         0.338495   
    170. A(C  11,N  12,C  13)          124.7777         0.406168   
    171. A(C  11,N  12,H  60)          120.3441         0.357378   
    172. A(C  14,C  13,C  45)          111.1518         0.359745   
    173. A(N  12,C  13,H  61)          109.1944         0.330405   
    174. A(C  14,C  13,H  61)          111.0480         0.322430   
    175. A(N  12,C  13,C  14)          104.8862         0.374111   
    176. A(C  45,C  13,H  61)          108.8348         0.318241   
    177. A(N  12,C  13,C  45)          111.6876         0.368995   
    178. A(C  13,C  14,N  15)          117.9371         0.399342   
    179. A(N  15,C  14,O  44)          122.7411         0.468178   
    180. A(C  13,C  14,O  44)          119.3042         0.425842   
    181. A(C  14,N  15,H  62)          117.5172         0.361369   
    182. A(C  16,N  15,H  62)          118.3601         0.336073   
    183. A(C  14,N  15,C  16)          124.1216         0.405902   
    184. A(H  63,C  16,H  64)          107.7811         0.288268   
    185. A(C  17,C  16,H  64)          110.3524         0.319867   
    186. A(N  15,C  16,H  63)          108.0594         0.328441   
    187. A(C  17,C  16,H  63)          107.4032         0.320060   
    188. A(N  15,C  16,C  17)          114.3770         0.366409   
    189. A(N  15,C  16,H  64)          108.6462         0.328240   
    190. A(O  43,C  17,H  65)          107.5783         0.336962   
    191. A(C  18,C  17,H  65)          106.7138         0.317235   
    192. A(C  16,C  17,H  65)          108.7185         0.319103   
    193. A(C  16,C  17,C  18)          112.4961         0.354526   
    194. A(C  18,C  17,O  43)          111.4183         0.375135   
    195. A(C  16,C  17,O  43)          109.7189         0.377477   
    196. A(C  19,C  18,H  66)          110.2157         0.324144   
    197. A(C  17,C  18,H  66)          108.1116         0.317872   
    198. A(C  17,C  18,C  32)          107.2596         0.352609   
    199. A(C  17,C  18,C  19)          110.0309         0.359588   
    200. A(C  19,C  18,C  32)          115.5976         0.359832   
    201. A(C  32,C  18,H  66)          105.2890         0.318079   
    202. A(C  18,C  19,N  20)          115.9947         0.397861   
    203. A(N  20,C  19,O  31)          121.9430         0.465166   
    204. A(C  18,C  19,O  31)          122.0580         0.427584   
    205. A(C  19,N  20,H  67)          117.0169         0.358526   
    206. A(C  19,N  20,C  21)          123.2065         0.404424   
    207. A(C  21,N  20,H  67)          117.9613         0.336754   
    208. A(C  27,C  21,H  68)          110.9932         0.320942   
    209. A(C  22,C  21,H  68)          105.5598         0.320380   
    210. A(N  20,C  21,H  68)          107.7357         0.329408   
    211. A(N  20,C  21,C  22)          114.0235         0.368056   
    212. A(C  22,C  21,C  27)          110.6871         0.358229   
    213. A(N  20,C  21,C  27)          107.8222         0.368734   
    214. A(C  21,C  22,N  23)          115.4427         0.391285   
    215. A(C  21,C  22,O  26)          120.3836         0.425473   
    216. A(N  23,C  22,O  26)          124.0407         0.467702   
    217. A(C  22,N  23,C  24)          121.8548         0.402613   
    218. A(C  24,N  23,H  69)          117.0624         0.334422   
    219. A(C  22,N  23,H  69)          120.2271         0.355246   
    220. A(C  25,C  24,H  70)          109.6135         0.323004   
    221. A(N  23,C  24,H  70)          105.2343         0.328512   
    222. A(C   7,C  24,H  70)          109.7247         0.320372   
    223. A(N  23,C  24,C  25)          111.8972         0.371437   
    224. A(C   7,C  24,N  23)          109.3389         0.368260   
    225. A(C   7,C  24,C  25)          110.8733         0.361839   
    226. A(H  71,C  25,H  73)          109.8074         0.288367   
    227. A(C  24,C  25,H  73)          110.6535         0.323596   
    228. A(H  71,C  25,H  72)          108.9387         0.288215   
    229. A(C  24,C  25,H  72)          110.6575         0.323417   
    230. A(C  24,C  25,H  71)          109.3194         0.323505   
    231. A(H  72,C  25,H  73)          107.4296         0.288293   
    232. A(C  28,C  27,H  75)          108.8828         0.320579   
    233. A(C  21,C  27,C  28)          116.5406         0.359960   
    234. A(H  74,C  27,H  75)          106.5840         0.285990   
    235. A(C  21,C  27,H  75)          107.3284         0.319659   
    236. A(C  28,C  27,H  74)          109.0427         0.320408   
    237. A(C  21,C  27,H  74)          108.0203         0.319488   
    238. A(C  29,C  28,C  30)          111.3563         0.362455   
    239. A(C  27,C  28,C  30)          109.3690         0.361589   
    240. A(C  27,C  28,C  29)          111.8740         0.361905   
    241. A(C  30,C  28,H  76)          108.3919         0.321463   
    242. A(C  29,C  28,H  76)          107.4959         0.321732   
    243. A(C  27,C  28,H  76)          108.2276         0.320995   
    244. A(C  28,C  29,H  79)          110.7234         0.322254   
    245. A(H  78,C  29,H  79)          107.6545         0.287263   
    246. A(H  77,C  29,H  79)          107.5326         0.288015   
    247. A(H  77,C  29,H  78)          108.6919         0.287544   
    248. A(C  28,C  29,H  78)          110.8267         0.321702   
    249. A(C  28,C  29,H  77)          111.2743         0.322585   
    250. A(H  81,C  30,H  82)          107.6323         0.287363   
    251. A(H  80,C  30,H  82)          107.7197         0.287160   
    252. A(C  28,C  30,H  82)          110.9466         0.321521   
    253. A(H  80,C  30,H  81)          107.8945         0.287579   
    254. A(C  28,C  30,H  81)          110.9415         0.322013   
    255. A(C  28,C  30,H  80)          111.5395         0.321775   
    256. A(C  33,C  32,O  42)          123.1215         0.439945   
    257. A(C  18,C  32,O  42)          117.5056         0.426058   
    258. A(C  18,C  32,C  33)          119.3451         0.363717   
    259. A(C  32,C  33,C  34)          109.9775         0.364607   
    260. A(C  34,C  33,H  84)          110.0141         0.318930   
    261. A(H  83,C  33,H  84)          109.1404         0.288117   
    262. A(C  32,C  33,H  84)          109.5044         0.327630   
    263. A(C  34,C  33,H  83)          109.7339         0.318970   
    264. A(C  32,C  33,H  83)          108.4428         0.327672   
    265. A(C  33,C  34,C  35)          112.5991         0.358152   
    266. A(H  85,C  34,H  86)          106.4681         0.287085   
    267. A(C  35,C  34,H  86)          110.9024         0.321711   
    268. A(C  33,C  34,H  86)          108.1082         0.318604   
    269. A(C  35,C  34,H  85)          108.6000         0.321205   
    270. A(C  33,C  34,H  85)          109.9846         0.318104   
    271. A(C  34,C  35,C  36)          113.1747         0.362355   
    272. A(H  87,C  35,H  88)          106.1246         0.286451   
    273. A(C  36,C  35,H  88)          109.7525         0.321466   
    274. A(C  34,C  35,H  88)          109.4370         0.320990   
    275. A(C  36,C  35,H  87)          109.0984         0.321658   
    276. A(C  34,C  35,H  87)          109.0071         0.321181   
    277. A(C  35,C  36,C  37)          113.8145         0.363342   
    278. A(H  89,C  36,H  90)          105.7018         0.286309   
    279. A(C  37,C  36,H  90)          109.1283         0.321639   
    280. A(C  35,C  36,H  90)          108.6745         0.321278   
    281. A(C  37,C  36,H  89)          109.0083         0.322040   
    282. A(C  35,C  36,H  89)          110.1920         0.321678   
    283. A(C  36,C  37,C  38)          113.0042         0.363543   
    284. A(H  91,C  37,H  92)          105.9471         0.286081   
    285. A(C  38,C  37,H  92)          109.3968         0.321540   
    286. A(C  36,C  37,H  92)          109.2311         0.321730   
    287. A(C  38,C  37,H  91)          109.4681         0.321489   
    288. A(C  36,C  37,H  91)          109.5493         0.321680   
    289. A(C  37,C  38,C  39)          113.7074         0.363447   
    290. A(H  93,C  38,H  94)          105.8132         0.286336   
    291. A(C  39,C  38,H  94)          109.1276         0.321841   
    292. A(C  37,C  38,H  94)          109.2214         0.321731   
    293. A(C  39,C  38,H  93)          109.4507         0.321708   
    294. A(C  37,C  38,H  93)          109.2196         0.321598   
    295. A(C  38,C  39,C  40)          113.3762         0.363232   
    296. A(H  95,C  39,H  96)          105.8887         0.285985   
    297. A(C  40,C  39,H  96)          109.3087         0.321289   
    298. A(C  38,C  39,H  96)          109.4284         0.321581   
    299. A(C  40,C  39,H  95)          109.2350         0.321262   
    300. A(C  38,C  39,H  95)          109.3312         0.321553   
    301. A(C  39,C  40,C  41)          113.1513         0.363183   
    302. A(H  97,C  40,H  98)          105.8846         0.286441   
    303. A(C  41,C  40,H  98)          109.6768         0.321787   
    304. A(C  39,C  40,H  98)          109.0750         0.321537   
    305. A(C  41,C  40,H  97)          109.6781         0.321802   
    306. A(C  39,C  40,H  97)          109.1147         0.321552   
    307. A(H 100,C  41,H 101)          107.4397         0.287247   
    308. A(H  99,C  41,H 101)          107.6894         0.287467   
    309. A(C  40,C  41,H 101)          111.1020         0.322263   
    310. A(H  99,C  41,H 100)          107.6787         0.287477   
    311. A(C  40,C  41,H 100)          111.1018         0.322275   
    312. A(C  40,C  41,H  99)          111.6368         0.322534   
    313. A(C  17,O  43,H 102)          105.1079         0.350902   
    314. A(C  13,C  45,C  46)          114.5693         0.359638   
    315. A(C  46,C  45,H 104)          110.3309         0.323015   
    316. A(C  13,C  45,H 104)          105.6351         0.318906   
    317. A(C  46,C  45,H 103)          110.7231         0.322578   
    318. A(C  13,C  45,H 103)          107.9761         0.318477   
    319. A(H 103,C  45,H 104)          107.2402         0.287424   
    320. A(H 106,C  46,H 107)          108.4251         0.287379   
    321. A(H 105,C  46,H 107)          107.1552         0.287589   
    322. A(C  45,C  46,H 107)          111.2226         0.322557   
    323. A(H 105,C  46,H 106)          106.9885         0.287952   
    324. A(C  45,C  46,H 106)          112.3834         0.322984   
    325. A(C  45,C  46,H 105)          110.4352         0.323231   
    326. A(C  50,C  48,H 108)          108.7340         0.322437   
    327. A(C  49,C  48,H 108)          107.4676         0.322310   
    328. A(C  10,C  48,H 108)          104.4986         0.316827   
    329. A(C  49,C  48,C  50)          111.4213         0.362664   
    330. A(C  10,C  48,C  50)          110.5098         0.356233   
    331. A(C  10,C  48,C  49)          113.8202         0.356087   
    332. A(H 110,C  49,H 111)          107.4277         0.287636   
    333. A(H 109,C  49,H 111)          107.5194         0.287732   
    334. A(C  48,C  49,H 111)          109.6943         0.322205   
    335. A(H 109,C  49,H 110)          108.4211         0.287533   
    336. A(C  48,C  49,H 110)          111.9043         0.321971   
    337. A(C  48,C  49,H 109)          111.6864         0.322084   
    338. A(H 113,C  50,H 114)          107.8760         0.287611   
    339. A(H 112,C  50,H 114)          107.3651         0.287646   
    340. A(C  48,C  50,H 114)          111.6638         0.322093   
    341. A(H 112,C  50,H 113)          108.1288         0.287828   
    342. A(C  48,C  50,H 113)          110.0608         0.322306   
    343. A(C  48,C  50,H 112)          111.5903         0.322348   
    344. D(H  51,C   2,C   1,N   9)    -65.8156         0.008715   
    345. D(C   3,C   2,C   1,N   9)    169.7971         0.008715   
    346. D(N   6,C   2,C   1,N   9)     53.4723         0.008715   
    347. D(N   6,C   2,C   1,O   0)   -128.0604         0.008715   
    348. D(C   3,C   2,C   1,O   0)    -11.7356         0.008715   
    349. D(H  51,C   2,C   1,O   0)    112.6516         0.008715   
    350. D(C   4,C   3,C   2,N   6)     33.7188         0.011248   
    351. D(H  53,C   3,C   2,H  51)    -89.0732         0.011248   
    352. D(H  53,C   3,C   2,C   1)     31.6024         0.011248   
    353. D(C   4,C   3,C   2,H  51)    149.9172         0.011248   
    354. D(H  53,C   3,C   2,N   6)    154.7284         0.011248   
    355. D(H  52,C   3,C   2,H  51)     31.9079         0.011248   
    356. D(C   4,C   3,C   2,C   1)    -89.4072         0.011248   
    357. D(H  52,C   3,C   2,C   1)    152.5835         0.011248   
    358. D(H  52,C   3,C   2,N   6)    -84.2905         0.011248   
    359. D(H  55,C   4,C   3,H  53)     79.3179         0.010796   
    360. D(H  55,C   4,C   3,H  52)    -43.9194         0.010796   
    361. D(H  54,C   4,C   3,H  52)   -164.7570         0.010796   
    362. D(H  55,C   4,C   3,C   2)   -161.2258         0.010796   
    363. D(H  54,C   4,C   3,H  53)    -41.5197         0.010796   
    364. D(C   5,C   4,C   3,C   2)    -39.6740         0.010796   
    365. D(H  54,C   4,C   3,C   2)     77.9366         0.010796   
    366. D(C   5,C   4,C   3,H  53)   -159.1303         0.010796   
    367. D(C   5,C   4,C   3,H  52)     77.6324         0.010796   
    368. D(N   6,C   5,C   4,C   3)     29.7018         0.011024   
    369. D(H  57,C   5,C   4,C   3)    -89.0053         0.011024   
    370. D(H  56,C   5,C   4,H  55)    -87.9821         0.011024   
    371. D(H  56,C   5,C   4,C   3)    149.4313         0.011024   
    372. D(H  57,C   5,C   4,H  54)    154.0516         0.011024   
    373. D(H  56,C   5,C   4,H  54)     32.4883         0.011024   
    374. D(H  57,C   5,C   4,H  55)     33.5813         0.011024   
    375. D(N   6,C   5,C   4,H  54)    -87.2413         0.011024   
    376. D(N   6,C   5,C   4,H  55)    152.2884         0.011024   
    377. D(C   5,N   6,C   2,C   3)    -15.8094         0.013623   
    378. D(C   7,N   6,C   5,H  57)    -58.7317         0.014069   
    379. D(C   7,N   6,C   5,H  56)     60.2213         0.014069   
    380. D(C   7,N   6,C   5,C   4)   -178.2000         0.014069   
    381. D(C   2,N   6,C   5,H  57)    110.7227         0.014069   
    382. D(C   2,N   6,C   5,H  56)   -130.3243         0.014069   
    383. D(C   7,N   6,C   2,H  51)     34.0535         0.013623   
    384. D(C   2,N   6,C   5,C   4)     -8.7455         0.014069   
    385. D(C   7,N   6,C   2,C   3)    154.1286         0.013623   
    386. D(C   5,N   6,C   2,C   1)    105.3582         0.013623   
    387. D(C   7,N   6,C   2,C   1)    -84.7037         0.013623   
    388. D(C   5,N   6,C   2,H  51)   -135.8845         0.013623   
    389. D(C  24,C   7,N   6,C   5)      2.5272         0.032926   
    390. D(C  24,C   7,N   6,C   2)   -165.9464         0.032926   
    391. D(O   8,C   7,N   6,C   5)   -177.9254         0.032926   
    392. D(O   8,C   7,N   6,C   2)     13.6010         0.032926   
    393. D(H  58,N   9,C   1,O   0)   -170.5399         0.032250   
    394. D(C  10,N   9,C   1,C   2)    174.2488         0.032250   
    395. D(H  58,N   9,C   1,C   2)      7.8605         0.032250   
    396. D(C  10,N   9,C   1,O   0)     -4.1517         0.032250   
    397. D(H  59,C  10,N   9,C   1)    -66.8632         0.015300   
    398. D(C  48,C  10,N   9,H  58)   -140.9657         0.015300   
    399. D(C  48,C  10,N   9,C   1)     53.1755         0.015300   
    400. D(C  11,C  10,N   9,C   1)    177.7489         0.015300   
    401. D(H  59,C  10,N   9,H  58)     98.9956         0.015300   
    402. D(C  11,C  10,N   9,H  58)    -16.3923         0.015300   
    403. D(O  47,C  11,C  10,N   9)    136.5737         0.009967   
    404. D(N  12,C  11,C  10,H  59)   -163.2790         0.009967   
    405. D(N  12,C  11,C  10,C  48)     80.5309         0.009967   
    406. D(N  12,C  11,C  10,N   9)    -45.1150         0.009967   
    407. D(O  47,C  11,C  10,H  59)     18.4096         0.009967   
    408. D(O  47,C  11,C  10,C  48)    -97.7805         0.009967   
    409. D(H  60,N  12,C  11,O  47)    178.2219         0.031905   
    410. D(H  60,N  12,C  11,C  10)     -0.0797         0.031905   
    411. D(C  13,N  12,C  11,O  47)     -0.3209         0.031905   
    412. D(C  13,N  12,C  11,C  10)   -178.6226         0.031905   
    413. D(H  61,C  13,N  12,C  11)    -43.8831         0.017613   
    414. D(H  61,C  13,N  12,H  60)    137.5028         0.017613   
    415. D(C  45,C  13,N  12,H  60)   -102.0771         0.017613   
    416. D(C  45,C  13,N  12,C  11)     76.5369         0.017613   
    417. D(C  14,C  13,N  12,C  11)   -162.9636         0.017613   
    418. D(C  14,C  13,N  12,H  60)     18.4224         0.017613   
    419. D(O  44,C  14,C  13,C  45)     89.9671         0.010649   
    420. D(O  44,C  14,C  13,N  12)    -30.8868         0.010649   
    421. D(N  15,C  14,C  13,H  61)     32.7685         0.010649   
    422. D(N  15,C  14,C  13,C  45)    -88.5505         0.010649   
    423. D(O  44,C  14,C  13,H  61)   -148.7140         0.010649   
    424. D(N  15,C  14,C  13,N  12)    150.5957         0.010649   
    425. D(H  62,N  15,C  14,O  44)   -179.2403         0.035741   
    426. D(H  62,N  15,C  14,C  13)     -0.7772         0.035741   
    427. D(C  16,N  15,C  14,O  44)      0.3794         0.035741   
    428. D(C  16,N  15,C  14,C  13)    178.8424         0.035741   
    429. D(H  64,C  16,N  15,H  62)   -144.4118         0.015733   
    430. D(H  64,C  16,N  15,C  14)     35.9715         0.015733   
    431. D(H  63,C  16,N  15,H  62)    -27.7307         0.015733   
    432. D(H  63,C  16,N  15,C  14)    152.6526         0.015733   
    433. D(C  17,C  16,N  15,C  14)    -87.8005         0.015733   
    434. D(C  17,C  16,N  15,H  62)     91.8162         0.015733   
    435. D(H  65,C  17,C  16,H  64)   -170.2101         0.010071   
    436. D(H  65,C  17,C  16,H  63)     72.5568         0.010071   
    437. D(H  65,C  17,C  16,N  15)    -47.3575         0.010071   
    438. D(O  43,C  17,C  16,H  64)     72.3907         0.010071   
    439. D(O  43,C  17,C  16,H  63)    -44.8424         0.010071   
    440. D(O  43,C  17,C  16,N  15)   -164.7567         0.010071   
    441. D(C  18,C  17,C  16,H  64)    -52.2415         0.010071   
    442. D(C  18,C  17,C  16,H  63)   -169.4746         0.010071   
    443. D(C  18,C  17,C  16,N  15)     70.6111         0.010071   
    444. D(H  66,C  18,C  17,H  65)     63.7903         0.009427   
    445. D(H  66,C  18,C  17,O  43)   -179.0475         0.009427   
    446. D(H  66,C  18,C  17,C  16)    -55.3550         0.009427   
    447. D(C  32,C  18,C  17,O  43)     67.8651         0.009427   
    448. D(C  32,C  18,C  17,C  16)   -168.4424         0.009427   
    449. D(C  32,C  18,C  17,H  65)    -49.2971         0.009427   
    450. D(C  19,C  18,C  17,H  65)   -175.7970         0.009427   
    451. D(C  19,C  18,C  17,O  43)    -58.6348         0.009427   
    452. D(C  19,C  18,C  17,C  16)     65.0577         0.009427   
    453. D(O  31,C  19,C  18,H  66)    163.2052         0.011024   
    454. D(O  31,C  19,C  18,C  32)    -77.5862         0.011024   
    455. D(O  31,C  19,C  18,C  17)     44.0708         0.011024   
    456. D(N  20,C  19,C  18,H  66)    -17.5334         0.011024   
    457. D(N  20,C  19,C  18,C  17)   -136.6678         0.011024   
    458. D(N  20,C  19,C  18,C  32)    101.6753         0.011024   
    459. D(H  67,N  20,C  19,O  31)   -168.4215         0.032795   
    460. D(H  67,N  20,C  19,C  18)     12.3162         0.032795   
    461. D(C  21,N  20,C  19,O  31)     -4.1031         0.032795   
    462. D(C  21,N  20,C  19,C  18)    176.6345         0.032795   
    463. D(H  68,C  21,N  20,H  67)   -153.7634         0.016342   
    464. D(H  68,C  21,N  20,C  19)     42.0568         0.016342   
    465. D(C  27,C  21,N  20,H  67)    -33.9011         0.016342   
    466. D(C  27,C  21,N  20,C  19)    161.9191         0.016342   
    467. D(C  22,C  21,N  20,H  67)     89.4356         0.016342   
    468. D(C  22,C  21,N  20,C  19)    -74.7442         0.016342   
    469. D(N  23,C  22,C  21,C  27)     93.8159         0.009569   
    470. D(N  23,C  22,C  21,N  20)    -27.9530         0.009569   
    471. D(O  26,C  22,C  21,H  68)     38.0189         0.009569   
    472. D(O  26,C  22,C  21,C  27)    -82.1574         0.009569   
    473. D(O  26,C  22,C  21,N  20)    156.0737         0.009569   
    474. D(N  23,C  22,C  21,H  68)   -146.0078         0.009569   
    475. D(H  69,N  23,C  22,O  26)   -174.0050         0.031483   
    476. D(H  69,N  23,C  22,C  21)     10.1873         0.031483   
    477. D(C  24,N  23,C  22,O  26)     -4.9088         0.031483   
    478. D(C  24,N  23,C  22,C  21)    179.2835         0.031483   
    479. D(H  70,C  24,N  23,H  69)   -176.2563         0.016128   
    480. D(H  70,C  24,N  23,C  22)     14.3196         0.016128   
    481. D(C  25,C  24,N  23,H  69)     64.7697         0.016128   
    482. D(C  25,C  24,N  23,C  22)   -104.6545         0.016128   
    483. D(C   7,C  24,N  23,H  69)    -58.4626         0.016128   
    484. D(C   7,C  24,N  23,C  22)    132.1132         0.016128   
    485. D(H  70,C  24,C   7,O   8)   -141.5799         0.009742   
    486. D(H  70,C  24,C   7,N   6)     37.9712         0.009742   
    487. D(C  25,C  24,C   7,O   8)    -20.3572         0.009742   
    488. D(C  25,C  24,C   7,N   6)    159.1939         0.009742   
    489. D(N  23,C  24,C   7,O   8)    103.4800         0.009742   
    490. D(N  23,C  24,C   7,N   6)    -76.9688         0.009742   
    491. D(H  73,C  25,C  24,H  70)    177.8918         0.011416   
    492. D(H  73,C  25,C  24,N  23)    -65.7570         0.011416   
    493. D(H  73,C  25,C  24,C   7)     56.6036         0.011416   
    494. D(H  72,C  25,C  24,H  70)     58.9306         0.011416   
    495. D(H  72,C  25,C  24,N  23)    175.2819         0.011416   
    496. D(H  72,C  25,C  24,C   7)    -62.3575         0.011416   
    497. D(H  71,C  25,C  24,H  70)    -61.0514         0.011416   
    498. D(H  71,C  25,C  24,N  23)     55.2999         0.011416   
    499. D(H  71,C  25,C  24,C   7)    177.6604         0.011416   
    500. D(H  75,C  27,C  21,H  68)     61.7617         0.010412   
    501. D(H  75,C  27,C  21,C  22)    178.6349         0.010412   
    502. D(H  75,C  27,C  21,N  20)    -56.0196         0.010412   
    503. D(H  74,C  27,C  21,H  68)    176.3386         0.010412   
    504. D(H  74,C  27,C  21,C  22)    -66.7881         0.010412   
    505. D(H  74,C  27,C  21,N  20)     58.5573         0.010412   
    506. D(C  28,C  27,C  21,H  68)    -60.5682         0.010412   
    507. D(C  28,C  27,C  21,C  22)     56.3050         0.010412   
    508. D(C  28,C  27,C  21,N  20)   -178.3495         0.010412   
    509. D(H  76,C  28,C  27,H  75)   -179.3413         0.010759   
    510. D(H  76,C  28,C  27,H  74)     64.7347         0.010759   
    511. D(H  76,C  28,C  27,C  21)    -57.8272         0.010759   
    512. D(C  30,C  28,C  27,H  75)     62.7618         0.010759   
    513. D(C  30,C  28,C  27,H  74)    -53.1622         0.010759   
    514. D(C  30,C  28,C  27,C  21)   -175.7241         0.010759   
    515. D(C  29,C  28,C  27,H  75)    -61.0935         0.010759   
    516. D(C  29,C  28,C  27,H  74)   -177.0175         0.010759   
    517. D(C  29,C  28,C  27,C  21)     60.4206         0.010759   
    518. D(H  79,C  29,C  28,C  30)     53.5596         0.011046   
    519. D(H  79,C  29,C  28,C  27)    176.2916         0.011046   
    520. D(H  78,C  29,C  28,H  76)    175.5784         0.011046   
    521. D(H  78,C  29,C  28,C  30)    -65.8364         0.011046   
    522. D(H  78,C  29,C  28,C  27)     56.8956         0.011046   
    523. D(H  77,C  29,C  28,H  76)     54.5092         0.011046   
    524. D(H  77,C  29,C  28,C  30)    173.0945         0.011046   
    525. D(H  79,C  29,C  28,H  76)    -65.0257         0.011046   
    526. D(H  77,C  29,C  28,C  27)    -64.1735         0.011046   
    527. D(H  82,C  30,C  28,H  76)    179.5016         0.010940   
    528. D(H  82,C  30,C  28,C  29)     61.4549         0.010940   
    529. D(H  82,C  30,C  28,C  27)    -62.7044         0.010940   
    530. D(H  81,C  30,C  28,H  76)     59.9127         0.010940   
    531. D(H  81,C  30,C  28,C  29)    -58.1339         0.010940   
    532. D(H  81,C  30,C  28,C  27)    177.7067         0.010940   
    533. D(H  80,C  30,C  28,H  76)    -60.4020         0.010940   
    534. D(H  80,C  30,C  28,C  29)   -178.4486         0.010940   
    535. D(H  80,C  30,C  28,C  27)     57.3920         0.010940   
    536. D(O  42,C  32,C  18,H  66)    -46.8330         0.008910   
    537. D(O  42,C  32,C  18,C  19)   -168.7156         0.008910   
    538. D(O  42,C  32,C  18,C  17)     68.1534         0.008910   
    539. D(C  33,C  32,C  18,H  66)    131.3080         0.008910   
    540. D(C  33,C  32,C  18,C  19)      9.4254         0.008910   
    541. D(C  33,C  32,C  18,C  17)   -113.7056         0.008910   
    542. D(H  84,C  33,C  32,O  42)   -146.8531         0.012428   
    543. D(H  84,C  33,C  32,C  18)     35.1157         0.012428   
    544. D(H  83,C  33,C  32,O  42)    -27.8538         0.012428   
    545. D(H  83,C  33,C  32,C  18)    154.1151         0.012428   
    546. D(C  34,C  33,C  32,O  42)     92.1431         0.012428   
    547. D(C  34,C  33,C  32,C  18)    -85.8881         0.012428   
    548. D(H  86,C  34,C  33,H  84)    166.3311         0.009747   
    549. D(H  86,C  34,C  33,H  83)     46.2389         0.009747   
    550. D(H  86,C  34,C  33,C  32)    -72.9715         0.009747   
    551. D(H  85,C  34,C  33,H  84)    -77.8018         0.009747   
    552. D(H  85,C  34,C  33,H  83)    162.1060         0.009747   
    553. D(H  85,C  34,C  33,C  32)     42.8956         0.009747   
    554. D(C  35,C  34,C  33,H  84)     43.4632         0.009747   
    555. D(C  35,C  34,C  33,H  83)    -76.6290         0.009747   
    556. D(C  35,C  34,C  33,C  32)    164.1606         0.009747   
    557. D(H  88,C  35,C  34,H  86)    -72.8352         0.010883   
    558. D(H  88,C  35,C  34,H  85)    170.5044         0.010883   
    559. D(H  88,C  35,C  34,C  33)     48.4533         0.010883   
    560. D(H  87,C  35,C  34,H  86)     42.8262         0.010883   
    561. D(H  87,C  35,C  34,H  85)    -73.8343         0.010883   
    562. D(H  87,C  35,C  34,C  33)    164.1147         0.010883   
    563. D(C  36,C  35,C  34,H  86)    164.4198         0.010883   
    564. D(C  36,C  35,C  34,H  85)     47.7594         0.010883   
    565. D(C  36,C  35,C  34,C  33)    -74.2917         0.010883   
    566. D(H  90,C  36,C  35,H  87)     59.2495         0.011070   
    567. D(H  90,C  36,C  35,C  34)    -62.2929         0.011070   
    568. D(H  89,C  36,C  35,H  88)    -69.4789         0.011070   
    569. D(H  89,C  36,C  35,H  87)    174.6332         0.011070   
    570. D(H  89,C  36,C  35,C  34)     53.0908         0.011070   
    571. D(C  37,C  36,C  35,H  88)     53.3170         0.011070   
    572. D(C  37,C  36,C  35,H  87)    -62.5710         0.011070   
    573. D(H  90,C  36,C  35,H  88)    175.1374         0.011070   
    574. D(C  37,C  36,C  35,C  34)    175.8867         0.011070   
    575. D(H  92,C  37,C  36,H  90)   -179.0544         0.011214   
    576. D(H  92,C  37,C  36,H  89)     65.9563         0.011214   
    577. D(H  92,C  37,C  36,C  35)    -57.4857         0.011214   
    578. D(H  91,C  37,C  36,H  90)    -63.4180         0.011214   
    579. D(H  91,C  37,C  36,H  89)   -178.4073         0.011214   
    580. D(H  91,C  37,C  36,C  35)     58.1507         0.011214   
    581. D(C  38,C  37,C  36,H  90)     58.9246         0.011214   
    582. D(C  38,C  37,C  36,H  89)    -56.0647         0.011214   
    583. D(C  38,C  37,C  36,C  35)   -179.5067         0.011214   
    584. D(H  94,C  38,C  37,H  92)   -179.4792         0.011138   
    585. D(H  94,C  38,C  37,H  91)     64.8367         0.011138   
    586. D(H  94,C  38,C  37,C  36)    -57.5513         0.011138   
    587. D(H  93,C  38,C  37,H  92)    -64.1910         0.011138   
    588. D(H  93,C  38,C  37,H  91)   -179.8750         0.011138   
    589. D(H  93,C  38,C  37,C  36)     57.7370         0.011138   
    590. D(C  39,C  38,C  37,H  92)     58.3730         0.011138   
    591. D(C  39,C  38,C  37,H  91)    -57.3111         0.011138   
    592. D(C  39,C  38,C  37,C  36)   -179.6990         0.011138   
    593. D(H  95,C  39,C  38,H  94)    -64.9336         0.011182   
    594. D(H  95,C  39,C  38,H  93)    179.7028         0.011182   
    595. D(H  95,C  39,C  38,C  37)     57.2660         0.011182   
    596. D(C  40,C  39,C  38,H  94)     57.2058         0.011182   
    597. D(C  40,C  39,C  38,H  93)    -58.1579         0.011182   
    598. D(C  40,C  39,C  38,C  37)    179.4054         0.011182   
    599. D(H  96,C  39,C  38,H  94)    179.5113         0.011182   
    600. D(H  96,C  39,C  38,H  93)     64.1477         0.011182   
    601. D(H  96,C  39,C  38,C  37)    -58.2891         0.011182   
    602. D(H  98,C  40,C  39,H  95)     64.7151         0.011066   
    603. D(H  98,C  40,C  39,C  38)    -57.4778         0.011066   
    604. D(H  97,C  40,C  39,H  96)    -64.6142         0.011066   
    605. D(H  97,C  40,C  39,H  95)    179.9507         0.011066   
    606. D(H  97,C  40,C  39,C  38)     57.7578         0.011066   
    607. D(C  41,C  40,C  39,H  96)     57.7833         0.011066   
    608. D(C  41,C  40,C  39,H  95)    -57.6519         0.011066   
    609. D(H  98,C  40,C  39,H  96)   -179.8498         0.011066   
    610. D(C  41,C  40,C  39,C  38)   -179.8447         0.011066   
    611. D(H 101,C  41,C  40,H  98)    -62.2967         0.011165   
    612. D(H 101,C  41,C  40,H  97)   -178.1830         0.011165   
    613. D(H 101,C  41,C  40,C  39)     59.7342         0.011165   
    614. D(H 100,C  41,C  40,H  98)    178.1485         0.011165   
    615. D(H 100,C  41,C  40,H  97)     62.2622         0.011165   
    616. D(H 100,C  41,C  40,C  39)    -59.8207         0.011165   
    617. D(H  99,C  41,C  40,H  98)     57.9328         0.011165   
    618. D(H  99,C  41,C  40,H  97)    -57.9535         0.011165   
    619. D(H  99,C  41,C  40,C  39)    179.9636         0.011165   
    620. D(H 102,O  43,C  17,H  65)    158.7080         0.020644   
    621. D(H 102,O  43,C  17,C  18)     42.0715         0.020644   
    622. D(H 102,O  43,C  17,C  16)    -83.1826         0.020644   
    623. D(H 104,C  45,C  13,H  61)     65.3589         0.009796   
    624. D(H 104,C  45,C  13,C  14)   -172.0351         0.009796   
    625. D(H 104,C  45,C  13,N  12)    -55.2712         0.009796   
    626. D(H 103,C  45,C  13,H  61)    179.8384         0.009796   
    627. D(H 103,C  45,C  13,C  14)    -57.5557         0.009796   
    628. D(H 103,C  45,C  13,N  12)     59.2082         0.009796   
    629. D(C  46,C  45,C  13,H  61)    -56.2864         0.009796   
    630. D(C  46,C  45,C  13,C  14)     66.3195         0.009796   
    631. D(C  46,C  45,C  13,N  12)   -176.9166         0.009796   
    632. D(H 107,C  46,C  45,H 104)    -64.3429         0.011335   
    633. D(H 107,C  46,C  45,H 103)    177.0948         0.011335   
    634. D(H 107,C  46,C  45,C  13)     54.6976         0.011335   
    635. D(H 106,C  46,C  45,H 104)    173.8803         0.011335   
    636. D(H 106,C  46,C  45,H 103)     55.3181         0.011335   
    637. D(H 106,C  46,C  45,C  13)    -67.0792         0.011335   
    638. D(H 105,C  46,C  45,H 104)     54.4967         0.011335   
    639. D(H 105,C  46,C  45,H 103)    -64.0656         0.011335   
    640. D(H 105,C  46,C  45,C  13)    173.5372         0.011335   
    641. D(H 108,C  48,C  10,H  59)     55.2867         0.009065   
    642. D(H 108,C  48,C  10,C  11)    170.4366         0.009065   
    643. D(H 108,C  48,C  10,N   9)    -66.2641         0.009065   
    644. D(C  50,C  48,C  10,H  59)    -61.5163         0.009065   
    645. D(C  50,C  48,C  10,C  11)     53.6336         0.009065   
    646. D(C  50,C  48,C  10,N   9)    176.9329         0.009065   
    647. D(C  49,C  48,C  10,H  59)    172.2276         0.009065   
    648. D(C  49,C  48,C  10,C  11)    -72.6226         0.009065   
    649. D(C  49,C  48,C  10,N   9)     50.6767         0.009065   
    650. D(H 111,C  49,C  48,C  50)     64.6046         0.011003   
    651. D(H 111,C  49,C  48,C  10)   -169.6197         0.011003   
    652. D(H 110,C  49,C  48,H 108)   -173.5466         0.011003   
    653. D(H 110,C  49,C  48,C  50)    -54.5248         0.011003   
    654. D(H 110,C  49,C  48,C  10)     71.2509         0.011003   
    655. D(H 109,C  49,C  48,H 108)     64.6890         0.011003   
    656. D(H 109,C  49,C  48,C  50)   -176.2892         0.011003   
    657. D(H 111,C  49,C  48,H 108)    -54.4172         0.011003   
    658. D(H 109,C  49,C  48,C  10)    -50.5135         0.011003   
    659. D(H 114,C  50,C  48,H 108)    177.5404         0.011053   
    660. D(H 114,C  50,C  48,C  49)     59.2764         0.011053   
    661. D(H 114,C  50,C  48,C  10)    -68.3101         0.011053   
    662. D(H 113,C  50,C  48,H 108)     57.7603         0.011053   
    663. D(H 113,C  50,C  48,C  49)    -60.5036         0.011053   
    664. D(H 113,C  50,C  48,C  10)    171.9098         0.011053   
    665. D(H 112,C  50,C  48,H 108)    -62.2897         0.011053   
    666. D(H 112,C  50,C  48,C  49)    179.4463         0.011053   
    667. D(H 112,C  50,C  48,C  10)     51.8598         0.011053   
    -----------------------------------------------------------------

Number of atoms                         .... 115
Number of degrees of freedom            .... 667

         *************************************************************
         *                GEOMETRY OPTIMIZATION CYCLE   1            *
         *************************************************************
---------------------------------
CARTESIAN COORDINATES (ANGSTROEM)
---------------------------------
  O      4.691886   -1.150630    4.449084
  C      4.633016   -0.473624    3.422337
  C      4.309706    1.048558    3.468694
  C      3.811889    1.473967    4.849996
  C      2.294785    1.268353    4.744747
  C      1.967468    1.751484    3.328725
  N      3.205324    1.467601    2.574032
  C      3.417628    1.754427    1.266846
  O      4.478729    1.448416    0.689956
  N      4.865671   -0.933879    2.166472
  C      5.308965   -2.293798    1.846089
  C      5.405197   -2.443235    0.319647
  N      4.335220   -1.929717   -0.342387
  C      4.159011   -1.963762   -1.777941
  C      3.081407   -0.920751   -2.065761
  N      3.112253   -0.294797   -3.255538
  C      2.135521    0.706349   -3.681062
  C      0.884709    0.122396   -4.374423
  C     -0.042968   -0.638088   -3.385612
  C     -0.620201    0.330133   -2.362878
  N     -0.633275   -0.101100   -1.077848
  C     -1.083637    0.723130    0.035771
  C     -0.081948    1.820977    0.449967
  N      1.226244    1.543596    0.198785
  C      2.289128    2.489523    0.519778
  C      2.826574    3.186696   -0.727368
  O     -0.472258    2.831237    1.036784
  C     -1.387307   -0.211519    1.221278
  C     -1.918680    0.452205    2.499402
  C     -3.240751    1.184956    2.254443
  C     -2.062173   -0.605344    3.599428
  O     -1.066968    1.445865   -2.687845
  C     -1.084636   -1.415656   -4.236263
  C     -2.536220   -1.025514   -4.162212
  C     -3.218690   -1.748224   -2.973452
  C     -4.566727   -1.121154   -2.598008
  C     -4.426064    0.214043   -1.862283
  C     -5.760344    0.900821   -1.568791
  C     -5.597643    2.238572   -0.844173
  C     -6.923407    2.936269   -0.536016
  C     -6.752489    4.266874    0.201742
  C     -8.081590    4.958335    0.510649
  O     -0.678453   -2.345528   -4.911809
  O      0.187547    1.152889   -5.048263
  O      2.199804   -0.703055   -1.212298
  C      3.723678   -3.367044   -2.268051
  C      3.590090   -3.497106   -3.784172
  O      6.346244   -3.003622   -0.241165
  C      4.401318   -3.399414    2.469590
  C      2.907825   -3.203690    2.190855
  C      4.873822   -4.789534    2.035050
  H      5.221054    1.579045    3.150727
  H      4.051514    2.533298    5.022625
  H      4.273178    0.863539    5.633632
  H      2.063112    0.198330    4.846998
  H      1.725336    1.814740    5.506462
  H      1.113906    1.229431    2.879009
  H      1.744967    2.830042    3.310805
  H      4.923368   -0.202904    1.439729
  H      6.330530   -2.455924    2.225093
  H      3.569169   -1.499024    0.173166
  H      5.110404   -1.695404   -2.266421
  H      3.860322   -0.541600   -3.896206
  H      2.625699    1.376347   -4.398479
  H      1.843664    1.305391   -2.808113
  H      1.209407   -0.609985   -5.131412
  H      0.554616   -1.410618   -2.882075
  H     -0.092677   -0.936103   -0.865141
  H     -1.987496    1.255721   -0.286585
  H      1.481484    0.731103   -0.374821
  H      1.824387    3.231354    1.186241
  H      1.996228    3.666163   -1.261656
  H      3.564852    3.952646   -0.455202
  H      3.327355    2.467370   -1.387356
  H     -0.464322   -0.769591    1.461766
  H     -2.124104   -0.956316    0.872536
  H     -1.181348    1.201065    2.831070
  H     -3.108950    2.021631    1.556319
  H     -3.999043    0.498479    1.843920
  H     -3.637190    1.596551    3.193561
  H     -1.107078   -1.114886    3.797051
  H     -2.403034   -0.150072    4.540029
  H     -2.799024   -1.373053    3.314012
  H     -3.022779   -1.317420   -5.102314
  H     -2.617562    0.062603   -4.037365
  H     -2.560624   -1.723028   -2.089123
  H     -3.340006   -2.808059   -3.241767
  H     -5.126157   -1.826693   -1.961417
  H     -5.173936   -0.982775   -3.509233
  H     -3.787665    0.902042   -2.440964
  H     -3.891975    0.039283   -0.911210
  H     -6.396332    0.229829   -0.964510
  H     -6.303266    1.060966   -2.516885
  H     -4.963400    2.906601   -1.452527
  H     -5.046803    2.076709    0.097889
  H     -7.558594    2.264087    0.068214
  H     -7.475277    3.108737   -1.477169
  H     -6.117244    4.936179   -0.402881
  H     -6.198647    4.090639    1.139528
  H     -7.930081    5.909720    1.040428
  H     -8.639546    5.175281   -0.413099
  H     -8.721916    4.322608    1.141255
  H     -0.374402    1.582796   -4.352498
  H      2.775001   -3.621881   -1.769936
  H      4.486729   -4.062455   -1.890864
  H      3.392554   -4.540470   -4.063522
  H      2.762032   -2.895095   -4.184624
  H      4.518621   -3.194567   -4.293677
  H      4.550442   -3.298863    3.553242
  H      2.577983   -2.184817    2.440476
  H      2.657328   -3.402081    1.138059
  H      2.321800   -3.901102    2.805697
  H      5.947170   -4.929422    2.224807
  H      4.324833   -5.564419    2.588485
  H      4.705503   -4.958371    0.960944

----------------------------
CARTESIAN COORDINATES (A.U.)
----------------------------
  NO LB      ZA    FRAG     MASS         X           Y           Z
   0 O     8.0000    0    15.999    8.866380   -2.174376    8.407550
   1 C     6.0000    0    12.011    8.755132   -0.895019    6.467279
   2 C     6.0000    0    12.011    8.144163    1.981487    6.554881
   3 C     6.0000    0    12.011    7.203426    2.785395    9.165163
   4 C     6.0000    0    12.011    4.336515    2.396840    8.966273
   5 C     6.0000    0    12.011    3.717975    3.309825    6.290379
   6 N     7.0000    0    14.007    6.057185    2.773365    4.864215
   7 C     6.0000    0    12.011    6.458382    3.315387    2.393991
   8 O     8.0000    0    15.999    8.463571    2.737109    1.303829
   9 N     7.0000    0    14.007    9.194786   -1.764776    4.094040
  10 C     6.0000    0    12.011   10.032490   -4.334650    3.488603
  11 C     6.0000    0    12.011   10.214341   -4.617045    0.604045
  12 N     7.0000    0    14.007    8.192379   -3.646638   -0.647017
  13 C     6.0000    0    12.011    7.859392   -3.710972   -3.359821
  14 C     6.0000    0    12.011    5.823015   -1.739967   -3.903723
  15 N     7.0000    0    14.007    5.881307   -0.557086   -6.152075
  16 C     6.0000    0    12.011    4.035550    1.334806   -6.956199
  17 C     6.0000    0    12.011    1.671858    0.231294   -8.266461
  18 C     6.0000    0    12.011   -0.081197   -1.205812   -6.397880
  19 C     6.0000    0    12.011   -1.172009    0.623860   -4.465193
  20 N     7.0000    0    14.007   -1.196716   -0.191051   -2.036838
  21 C     6.0000    0    12.011   -2.047776    1.366517    0.067597
  22 C     6.0000    0    12.011   -0.154859    3.441148    0.850314
  23 N     7.0000    0    14.007    2.317266    2.916973    0.375650
  24 C     6.0000    0    12.011    4.325825    4.704517    0.982239
  25 C     6.0000    0    12.011    5.341451    6.021982   -1.374527
  26 O     8.0000    0    15.999   -0.892438    5.350262    1.959237
  27 C     6.0000    0    12.011   -2.621631   -0.399712    2.307881
  28 C     6.0000    0    12.011   -3.625780    0.854544    4.723184
  29 C     6.0000    0    12.011   -6.124132    2.239242    4.260280
  30 C     6.0000    0    12.011   -3.896943   -1.143935    6.801933
  31 O     8.0000    0    15.999   -2.016278    2.732288   -5.079291
  32 C     6.0000    0    12.011   -2.049665   -2.675203   -8.005377
  33 C     6.0000    0    12.011   -4.792761   -1.937941   -7.865440
  34 C     6.0000    0    12.011   -6.082443   -3.303665   -5.619010
  35 C     6.0000    0    12.011   -8.629864   -2.118673   -4.909523
  36 C     6.0000    0    12.011   -8.364048    0.404482   -3.519205
  37 C     6.0000    0    12.011  -10.885473    1.702305   -2.964586
  38 C     6.0000    0    12.011  -10.578012    4.230287   -1.595255
  39 C     6.0000    0    12.011  -13.083343    5.548744   -1.012924
  40 C     6.0000    0    12.011  -12.760354    8.063223    0.381237
  41 C     6.0000    0    12.011  -15.271992    9.369895    0.964988
  42 O     8.0000    0    15.999   -1.282091   -4.432406   -9.281974
  43 O     8.0000    0    15.999    0.354413    2.178645   -9.539835
  44 O     8.0000    0    15.999    4.157028   -1.328581   -2.290912
  45 C     6.0000    0    12.011    7.036732   -6.362791   -4.285995
  46 C     6.0000    0    12.011    6.784287   -6.608573   -7.151049
  47 O     8.0000    0    15.999   11.992663   -5.676023   -0.455736
  48 C     6.0000    0    12.011    8.317285   -6.423961    4.666848
  49 C     6.0000    0    12.011    5.494993   -6.054097    4.140117
  50 C     6.0000    0    12.011    9.210188   -9.050908    3.845687
  51 H     1.0000    0     1.008    9.866363    2.983963    5.954011
  52 H     1.0000    0     1.008    7.656251    4.787239    9.491386
  53 H     1.0000    0     1.008    8.075137    1.631853   10.646021
  54 H     1.0000    0     1.008    3.898716    0.374790    9.159499
  55 H     1.0000    0     1.008    3.260412    3.429361   10.405705
  56 H     1.0000    0     1.008    2.104976    2.323288    5.440539
  57 H     1.0000    0     1.008    3.297509    5.348005    6.256514
  58 H     1.0000    0     1.008    9.303816   -0.383432    2.720693
  59 H     1.0000    0     1.008   11.962969   -4.641024    4.204816
  60 H     1.0000    0     1.008    6.744752   -2.832744    0.327236
  61 H     1.0000    0     1.008    9.657264   -3.203850   -4.282914
  62 H     1.0000    0     1.008    7.294950   -1.023475   -7.362762
  63 H     1.0000    0     1.008    4.961852    2.600918   -8.311920
  64 H     1.0000    0     1.008    3.484019    2.466831   -5.306565
  65 H     1.0000    0     1.008    2.285449   -1.152705   -9.696963
  66 H     1.0000    0     1.008    1.048073   -2.665683   -5.446333
  67 H     1.0000    0     1.008   -0.175133   -1.768979   -1.634879
  68 H     1.0000    0     1.008   -3.755823    2.372969   -0.541566
  69 H     1.0000    0     1.008    2.799599    1.381584   -0.708310
  70 H     1.0000    0     1.008    3.447591    6.106374    2.241670
  71 H     1.0000    0     1.008    3.772325    6.928044   -2.384184
  72 H     1.0000    0     1.008    6.736594    7.469418   -0.860208
  73 H     1.0000    0     1.008    6.287789    4.662654   -2.621722
  74 H     1.0000    0     1.008   -0.877441   -1.454316    2.762338
  75 H     1.0000    0     1.008   -4.013976   -1.807175    1.648854
  76 H     1.0000    0     1.008   -2.232423    2.269683    5.349947
  77 H     1.0000    0     1.008   -5.875064    3.820328    2.941017
  78 H     1.0000    0     1.008   -7.557096    0.941988    3.484504
  79 H     1.0000    0     1.008   -6.873293    3.017045    6.034955
  80 H     1.0000    0     1.008   -2.092075   -2.106829    7.175386
  81 H     1.0000    0     1.008   -4.541076   -0.283594    8.579412
  82 H     1.0000    0     1.008   -5.289390   -2.594693    6.262575
  83 H     1.0000    0     1.008   -5.712225   -2.489563   -9.641976
  84 H     1.0000    0     1.008   -4.946476    0.118302   -7.629514
  85 H     1.0000    0     1.008   -4.838879   -3.256051   -3.947870
  86 H     1.0000    0     1.008   -6.311697   -5.306463   -6.126052
  87 H     1.0000    0     1.008   -9.687033   -3.451950   -3.706542
  88 H     1.0000    0     1.008   -9.777321   -1.857175   -6.631489
  89 H     1.0000    0     1.008   -7.157649    1.704612   -4.612754
  90 H     1.0000    0     1.008   -7.354767    0.074234   -1.721937
  91 H     1.0000    0     1.008  -12.087316    0.434314   -1.822659
  92 H     1.0000    0     1.008  -11.911447    2.004935   -4.756223
  93 H     1.0000    0     1.008   -9.379466    5.492679   -2.744878
  94 H     1.0000    0     1.008   -9.537076    3.924412    0.184984
  95 H     1.0000    0     1.008  -14.283673    4.278505    0.128906
  96 H     1.0000    0     1.008  -14.126226    5.874662   -2.791444
  97 H     1.0000    0     1.008  -11.559916    9.328027   -0.761336
  98 H     1.0000    0     1.008  -11.713745    7.730188    2.153397
  99 H     1.0000    0     1.008  -14.985681   11.167753    1.966124
 100 H     1.0000    0     1.008  -16.326376    9.779864   -0.780643
 101 H     1.0000    0     1.008  -16.482032    8.168546    2.156660
 102 H     1.0000    0     1.008   -0.707517    2.991051   -8.225029
 103 H     1.0000    0     1.008    5.243991   -6.844364   -3.344693
 104 H     1.0000    0     1.008    8.478690   -7.676927   -3.573215
 105 H     1.0000    0     1.008    6.410997   -8.580245   -7.678944
 106 H     1.0000    0     1.008    5.219484   -5.470936   -7.907793
 107 H     1.0000    0     1.008    8.538956   -6.036858   -8.113873
 108 H     1.0000    0     1.008    8.599089   -6.233947    6.714654
 109 H     1.0000    0     1.008    4.871681   -4.128705    4.611832
 110 H     1.0000    0     1.008    5.021623   -6.429002    2.150620
 111 H     1.0000    0     1.008    4.387567   -7.372014    5.302000
 112 H     1.0000    0     1.008   11.238523   -9.315258    4.204277
 113 H     1.0000    0     1.008    8.172750  -10.515229    4.891528
 114 H     1.0000    0     1.008    8.892113   -9.369963    1.815920

--------------------------------
INTERNAL COORDINATES (ANGSTROEM)
--------------------------------
 O      0   0   0     0.000000000000     0.00000000     0.00000000
 C      1   0   0     1.231264988246     0.00000000     0.00000000
 C      2   1   0     1.556828436019   121.51410840     0.00000000
 C      3   2   1     1.528656213933   111.50809008   348.26435311
 C      4   3   2     1.534587942324   102.86685053   270.59282480
 C      5   4   3     1.531558407725   103.43982984   320.32600141
 N      6   5   4     1.477308249996   103.45179990    29.70178546
 C      7   6   5     1.355019571374   125.69222956   181.80002896
 O      8   7   6     1.245944741680   121.87817219   182.07461689
 N      2   1   3     1.357629772322   125.22504552   178.27592624
 C     10   2   1     1.465787562311   124.64883235   355.84834149
 C     11  10   2     1.536755695345   109.04216279   177.74891940
 N     12  11  10     1.358984533380   113.44297018   314.88504814
 C     13  12  11     1.446728422564   124.77773837   181.37741438
 C     14  13  12     1.527070025521   104.88616963   197.03643522
 N     15  14  13     1.344744562207   117.93710834   150.59567616
 C     16  15  14     1.461975055613   124.12162842   178.84239685
 C     17  16  15     1.544759232891   114.37696765   272.19952594
 C     18  17  16     1.554563138533   112.49606771    70.61107274
 C     19  18  17     1.522048951535   110.03089193    65.05765447
 N     20  19  18     1.355520005471   115.99471214   223.33222585
 C     21  20  19     1.456821244336   123.20648813   176.63452164
 C     22  21  20     1.542791954415   114.02349529   285.25584689
 N     23  22  21     1.360661056586   115.44269707   332.04698331
 C     24  23  22     1.458607654300   121.85477325   179.28351355
 C     25  24  23     1.526523137373   111.89717900   255.34552977
 O     23  22  21     1.231795888988   120.38356470   156.07367625
 C     22  21  20     1.539873638668   107.82220898   161.91908737
 C     28  22  21     1.535085180967   116.54061776   181.65047532
 C     29  28  22     1.531273820576   111.87402095    60.42060149
 C     29  28  22     1.532664090334   109.36897553   184.27586307
 O     20  19  18     1.245014955100   122.05800002    44.07078526
 C     19  18  17     1.553477433132   107.25955541   191.55755488
 C     33  19  18     1.504921837497   119.34514018   246.29443039
 C     34  33  19     1.549588603411   109.97747799   274.11188199
 C     35  34  33     1.533421204062   112.59912199   164.16058236
 C     36  35  34     1.530956111098   113.17472655   285.70832336
 C     37  36  35     1.529087010495   113.81451279   175.88665898
 C     38  37  36     1.530072136416   113.00420670   180.49334649
 C     39  38  37     1.529507413048   113.70738520   180.30095317
 C     40  39  38     1.531015523517   113.37616384   179.40537781
 C     41  40  39     1.529723386710   113.15126829   180.15525121
 O     33  19  18     1.219019567787   117.50556662    68.15343880
 O     18  17  16     1.414924747220   109.71885487   195.24330792
 O     15  14  13     1.246199544510   119.30422860   329.11319376
 C     14  13  12     1.548845790582   111.68760304    76.53688802
 C     46  14  13     1.527542646615   114.56927241   183.08336640
 O     12  11  10     1.230493302397   123.01639651   136.57368412
 C     11  10   2     1.560436555706   113.21043879    53.17546070
 C     49  11  10     1.531835970882   113.82019579    50.67672601
 C     49  11  10     1.531182138450   110.50977384   176.93286762
 H      3   2   1     1.101397479637   106.88765877   112.65163796
 H      4   3   2     1.099728204593   109.81301291   152.58346989
 H      4   3   2     1.095215169448   110.74862465    31.60243391
 H      5   4   3     1.099579872344   109.40837800    77.93661952
 H      5   4   3     1.096822407199   113.50880924   198.77418599
 H      6   5   4     1.096974183926   113.27865699   149.43131392
 H      6   5   4     1.101415363617   111.53813788   270.99468954
 H     10   2   1     1.032381066458   114.88011124   189.46008858
 H     11  10   2     1.101601082127   109.98646978   293.13675998
 H     13  12  11     1.018884409270   120.34406124   359.92028046
 H     14  13  12     1.102622902400   109.19439863   316.11687198
 H     16  15  14     1.015368369243   117.51723215   359.22275782
 H     17  16  15     1.097204374142   108.05941962   152.65264914
 H     17  16  15     1.098213103861   108.64616152    35.97153162
 H     18  17  16     1.102199050366   108.71847196   312.64249578
 H     19  18  17     1.098844602106   108.11164689   304.64498467
 H     21  20  19     1.017212739546   117.01691227    12.31615002
 H     22  21  20     1.097510151034   107.73570259    42.05679885
 H     24  23  22     1.026799408324   120.22705685    10.18731991
 H     25  24  23     1.100213683278   105.23429001    14.31958354
 H     26  25  24     1.097645639383   109.31941990    55.29987486
 H     26  25  24     1.098092706693   110.65748520   175.28192356
 H     26  25  24     1.097175576408   110.65345867   294.24304579
 H     28  22  21     1.105070408098   108.02031426    58.55734268
 H     28  22  21     1.104180321062   107.32842565   303.98037232
 H     29  28  22     1.102022625830   108.22759978   302.17279003
 H     30  29  28     1.097621587274   111.27427294   295.82647169
 H     30  29  28     1.102173645960   110.82672729    56.89564435
 H     30  29  28     1.099325770667   110.72342644   176.29158935
 H     31  29  28     1.100406333169   111.53953494    57.39204850
 H     31  29  28     1.099177071362   110.94145709   177.70674766
 H     31  29  28     1.101720297347   110.94656341   297.29559167
 H     34  33  19     1.098062758045   108.44283268   154.11506638
 H     34  33  19     1.098272382317   109.50442378    35.11573565
 H     35  34  33     1.102598645918   109.98459865    42.89557060
 H     35  34  33     1.099981794425   108.10820917   287.02846431
 H     36  35  34     1.102721625466   109.00710369   164.11465141
 H     36  35  34     1.103712845459   109.43697753    48.45329188
 H     37  36  35     1.102618863730   110.19199323    53.09079933
 H     37  36  35     1.104685960446   108.67452056   297.70709130
 H     38  37  36     1.104475916512   109.54927068    58.15074745
 H     38  37  36     1.104215660191   109.23106715   302.51433877
 H     39  38  37     1.103912157444   109.21963838    57.73699169
 H     39  38  37     1.103224419425   109.22140486   302.44870379
 H     40  39  38     1.104710755615   109.33119755    57.26602879
 H     40  39  38     1.104569401671   109.42838475   301.71094004
 H     41  40  39     1.103211098096   109.11465188    57.75783047
 H     41  40  39     1.103287122822   109.07498374   302.52221384
 H     42  41  40     1.099433819726   111.63680973   179.96362901
 H     42  41  40     1.100768237689   111.10177867   300.17930772
 H     42  41  40     1.100831042317   111.10196062    59.73417459
 H     44  18  17     0.992318749007   105.10794768   276.81743158
 H     46  14  13     1.101385854983   107.97608728    59.20817149
 H     46  14  13     1.099141868253   105.63510167   304.72875531
 H     47  46  14     1.098027670856   110.43517442   173.53715589
 H     47  46  14     1.099299949169   112.38336282   292.92082422
 H     47  46  14     1.101496491681   111.22255576    54.69757421
 H     49  11  10     1.098476671220   104.49855289   293.73588540
 H     50  49  11     1.099640874466   111.68644552   309.48648335
 H     50  49  11     1.100221475129   111.90430198    71.25090711
 H     50  49  11     1.099017181136   109.69428439   190.38029436
 H     51  49  11     1.098933269889   111.59027058    51.85977139
 H     51  49  11     1.099147913850   110.06076258   171.90981937
 H     51  49  11     1.100245970774   111.66379890   291.68989840

---------------------------
INTERNAL COORDINATES (A.U.)
---------------------------
 O      0   0   0     0.000000000000     0.00000000     0.00000000
 C      1   0   0     2.326753626070     0.00000000     0.00000000
 C      2   1   0     2.941979381577   121.51410840     0.00000000
 C      3   2   1     2.888741597250   111.50809008   348.26435311
 C      4   3   2     2.899950939409   102.86685053   270.59282480
 C      5   4   3     2.894225948705   103.43982984   320.32600141
 N      6   5   4     2.791708007874   103.45179990    29.70178546
 C      7   6   5     2.560615896000   125.69222956   181.80002896
 O      8   7   6     2.354494339775   121.87817219   182.07461689
 N      2   1   3     2.565548460946   125.22504552   178.27592624
 C     10   2   1     2.769937063275   124.64883235   355.84834149
 C     11  10   2     2.904047398945   109.04216279   177.74891940
 N     12  11  10     2.568108588322   113.44297018   314.88504814
 C     13  12  11     2.733920508806   124.77773837   181.37741438
 C     14  13  12     2.885744135555   104.88616963   197.03643522
 N     15  14  13     2.541198942650   117.93710834   150.59567616
 C     16  15  14     2.762732469733   124.12162842   178.84239685
 C     17  16  15     2.919171893010   114.37696765   272.19952594
 C     18  17  16     2.937698589717   112.49606771    70.61107274
 C     19  18  17     2.876255680823   110.03089193    65.05765447
 N     20  19  18     2.561561579391   115.99471214   223.33222585
 C     21  20  19     2.752993177874   123.20648813   176.63452164
 C     22  21  20     2.915454275461   114.02349529   285.25584689
 N     23  22  21     2.571276758039   115.44269707   332.04698331
 C     24  23  22     2.756369003468   121.85477325   179.28351355
 C     25  24  23     2.884710666729   111.89717900   255.34552977
 O     23  22  21     2.327756883077   120.38356470   156.07367625
 C     22  21  20     2.909939457927   107.82220898   161.91908737
 C     28  22  21     2.900890584269   116.54061776   181.65047532
 C     29  28  22     2.893688156932   111.87402095    60.42060149
 C     29  28  22     2.896315386027   109.36897553   184.27586307
 O     20  19  18     2.352737297775   122.05800002    44.07078526
 C     19  18  17     2.935646903847   107.25955541   191.55755488
 C     33  19  18     2.843890125828   119.34514018   246.29443039
 C     34  33  19     2.928298080692   109.97747799   274.11188199
 C     35  34  33     2.897746123625   112.59912199   164.16058236
 C     36  35  34     2.893087773029   113.17472655   285.70832336
 C     37  36  35     2.889555684771   113.81451279   175.88665898
 C     38  37  36     2.891417302970   113.00420670   180.49334649
 C     39  38  37     2.890350130464   113.70738520   180.30095317
 C     40  39  38     2.893200046229   113.37616384   179.40537781
 C     41  40  39     2.890758261536   113.15126829   180.15525121
 O     33  19  18     2.303613135008   117.50556662    68.15343880
 O     18  17  16     2.673820272354   109.71885487   195.24330792
 O     15  14  13     2.354975847342   119.30422860   329.11319376
 C     14  13  12     2.926894367876   111.68760304    76.53688802
 C     46  14  13     2.886637259987   114.56927241   183.08336640
 O     12  11  10     2.325295351155   123.01639651   136.57368412
 C     11  10   2     2.948797739644   113.21043879    53.17546070
 C     49  11  10     2.894750467057   113.82019579    50.67672601
 C     49  11  10     2.893514902822   110.50977384   176.93286762
 H      3   2   1     2.081339601105   106.88765877   112.65163796
 H      4   3   2     2.078185128429   109.81301291   152.58346989
 H      4   3   2     2.069656727973   110.74862465    31.60243391
 H      5   4   3     2.077904821102   109.40837800    77.93661952
 H      5   4   3     2.072693967155   113.50880924   198.77418599
 H      6   5   4     2.072980783602   113.27865699   149.43131392
[...]
freq.      80.12  E(vib)   ...       0.49 
freq.      90.69  E(vib)   ...       0.47 
freq.      93.19  E(vib)   ...       0.47 
freq.      97.98  E(vib)   ...       0.46 
freq.     103.00  E(vib)   ...       0.46 
freq.     106.86  E(vib)   ...       0.45 
freq.     109.62  E(vib)   ...       0.45 
freq.     112.21  E(vib)   ...       0.45 
freq.     115.66  E(vib)   ...       0.44 
freq.     130.63  E(vib)   ...       0.43 
freq.     138.94  E(vib)   ...       0.42 
freq.     142.08  E(vib)   ...       0.41 
freq.     147.76  E(vib)   ...       0.41 
freq.     154.23  E(vib)   ...       0.40 
freq.     157.29  E(vib)   ...       0.40 
freq.     161.55  E(vib)   ...       0.39 
freq.     163.69  E(vib)   ...       0.39 
freq.     168.56  E(vib)   ...       0.38 
freq.     174.43  E(vib)   ...       0.38 
freq.     186.36  E(vib)   ...       0.37 
freq.     201.05  E(vib)   ...       0.35 
freq.     206.31  E(vib)   ...       0.35 
freq.     213.88  E(vib)   ...       0.34 
freq.     217.10  E(vib)   ...       0.34 
freq.     221.75  E(vib)   ...       0.33 
freq.     224.06  E(vib)   ...       0.33 
freq.     226.03  E(vib)   ...       0.33 
freq.     232.92  E(vib)   ...       0.32 
freq.     235.64  E(vib)   ...       0.32 
freq.     237.25  E(vib)   ...       0.32 
freq.     238.31  E(vib)   ...       0.32 
freq.     241.09  E(vib)   ...       0.31 
freq.     242.03  E(vib)   ...       0.31 
freq.     244.56  E(vib)   ...       0.31 
freq.     252.94  E(vib)   ...       0.30 
freq.     258.42  E(vib)   ...       0.30 
freq.     264.65  E(vib)   ...       0.29 
freq.     275.71  E(vib)   ...       0.28 
freq.     277.93  E(vib)   ...       0.28 
freq.     286.81  E(vib)   ...       0.27 
freq.     297.57  E(vib)   ...       0.27 
freq.     309.24  E(vib)   ...       0.26 
freq.     315.94  E(vib)   ...       0.25 
freq.     321.73  E(vib)   ...       0.25 
freq.     337.22  E(vib)   ...       0.24 
freq.     339.59  E(vib)   ...       0.23 
freq.     340.63  E(vib)   ...       0.23 
freq.     346.55  E(vib)   ...       0.23 
freq.     349.59  E(vib)   ...       0.23 
freq.     360.75  E(vib)   ...       0.22 
freq.     377.89  E(vib)   ...       0.21 
freq.     385.14  E(vib)   ...       0.20 
freq.     391.77  E(vib)   ...       0.20 
freq.     407.29  E(vib)   ...       0.19 
freq.     410.71  E(vib)   ...       0.19 
freq.     418.17  E(vib)   ...       0.18 
freq.     439.95  E(vib)   ...       0.17 
freq.     450.79  E(vib)   ...       0.17 
freq.     451.09  E(vib)   ...       0.16 
freq.     458.41  E(vib)   ...       0.16 
freq.     468.36  E(vib)   ...       0.16 
freq.     483.74  E(vib)   ...       0.15 
freq.     485.95  E(vib)   ...       0.15 
freq.     505.85  E(vib)   ...       0.14 
freq.     511.81  E(vib)   ...       0.14 
freq.     527.14  E(vib)   ...       0.13 
freq.     537.78  E(vib)   ...       0.12 
freq.     547.97  E(vib)   ...       0.12 
freq.     557.68  E(vib)   ...       0.12 
freq.     572.93  E(vib)   ...       0.11 
freq.     584.97  E(vib)   ...       0.11 
freq.     600.38  E(vib)   ...       0.10 
freq.     615.93  E(vib)   ...       0.10 
freq.     621.68  E(vib)   ...       0.09 
freq.     648.02  E(vib)   ...       0.08 
freq.     677.73  E(vib)   ...       0.08 
freq.     686.84  E(vib)   ...       0.07 
freq.     692.64  E(vib)   ...       0.07 
freq.     697.84  E(vib)   ...       0.07 
freq.     700.68  E(vib)   ...       0.07 
freq.     711.92  E(vib)   ...       0.07 
freq.     716.00  E(vib)   ...       0.07 
freq.     718.83  E(vib)   ...       0.07 
freq.     723.63  E(vib)   ...       0.06 
freq.     726.54  E(vib)   ...       0.06 
freq.     738.29  E(vib)   ...       0.06 
freq.     744.71  E(vib)   ...       0.06 
freq.     747.34  E(vib)   ...       0.06 
freq.     755.16  E(vib)   ...       0.06 
freq.     765.98  E(vib)   ...       0.06 
freq.     774.91  E(vib)   ...       0.05 
freq.     786.29  E(vib)   ...       0.05 
freq.     791.29  E(vib)   ...       0.05 
freq.     797.01  E(vib)   ...       0.05 
freq.     810.66  E(vib)   ...       0.05 
freq.     819.41  E(vib)   ...       0.05 
freq.     824.72  E(vib)   ...       0.04 
freq.     830.72  E(vib)   ...       0.04 
freq.     850.85  E(vib)   ...       0.04 
freq.     858.34  E(vib)   ...       0.04 
freq.     862.29  E(vib)   ...       0.04 
freq.     864.71  E(vib)   ...       0.04 
freq.     870.56  E(vib)   ...       0.04 
freq.     877.31  E(vib)   ...       0.04 
freq.     879.64  E(vib)   ...       0.04 
freq.     884.63  E(vib)   ...       0.04 
freq.     890.83  E(vib)   ...       0.04 
freq.     904.35  E(vib)   ...       0.03 
freq.     905.64  E(vib)   ...       0.03 
freq.     907.91  E(vib)   ...       0.03 
freq.     913.02  E(vib)   ...       0.03 
freq.     917.87  E(vib)   ...       0.03 
freq.     922.48  E(vib)   ...       0.03 
freq.     929.34  E(vib)   ...       0.03 
freq.     937.98  E(vib)   ...       0.03 
freq.     942.26  E(vib)   ...       0.03 
freq.     943.10  E(vib)   ...       0.03 
freq.     945.38  E(vib)   ...       0.03 
freq.     960.08  E(vib)   ...       0.03 
freq.     967.70  E(vib)   ...       0.03 
freq.     975.97  E(vib)   ...       0.03 
freq.     977.95  E(vib)   ...       0.03 
freq.     985.76  E(vib)   ...       0.02 
freq.     995.98  E(vib)   ...       0.02 
freq.    1002.02  E(vib)   ...       0.02 
freq.    1008.99  E(vib)   ...       0.02 
freq.    1017.00  E(vib)   ...       0.02 
freq.    1025.95  E(vib)   ...       0.02 
freq.    1028.78  E(vib)   ...       0.02 
freq.    1031.08  E(vib)   ...       0.02 
freq.    1034.15  E(vib)   ...       0.02 
freq.    1038.54  E(vib)   ...       0.02 
freq.    1040.37  E(vib)   ...       0.02 
freq.    1049.00  E(vib)   ...       0.02 
freq.    1052.21  E(vib)   ...       0.02 
freq.    1053.07  E(vib)   ...       0.02 
freq.    1056.06  E(vib)   ...       0.02 
freq.    1056.93  E(vib)   ...       0.02 
freq.    1058.61  E(vib)   ...       0.02 
freq.    1069.58  E(vib)   ...       0.02 
freq.    1074.57  E(vib)   ...       0.02 
freq.    1078.64  E(vib)   ...       0.02 
freq.    1079.92  E(vib)   ...       0.02 
freq.    1085.14  E(vib)   ...       0.02 
freq.    1099.45  E(vib)   ...       0.02 
freq.    1104.96  E(vib)   ...       0.02 
freq.    1106.76  E(vib)   ...       0.02 
freq.    1120.14  E(vib)   ...       0.01 
freq.    1125.12  E(vib)   ...       0.01 
freq.    1132.64  E(vib)   ...       0.01 
freq.    1133.38  E(vib)   ...       0.01 
freq.    1139.31  E(vib)   ...       0.01 
freq.    1141.42  E(vib)   ...       0.01 
freq.    1157.72  E(vib)   ...       0.01 
freq.    1161.28  E(vib)   ...       0.01 
freq.    1165.11  E(vib)   ...       0.01 
freq.    1167.05  E(vib)   ...       0.01 
freq.    1170.52  E(vib)   ...       0.01 
freq.    1176.27  E(vib)   ...       0.01 
freq.    1186.67  E(vib)   ...       0.01 
freq.    1196.26  E(vib)   ...       0.01 
freq.    1197.51  E(vib)   ...       0.01 
freq.    1200.66  E(vib)   ...       0.01 
freq.    1213.29  E(vib)   ...       0.01 
freq.    1214.30  E(vib)   ...       0.01 
freq.    1223.59  E(vib)   ...       0.01 
freq.    1224.70  E(vib)   ...       0.01 
freq.    1226.95  E(vib)   ...       0.01 
freq.    1230.83  E(vib)   ...       0.01 
freq.    1234.49  E(vib)   ...       0.01 
freq.    1241.99  E(vib)   ...       0.01 
freq.    1247.48  E(vib)   ...       0.01 
freq.    1251.47  E(vib)   ...       0.01 
freq.    1253.61  E(vib)   ...       0.01 
freq.    1254.73  E(vib)   ...       0.01 
freq.    1259.92  E(vib)   ...       0.01 
freq.    1266.73  E(vib)   ...       0.01 
freq.    1272.69  E(vib)   ...       0.01 
freq.    1278.06  E(vib)   ...       0.01 
freq.    1278.24  E(vib)   ...       0.01 
freq.    1281.67  E(vib)   ...       0.01 
freq.    1282.64  E(vib)   ...       0.01 
freq.    1286.90  E(vib)   ...       0.01 
freq.    1287.82  E(vib)   ...       0.01 
freq.    1290.32  E(vib)   ...       0.01 
freq.    1292.53  E(vib)   ...       0.01 
freq.    1293.99  E(vib)   ...       0.01 
freq.    1300.00  E(vib)   ...       0.01 
freq.    1303.17  E(vib)   ...       0.01 
freq.    1304.20  E(vib)   ...       0.01 
freq.    1305.27  E(vib)   ...       0.01 
freq.    1308.49  E(vib)   ...       0.01 
freq.    1310.83  E(vib)   ...       0.01 
freq.    1316.20  E(vib)   ...       0.01 
freq.    1318.30  E(vib)   ...       0.01 
freq.    1321.37  E(vib)   ...       0.01 
freq.    1327.80  E(vib)   ...       0.01 
freq.    1329.38  E(vib)   ...       0.01 
freq.    1338.23  E(vib)   ...       0.01 
freq.    1339.12  E(vib)   ...       0.01 
freq.    1340.53  E(vib)   ...       0.01 
freq.    1344.82  E(vib)   ...       0.01 
freq.    1347.53  E(vib)   ...       0.01 
freq.    1350.27  E(vib)   ...       0.01 
freq.    1350.61  E(vib)   ...       0.01 
freq.    1352.61  E(vib)   ...       0.01 
freq.    1353.68  E(vib)   ...       0.01 
freq.    1354.45  E(vib)   ...       0.01 
freq.    1356.38  E(vib)   ...       0.01 
freq.    1363.80  E(vib)   ...       0.01 
freq.    1368.31  E(vib)   ...       0.01 
freq.    1371.11  E(vib)   ...       0.01 
freq.    1374.32  E(vib)   ...       0.01 
freq.    1398.53  E(vib)   ...       0.00 
freq.    1424.26  E(vib)   ...       0.00 
freq.    1426.54  E(vib)   ...       0.00 
freq.    1428.77  E(vib)   ...       0.00 
freq.    1432.35  E(vib)   ...       0.00 
freq.    1433.19  E(vib)   ...       0.00 
freq.    1435.03  E(vib)   ...       0.00 
freq.    1435.92  E(vib)   ...       0.00 
freq.    1436.19  E(vib)   ...       0.00 
freq.    1436.76  E(vib)   ...       0.00 
freq.    1438.47  E(vib)   ...       0.00 
freq.    1439.13  E(vib)   ...       0.00 
freq.    1440.00  E(vib)   ...       0.00 
freq.    1442.23  E(vib)   ...       0.00 
freq.    1444.88  E(vib)   ...       0.00 
freq.    1445.54  E(vib)   ...       0.00 
freq.    1446.52  E(vib)   ...       0.00 
freq.    1447.96  E(vib)   ...       0.00 
freq.    1449.86  E(vib)   ...       0.00 
freq.    1450.84  E(vib)   ...       0.00 
freq.    1451.03  E(vib)   ...       0.00 
freq.    1454.06  E(vib)   ...       0.00 
freq.    1454.87  E(vib)   ...       0.00 
freq.    1455.16  E(vib)   ...       0.00 
freq.    1458.17  E(vib)   ...       0.00 
freq.    1459.36  E(vib)   ...       0.00 
freq.    1461.84  E(vib)   ...       0.00 
freq.    1463.82  E(vib)   ...       0.00 
freq.    1465.14  E(vib)   ...       0.00 
freq.    1465.54  E(vib)   ...       0.00 
freq.    1478.85  E(vib)   ...       0.00 
freq.    1496.87  E(vib)   ...       0.00 
freq.    1517.29  E(vib)   ...       0.00 
freq.    1521.85  E(vib)   ...       0.00 
freq.    1530.85  E(vib)   ...       0.00 
freq.    1615.23  E(vib)   ...       0.00 
freq.    1630.34  E(vib)   ...       0.00 
freq.    1646.37  E(vib)   ...       0.00 
freq.    1674.75  E(vib)   ...       0.00 
freq.    1686.87  E(vib)   ...       0.00 
freq.    1689.86  E(vib)   ...       0.00 
freq.    1711.56  E(vib)   ...       0.00 
freq.    2924.48  E(vib)   ...       0.00 
freq.    2925.23  E(vib)   ...       0.00 
freq.    2927.70  E(vib)   ...       0.00 
freq.    2931.94  E(vib)   ...       0.00 
freq.    2940.05  E(vib)   ...       0.00 
freq.    2943.31  E(vib)   ...       0.00 
freq.    2946.61  E(vib)   ...       0.00 
freq.    2948.40  E(vib)   ...       0.00 
freq.    2951.19  E(vib)   ...       0.00 
freq.    2951.67  E(vib)   ...       0.00 
freq.    2952.78  E(vib)   ...       0.00 
freq.    2955.11  E(vib)   ...       0.00 
freq.    2956.39  E(vib)   ...       0.00 
freq.    2958.52  E(vib)   ...       0.00 
freq.    2959.03  E(vib)   ...       0.00 
freq.    2960.55  E(vib)   ...       0.00 
freq.    2962.18  E(vib)   ...       0.00 
freq.    2963.81  E(vib)   ...       0.00 
freq.    2964.24  E(vib)   ...       0.00 
freq.    2967.91  E(vib)   ...       0.00 
freq.    2969.17  E(vib)   ...       0.00 
freq.    2972.17  E(vib)   ...       0.00 
freq.    2974.82  E(vib)   ...       0.00 
freq.    2974.91  E(vib)   ...       0.00 
freq.    2976.03  E(vib)   ...       0.00 
freq.    2977.02  E(vib)   ...       0.00 
freq.    2981.49  E(vib)   ...       0.00 
freq.    2987.25  E(vib)   ...       0.00 
freq.    2987.67  E(vib)   ...       0.00 
freq.    2994.07  E(vib)   ...       0.00 
freq.    2994.40  E(vib)   ...       0.00 
freq.    2995.49  E(vib)   ...       0.00 
freq.    2996.60  E(vib)   ...       0.00 
freq.    3001.17  E(vib)   ...       0.00 
freq.    3002.04  E(vib)   ...       0.00 
freq.    3003.66  E(vib)   ...       0.00 
freq.    3012.42  E(vib)   ...       0.00 
freq.    3013.64  E(vib)   ...       0.00 
freq.    3015.76  E(vib)   ...       0.00 
freq.    3019.60  E(vib)   ...       0.00 
freq.    3022.33  E(vib)   ...       0.00 
freq.    3025.89  E(vib)   ...       0.00 
freq.    3027.45  E(vib)   ...       0.00 
freq.    3030.29  E(vib)   ...       0.00 
freq.    3031.15  E(vib)   ...       0.00 
freq.    3031.43  E(vib)   ...       0.00 
freq.    3031.48  E(vib)   ...       0.00 
freq.    3033.28  E(vib)   ...       0.00 
freq.    3036.45  E(vib)   ...       0.00 
freq.    3038.64  E(vib)   ...       0.00 
freq.    3043.69  E(vib)   ...       0.00 
freq.    3047.93  E(vib)   ...       0.00 
freq.    3048.35  E(vib)   ...       0.00 
freq.    3050.63  E(vib)   ...       0.00 
freq.    3054.66  E(vib)   ...       0.00 
freq.    3055.86  E(vib)   ...       0.00 
freq.    3064.88  E(vib)   ...       0.00 
freq.    3068.40  E(vib)   ...       0.00 
freq.    3222.12  E(vib)   ...       0.00 
freq.    3309.11  E(vib)   ...       0.00 
freq.    3332.30  E(vib)   ...       0.00 
freq.    3461.36  E(vib)   ...       0.00 
freq.    3492.21  E(vib)   ...       0.00 
freq.    3520.10  E(vib)   ...       0.00 

------------
INNER ENERGY
------------

The inner energy is: U= E(el) + E(ZPE) + E(vib) + E(rot) + E(trans)
    E(el)   - is the total energy from the electronic structure calculation
              = E(kin-el) + E(nuc-el) + E(el-el) + E(nuc-nuc)
    E(ZPE)  - the the zero temperature vibrational energy from the frequency calculation
    E(vib)  - the the finite temperature correction to E(ZPE) due to population
              of excited vibrational states
    E(rot)  - is the rotational thermal energy
    E(trans)- is the translational thermal energy

Summary of contributions to the inner energy U:
Electronic energy                ...  -2380.08878090 Eh
Zero point energy                ...      0.97817245 Eh     613.81 kcal/mol
Thermal vibrational correction   ...      0.05558525 Eh      34.88 kcal/mol
Thermal rotational correction    ...      0.00141627 Eh       0.89 kcal/mol
Thermal translational correction ...      0.00141627 Eh       0.89 kcal/mol
-----------------------------------------------------------------------
Total thermal energy                  -2379.05219066 Eh


Summary of corrections to the electronic energy:
(perhaps to be used in another calculation)
Total thermal correction                  0.05841779 Eh      36.66 kcal/mol
Non-thermal (ZPE) correction              0.97817245 Eh     613.81 kcal/mol
-----------------------------------------------------------------------
Total correction                          1.03659024 Eh     650.47 kcal/mol


--------
ENTHALPY
--------

The enthalpy is H = U + kB*T
                kB is Boltzmann's constant
Total free energy                 ...  -2379.05219066 Eh 
Thermal Enthalpy correction       ...      0.00094421 Eh       0.59 kcal/mol
-----------------------------------------------------------------------
Total Enthalpy                    ...  -2379.05124645 Eh


Note: Only C1 symmetry has been detected, increase convergence thresholds 
      if your molecule has a higher symmetry. Symmetry factor of 1.0 is   
      used for the rotational entropy correction. 
 

Note: Rotational entropy computed according to Herzberg 
Infrared and Raman Spectra, Chapter V,1, Van Nostrand Reinhold, 1945 
Point Group:  C1, Symmetry Number:   1  
Rotational constants in cm-1:     0.002399     0.001291     0.001017 

Vibrational entropy computed according to the QRRHO of S. Grimme
Chem.Eur.J. 2012 18 9955


-------
ENTROPY
-------

The entropy contributions are T*S = T*(S(el)+S(vib)+S(rot)+S(trans))
     S(el)   - electronic entropy
     S(vib)  - vibrational entropy
     S(rot)  - rotational entropy
     S(trans)- translational entropy
The entropies will be listed as mutliplied by the temperature to get
units of energy

Electronic entropy                ...      0.00000000 Eh      0.00 kcal/mol
Vibrational entropy               ...      0.10371550 Eh     65.08 kcal/mol
Rotational entropy                ...      0.01875224 Eh     11.77 kcal/mol
Translational entropy             ...      0.02166895 Eh     13.60 kcal/mol
-----------------------------------------------------------------------
Final entropy term                ...      0.14413669 Eh     90.45 kcal/mol

In case the symmetry of your molecule has not been determined correctly
or in case you have a reason to use a different symmetry number we print 
out the resulting rotational entropy values for sn=1,12 :
 --------------------------------------------------------
|  sn= 1 | S(rot)=       0.01875224 Eh     11.77 kcal/mol|
|  sn= 2 | S(rot)=       0.01809779 Eh     11.36 kcal/mol|
|  sn= 3 | S(rot)=       0.01771495 Eh     11.12 kcal/mol|
|  sn= 4 | S(rot)=       0.01744333 Eh     10.95 kcal/mol|
|  sn= 5 | S(rot)=       0.01723264 Eh     10.81 kcal/mol|
|  sn= 6 | S(rot)=       0.01706050 Eh     10.71 kcal/mol|
|  sn= 7 | S(rot)=       0.01691495 Eh     10.61 kcal/mol|
|  sn= 8 | S(rot)=       0.01678887 Eh     10.54 kcal/mol|
|  sn= 9 | S(rot)=       0.01667766 Eh     10.47 kcal/mol|
|  sn=10 | S(rot)=       0.01657818 Eh     10.40 kcal/mol|
|  sn=11 | S(rot)=       0.01648819 Eh     10.35 kcal/mol|
|  sn=12 | S(rot)=       0.01640604 Eh     10.29 kcal/mol|
 --------------------------------------------------------


-------------------
GIBBS FREE ENERGY
-------------------

The Gibbs free energy is G = H - T*S

Total enthalpy                    ...  -2379.05124645 Eh 
Total entropy correction          ...     -0.14413669 Eh    -90.45 kcal/mol
-----------------------------------------------------------------------
Final Gibbs free energy         ...  -2379.19538314 Eh

For completeness - the Gibbs free energy minus the electronic energy
G-E(el)                           ...      0.89339776 Eh    560.61 kcal/mol

--------------------------------------------------------------------------
WARNING: No preset parameters were found for the device that Open MPI
detected:

  Local host:            eu-g1-047-2
  Device name:           mlx5_0
  Device vendor ID:      0x02c9
  Device vendor part ID: 4123

Default device parameters will be used, which may result in lower
performance.  You can edit any of the files specified by the
btl_openib_device_param_files MCA parameter to set values for your
device.

NOTE: You can turn off this warning by setting the MCA parameter
      btl_openib_warn_no_device_params_found to 0.
--------------------------------------------------------------------------
--------------------------------------------------------------------------
WARNING: There was an error initializing an OpenFabrics device.

  Local host:   eu-g1-047-2
  Local device: mlx5_0
--------------------------------------------------------------------------

Timings for individual modules:

Sum of individual times         ...    37117.834 sec (= 618.631 min)
GTO integral calculation        ...       22.107 sec (=   0.368 min)   0.1 %
SCF iterations                  ...      632.274 sec (=  10.538 min)   1.7 %
SCF Gradient evaluation         ...      175.937 sec (=   2.932 min)   0.5 %
Geometry relaxation             ...        7.672 sec (=   0.128 min)   0.0 %
Analytical frequency calculation...    36279.843 sec (= 604.664 min)  97.7 %
                             ****ORCA TERMINATED NORMALLY****
TOTAL RUN TIME: 0 days 10 hours 18 minutes 57 seconds 702 msec
