
                                 *****************
                                 * O   R   C   A *
                                 *****************

           --- An Ab Initio, DFT and Semiempirical electronic structure package ---

                  #######################################################
                  #                        -***-                        #
                  #          Department of theory and spectroscopy      #
                  #               Directorship: Frank Neese             #
                  #        Max Planck Institute fuer Kohlenforschung    #
                  #                Kaiser Wilhelm Platz 1               #
                  #                 D-45470 Muelheim/Ruhr               #
                  #                      Germany                        #
                  #                                                     #
                  #                  All rights reserved                #
                  #                        -***-                        #
                  #######################################################


                         Program Version 4.2.0 -  RELEASE  -


 With contributions from (in alphabetic order):
   Daniel Aravena         : Magnetic Suceptibility
   Michael Atanasov       : Ab Initio Ligand Field Theory (pilot matlab implementation)
   Alexander A. Auer      : GIAO ZORA, VPT2
   Ute Becker             : Parallelization
   Giovanni Bistoni       : ED, misc. LED, open-shell LED, HFLED
   Martin Brehm           : Molecular dynamics
   Dmytro Bykov           : SCF Hessian
   Vijay G. Chilkuri      : MRCI spin determinant printing, contributions to CSF-ICE
   Dipayan Datta          : RHF DLPNO-CCSD density
   Achintya Kumar Dutta   : EOM-CC, STEOM-CC
   Dmitry Ganyushin       : Spin-Orbit,Spin-Spin,Magnetic field MRCI
   Miquel Garcia          : C-PCM Hessian, Gaussian charge scheme
   Yang Guo               : DLPNO-NEVPT2, CIM, IAO-localization
   Andreas Hansen         : Spin unrestricted coupled pair/coupled cluster methods
   Benjamin Helmich-Paris : CASSCF linear response (MC-RPA)
   Lee Huntington         : MR-EOM, pCC
   Robert Izsak           : Overlap fitted RIJCOSX, COSX-SCS-MP3, EOM
   Christian Kollmar      : KDIIS, OOCD, Brueckner-CCSD(T), CCSD density
   Simone Kossmann        : Meta GGA functionals, TD-DFT gradient, OOMP2, MP2 Hessian
   Martin Krupicka        : AUTO-CI
   Lucas Lang             : DCDCAS
   Dagmar Lenk            : GEPOL surface, SMD
   Dimitrios Liakos       : Extrapolation schemes; Compound Job, initial MDCI parallelization
   Dimitrios Manganas     : Further ROCIS development; embedding schemes
   Dimitrios Pantazis     : SARC Basis sets
   Taras Petrenko         : DFT Hessian,TD-DFT gradient, ASA, ECA, R-Raman, ABS, FL, XAS/XES, NRVS
   Peter Pinski           : DLPNO-MP2, DLPNO-MP2 Gradient
   Christoph Reimann      : Effective Core Potentials
   Marius Retegan         : Local ZFS, SOC
   Christoph Riplinger    : Optimizer, TS searches, QM/MM, DLPNO-CCSD(T), (RO)-DLPNO pert. Triples
   Tobias Risthaus        : Range-separated hybrids, TD-DFT gradient, RPA, STAB
   Michael Roemelt        : Original ROCIS implementation
   Masaaki Saitow         : Open-shell DLPNO-CCSD energy and density
   Barbara Sandhoefer     : DKH picture change effects
   Avijit Sen             : IP-ROCIS
   Kantharuban Sivalingam : CASSCF convergence, NEVPT2, FIC-MRCI
   Bernardo de Souza      : ESD, SOC TD-DFT
   Georgi Stoychev        : AutoAux, RI-MP2 NMR
   Willem Van den Heuvel  : Paramagnetic NMR
   Boris Wezisla          : Elementary symmetry handling
   Frank Wennmohs         : Technical directorship


 We gratefully acknowledge several colleagues who have allowed us to
 interface, adapt or use parts of their codes:
   Stefan Grimme, W. Hujo, H. Kruse,             : VdW corrections, initial TS optimization,
                  C. Bannwarth                     DFT functionals, gCP, sTDA/sTD-DF
   Ed Valeev, F. Pavosevic, A. Kumar             : LibInt (2-el integral package), F12 methods
   Garnet Chan, S. Sharma, J. Yang, R. Olivares  : DMRG
   Ulf Ekstrom                                   : XCFun DFT Library
   Mihaly Kallay                                 : mrcc  (arbitrary order and MRCC methods)
   Andreas Klamt, Michael Diedenhofen            : otool_cosmo (COSMO solvation model)
   Jiri Pittner, Ondrej Demel                    : Mk-CCSD
   Frank Weinhold                                : gennbo (NPA and NBO analysis)
   Christopher J. Cramer and Donald G. Truhlar   : smd solvation model
   Lars Goerigk                                  : TD-DFT with DH, B97 family of functionals
   V. Asgeirsson, H. Jonsson                     : NEB implementation
   FAccTs GmbH                                   : IRC, NEB, NEB-TS, Multilevel, MM, QM/MM, CI optimization
   S Lehtola, MJT Oliveira, MAL Marques          : LibXC Library


 Your calculation uses the libint2 library for the computation of 2-el integrals
 For citations please refer to: http://libint.valeyev.net

 Your ORCA version has been built with support for libXC version: 4.2.3
 For citations please refer to: https://tddft.org/programs/libxc/

 This ORCA versions uses:
   CBLAS   interface :  Fast vector & matrix operations
   LAPACKE interface :  Fast linear algebra routines
   SCALAPACK package :  Parallel linear algebra routines




***************************************
The coordinates will be read from file: 52.xyz
***************************************


Your calculation utilizes the atom-pairwise dispersion correction
with the Becke-Johnson damping scheme (D3BJ)
Cite in your paper:
S.Grimme, S.Ehrlich, L.Goerigk, J Comput Chem, (2011), 32, 1456–1465 
S.Grimme, J.Antony, S.Ehrlich and H.Krieg, J.Chem.Phys., 132, (2010), 154104 
   

----- Orbital basis set information -----
Your calculation utilizes the basis: def2-TZVP
   F. Weigend and R. Ahlrichs, Phys. Chem. Chem. Phys. 7, 3297 (2005).

----- AuxJ basis set information -----
Your calculation utilizes the auxiliary basis: def2/J
   F. Weigend, Phys. Chem. Chem. Phys. 8, 1057 (2006).

================================================================================
                                        WARNINGS
                       Please study these warnings very carefully!
================================================================================


WARNING: Geometry Optimization
  ===> : Switching off AutoStart
         For restart on a previous wavefunction, please use MOREAD

INFO   : the flag for use of LIBINT has been found!

================================================================================
                                       INPUT FILE
================================================================================
NAME = 52.inp
|  1> !RI BP86 def2-tzvp def2/J D3BJ TIGHTSCF TightOpt Grid5 FinalGrid6 freq
|  2> %maxcore 4000
|  3> %pal nprocs 24
|  4> end
|  5> * xyzfile 0 1 52.xyz 
|  6> 
|  7>                          ****END OF INPUT****
================================================================================

                       *****************************
                       * Geometry Optimization Run *
                       *****************************

Geometry optimization settings:
Update method            Update   .... BFGS
Choice of coordinates    CoordSys .... Z-matrix Internals
Initial Hessian          InHess   .... Almoef's Model

Convergence Tolerances:
Energy Change            TolE     ....  1.0000e-06 Eh
Max. Gradient            TolMAXG  ....  1.0000e-04 Eh/bohr
RMS Gradient             TolRMSG  ....  3.0000e-05 Eh/bohr
Max. Displacement        TolMAXD  ....  1.0000e-03 bohr
RMS Displacement         TolRMSD  ....  6.0000e-04 bohr
Strict Convergence                ....  False
------------------------------------------------------------------------------
                        ORCA OPTIMIZATION COORDINATE SETUP
------------------------------------------------------------------------------

The optimization will be done in new redundant internal coordinates
Making redundant internal coordinates   ...  (new redundants) done
Evaluating the initial hessian          ...  (Almloef) done
Evaluating the coordinates              ...  done
Calculating the B-matrix                .... done
Calculating the G-matrix                .... done
Diagonalizing the G-matrix              .... done
Small eigenvalue found = 1.822e-03
Small eigenvalue found = 2.885e-03
Small eigenvalue found = 3.718e-03
Small eigenvalue found = 4.992e-03
Small eigenvalue found = 5.546e-03
Small eigenvalue found = 6.996e-03
Small eigenvalue found = 9.868e-03
Small eigenvalue found = 1.052e-02
Small eigenvalue found = 1.210e-02
Small eigenvalue found = 1.259e-02
Small eigenvalue found = 1.364e-02
Small eigenvalue found = 1.603e-02
Small eigenvalue found = 1.817e-02
Small eigenvalue found = 1.947e-02
Small eigenvalue found = 2.376e-02
Small eigenvalue found = 2.590e-02
The first mode is                       ....  329
The number of degrees of freedom        ....  339

    -----------------------------------------------------------------
                    Redundant Internal Coordinates


    -----------------------------------------------------------------
         Definition                    Initial Value    Approx d2E/dq
    -----------------------------------------------------------------
      1. B(C   1,O   0)                  1.2248         1.026516   
      2. B(C   2,C   1)                  1.5395         0.360741   
      3. B(C   3,C   2)                  1.5407         0.359196   
      4. B(C   4,C   3)                  1.5363         0.365014   
      5. B(C   5,C   4)                  1.5329         0.369666   
      6. B(N   6,C   2)                  1.4784         0.404396   
      7. B(N   6,C   5)                  1.4718         0.414390   
      8. B(C   7,N   6)                  1.3555         0.635265   
      9. B(O   8,C   7)                  1.2391         0.974195   
     10. B(N   9,C   1)                  1.3647         0.614048   
     11. B(C  10,N   9)                  1.4563         0.438694   
     12. B(C  11,C  10)                  1.5375         0.363378   
     13. B(N  12,C  11)                  1.3647         0.613994   
     14. B(C  13,N  12)                  1.4633         0.427463   
     15. B(C  14,C  13)                  1.5456         0.352785   
     16. B(N  15,C  14)                  1.3622         0.619708   
     17. B(C  16,N  15)                  1.4558         0.439409   
     18. B(C  17,C  16)                  1.5354         0.366296   
     19. B(C  18,C  17)                  1.5601         0.334499   
     20. B(C  19,C  18)                  1.5478         0.349937   
     21. B(N  20,C  19)                  1.3663         0.610588   
     22. B(C  21,N  20)                  1.4646         0.425452   
     23. B(C  22,C  21)                  1.5412         0.358468   
     24. B(N  23,C  22)                  1.3644         0.614722   
     25. B(C  24,N  23)                  1.4538         0.442633   
     26. B(C  24,C   7)                  1.5319         0.371001   
     27. B(C  25,C  24)                  1.5398         0.360356   
     28. B(O  26,C  22)                  1.2298         1.008092   
     29. B(C  27,C  21)                  1.5353         0.366339   
     30. B(C  28,C  27)                  1.5383         0.362399   
     31. B(C  29,C  28)                  1.5331         0.369389   
     32. B(C  30,C  28)                  1.5324         0.370297   
     33. B(O  31,C  19)                  1.2277         1.015877   
     34. B(C  32,C  18)                  1.5308         0.372484   
     35. B(C  33,C  32)                  1.5110         0.400593   
     36. B(C  34,C  33)                  1.5238         0.382203   
     37. B(C  35,C  34)                  1.5328         0.369780   
     38. B(C  36,C  35)                  1.5278         0.376595   
     39. B(C  37,C  36)                  1.5346         0.367248   
     40. B(C  38,C  37)                  1.5362         0.365219   
     41. B(C  39,C  38)                  1.5313         0.371792   
     42. B(C  40,C  39)                  1.5308         0.372527   
     43. B(C  41,C  40)                  1.5298         0.373807   
     44. B(O  42,C  32)                  1.2291         1.010636   
     45. B(O  43,C  17)                  1.4270         0.488478   
     46. B(O  44,C  14)                  1.2319         1.000088   
     47. B(C  45,C  13)                  1.5350         0.366805   
     48. B(C  46,C  45)                  1.5292         0.374700   
     49. B(O  47,C  11)                  1.2347         0.990151   
     50. B(C  48,C  10)                  1.5515         0.345225   
     51. B(C  49,C  48)                  1.5292         0.374740   
     52. B(C  50,C  48)                  1.5321         0.370696   
     53. B(H  51,C   2)                  1.0995         0.347788   
     54. B(H  52,C   3)                  1.0956         0.352753   
     55. B(H  53,C   3)                  1.1010         0.345890   
     56. B(H  54,C   4)                  1.0970         0.350914   
     57. B(H  55,C   4)                  1.0999         0.347186   
     58. B(H  56,C   5)                  1.1044         0.341601   
     59. B(H  57,C   5)                  1.0963         0.351884   
     60. B(H  58,N   9)                  1.0152         0.424567   
     61. B(H  59,O  42)                  2.9217         0.000386   
     62. B(H  59,C  10)                  1.1018         0.344842   
     63. B(H  60,N  12)                  1.0167         0.422257   
     64. B(H  61,C  13)                  1.1040         0.342053   
     65. B(H  62,N  15)                  1.0250         0.409450   
     66. B(H  63,C  16)                  1.0984         0.349211   
     67. B(H  64,C  16)                  1.1025         0.343934   
     68. B(H  65,C  17)                  1.1018         0.344824   
     69. B(H  66,C  18)                  1.1002         0.346840   
     70. B(H  67,N  20)                  1.0198         0.417476   
     71. B(H  68,C  21)                  1.1038         0.342294   
     72. B(H  69,N  23)                  1.0216         0.414693   
     73. B(H  70,C  24)                  1.1010         0.345842   
     74. B(H  71,C  25)                  1.0965         0.351622   
     75. B(H  72,C  25)                  1.0990         0.348437   
     76. B(H  73,C  25)                  1.0982         0.349452   
     77. B(H  74,C  27)                  1.0974         0.350431   
     78. B(H  75,C  27)                  1.1021         0.344429   
     79. B(H  76,C  28)                  1.1017         0.344893   
     80. B(H  77,C  29)                  1.0996         0.347576   
     81. B(H  78,C  29)                  1.1012         0.345641   
     82. B(H  79,C  29)                  1.1000         0.347084   
     83. B(H  80,O  44)                  4.3692         0.000002   
     84. B(H  80,C  30)                  1.0995         0.347797   
     85. B(H  81,C  30)                  1.1001         0.347022   
     86. B(H  82,C  30)                  1.1022         0.344361   
     87. B(H  83,C  33)                  1.1046         0.341294   
     88. B(H  84,C  33)                  1.1058         0.339774   
     89. B(H  85,C  34)                  1.1006         0.346352   
     90. B(H  86,O   8)                  2.3418         0.003247   
     91. B(H  86,C  34)                  1.0982         0.349384   
     92. B(H  87,C  35)                  1.1048         0.341002   
     93. B(H  88,C  35)                  1.1042         0.341787   
     94. B(H  89,C  36)                  1.1010         0.345882   
     95. B(H  90,H  60)                  4.8123         0.000000   
     96. B(H  90,C  36)                  1.0993         0.348033   
     97. B(H  91,C  37)                  1.1034         0.342781   
     98. B(H  92,C  37)                  1.1033         0.342967   
     99. B(H  93,H  73)                  4.4273         0.000000   
    100. B(H  93,C  38)                  1.1064         0.339031   
    101. B(H  94,C  38)                  1.1035         0.342669   
    102. B(H  95,C  39)                  1.1044         0.341500   
    103. B(H  96,C  39)                  1.1023         0.344155   
    104. B(H  97,H  51)                  2.3877         0.000586   
    105. B(H  97,C  40)                  1.1060         0.339584   
    106. B(H  98,C  40)                  1.1034         0.342849   
    107. B(H  99,C  41)                  1.1001         0.347008   
    108. B(H 100,C  41)                  1.1010         0.345818   
    109. B(H 101,C  41)                  1.1003         0.346703   
    110. B(H 102,O  43)                  0.9808         0.481686   
    111. B(H 103,H  70)                  2.4192         0.000522   
    112. B(H 103,C  45)                  1.1008         0.346044   
    113. B(H 104,C  45)                  1.1029         0.343391   
    114. B(H 105,C  46)                  1.0987         0.348810   
    115. B(H 106,C  46)                  1.0960         0.352276   
    116. B(H 107,C  46)                  1.1008         0.346145   
    117. B(H 108,C  48)                  1.1001         0.346928   
    118. B(H 109,C  49)                  1.0978         0.349931   
    119. B(H 110,H 100)                  4.2387         0.000001   
    120. B(H 110,C  49)                  1.0995         0.347722   
    121. B(H 111,C  49)                  1.0997         0.347522   
    122. B(H 112,C  50)                  1.0996         0.347636   
    123. B(H 113,C  50)                  1.0986         0.348875   
    124. B(H 114,C  50)                  1.1018         0.344808   
    125. A(O   0,C   1,N   9)          124.2461         0.468611   
    126. A(C   2,C   1,N   9)          114.0956         0.391087   
    127. A(O   0,C   1,C   2)          121.6459         0.428346   
    128. A(C   1,C   2,H  51)          105.4238         0.320633   
    129. A(N   6,C   2,H  51)          109.6171         0.324744   
    130. A(C   1,C   2,N   6)          112.8870         0.363837   
    131. A(C   1,C   2,C   3)          114.0736         0.358782   
    132. A(C   3,C   2,H  51)          111.7449         0.320408   
    133. A(C   3,C   2,N   6)          103.2011         0.363570   
    134. A(C   4,C   3,H  53)          110.3112         0.320964   
    135. A(C   4,C   3,H  52)          113.5483         0.321998   
    136. A(C   2,C   3,C   4)          103.8072         0.359502   
    137. A(C   2,C   3,H  53)          110.0521         0.320122   
    138. A(C   2,C   3,H  52)          111.3811         0.321152   
    139. A(H  52,C   3,H  53)          107.7238         0.288077   
    140. A(H  54,C   4,H  55)          108.1292         0.288011   
    141. A(C   3,C   4,H  55)          110.1272         0.321160   
    142. A(C   3,C   4,C   5)          103.3054         0.361267   
    143. A(C   3,C   4,H  54)          113.1968         0.321722   
    144. A(C   5,C   4,H  55)          109.5926         0.321827   
    145. A(C   5,C   4,H  54)          112.4183         0.322390   
    146. A(H  56,C   5,H  57)          107.9304         0.287405   
    147. A(C   4,C   5,N   6)          102.4774         0.366893   
    148. A(C   4,C   5,H  56)          111.2900         0.320974   
    149. A(N   6,C   5,H  57)          111.1967         0.326679   
    150. A(N   6,C   5,H  56)          110.7531         0.325089   
    151. A(C   4,C   5,H  57)          113.1787         0.322536   
    152. A(C   5,N   6,C   7)          128.3928         0.400538   
    153. A(C   2,N   6,C   7)          118.6107         0.398821   
    154. A(C   2,N   6,C   5)          112.7535         0.370265   
    155. A(O   8,C   7,C  24)          119.6039         0.426487   
    156. A(N   6,C   7,O   8)          120.7816         0.467038   
    157. A(N   6,C   7,C  24)          119.6143         0.395357   
    158. A(C   1,N   9,C  10)          124.6557         0.402166   
    159. A(C  10,N   9,H  58)          117.4639         0.337291   
    160. A(C   1,N   9,H  58)          117.8409         0.356926   
    161. A(C  48,C  10,H  59)          109.0009         0.317899   
    162. A(C  11,C  10,H  59)          107.8903         0.320569   
    163. A(N   9,C  10,C  11)          110.8719         0.369410   
    164. A(N   9,C  10,C  48)          113.3145         0.366176   
    165. A(N   9,C  10,H  59)          106.6775         0.328666   
    166. A(C  11,C  10,C  48)          108.9173         0.356811   
    167. A(N  12,C  11,O  47)          121.5041         0.465518   
    168. A(C  10,C  11,O  47)          121.1377         0.426142   
    169. A(C  10,C  11,N  12)          117.2237         0.391579   
    170. A(C  13,N  12,H  60)          118.3349         0.335533   
    171. A(C  11,N  12,C  13)          122.4127         0.400327   
    172. A(C  11,N  12,H  60)          119.2014         0.356590   
    173. A(C  14,C  13,C  45)          111.5934         0.358700   
    174. A(N  12,C  13,H  61)          105.1738         0.326826   
    175. A(C  14,C  13,H  61)          105.9190         0.318601   
    176. A(N  12,C  13,C  14)          113.7437         0.365908   
    177. A(C  45,C  13,H  61)          109.9783         0.320635   
    178. A(N  12,C  13,C  45)          110.1124         0.368362   
    179. A(C  13,C  14,N  15)          114.6124         0.390191   
    180. A(N  15,C  14,O  44)          123.5449         0.467161   
    181. A(C  13,C  14,O  44)          121.8240         0.424649   
    182. A(C  14,N  15,H  62)          117.2141         0.355289   
    183. A(C  16,N  15,H  62)          119.4351         0.335352   
    184. A(C  14,N  15,C  16)          121.6221         0.402933   
    185. A(H  63,C  16,H  64)          107.3298         0.287369   
    186. A(C  17,C  16,H  64)          106.3559         0.320850   
    187. A(N  15,C  16,H  63)          107.0064         0.329439   
    188. A(C  17,C  16,H  63)          111.0228         0.321651   
    189. A(N  15,C  16,C  17)          114.8017         0.370022   
    190. A(N  15,C  16,H  64)          110.1150         0.328612   
    191. A(O  43,C  17,H  65)          105.0485         0.334566   
    192. A(C  18,C  17,H  65)          105.9088         0.316266   
    193. A(C  16,C  17,H  65)          104.6097         0.320986   
    194. A(C  16,C  17,C  18)          118.1993         0.355387   
    195. A(C  18,C  17,O  43)          110.1991         0.370981   
    196. A(C  16,C  17,O  43)          111.7024         0.376837   
    197. A(C  19,C  18,H  66)          103.2562         0.318902   
    198. A(C  17,C  18,H  66)          106.3017         0.316567   
    199. A(C  17,C  18,C  32)          115.0372         0.356399   
    200. A(C  17,C  18,C  19)          115.4762         0.352646   
    201. A(C  19,C  18,C  32)          109.8856         0.359144   
    202. A(C  32,C  18,H  66)          105.6172         0.322175   
    203. A(C  18,C  19,N  20)          114.3969         0.388632   
    204. A(N  20,C  19,O  31)          123.3971         0.467233   
    205. A(C  18,C  19,O  31)          122.1543         0.425224   
    206. A(C  19,N  20,H  67)          116.6579         0.355566   
    207. A(C  19,N  20,C  21)          121.7256         0.399603   
    208. A(C  21,N  20,H  67)          118.1631         0.334636   
    209. A(C  27,C  21,H  68)          108.6972         0.320606   
    210. A(C  22,C  21,H  68)          106.7205         0.319470   
    211. A(N  20,C  21,H  68)          105.4032         0.326610   
    212. A(N  20,C  21,C  22)          109.5943         0.366615   
    213. A(C  22,C  21,C  27)          112.4251         0.359599   
    214. A(N  20,C  21,C  27)          113.5324         0.367983   
    215. A(C  21,C  22,N  23)          114.1690         0.390730   
    216. A(C  21,C  22,O  26)          123.3419         0.426474   
    217. A(N  23,C  22,O  26)          122.4837         0.467152   
    218. A(C  22,N  23,C  24)          123.3038         0.402878   
    219. A(C  24,N  23,H  69)          114.4981         0.336472   
    220. A(C  22,N  23,H  69)          120.5520         0.355569   
    221. A(C  25,C  24,H  70)          109.4415         0.320283   
    222. A(N  23,C  24,H  70)          108.7844         0.329309   
    223. A(C   7,C  24,H  70)          111.3212         0.321812   
    224. A(N  23,C  24,C  25)          112.0490         0.369447   
    225. A(C   7,C  24,N  23)          104.7527         0.371301   
    226. A(C   7,C  24,C  25)          110.4279         0.360698   
    227. A(H  71,C  25,H  73)          109.4232         0.288395   
    228. A(C  24,C  25,H  73)          109.7884         0.320827   
    229. A(H  71,C  25,H  72)          108.5571         0.288263   
    230. A(C  24,C  25,H  72)          111.6338         0.320675   
    231. A(C  24,C  25,H  71)          108.9082         0.321152   
    232. A(H  72,C  25,H  73)          108.4977         0.287984   
    233. A(C  28,C  27,H  75)          108.5459         0.320365   
    234. A(C  21,C  27,C  28)          114.3061         0.360268   
    235. A(H  74,C  27,H  75)          107.5294         0.287590   
    236. A(C  21,C  27,H  75)          107.3099         0.320932   
    237. A(C  28,C  27,H  74)          110.4705         0.321271   
    238. A(C  21,C  27,H  74)          108.4280         0.321840   
    239. A(C  29,C  28,C  30)          110.6341         0.362107   
    240. A(C  27,C  28,C  30)          109.4882         0.360929   
    241. A(C  27,C  28,C  29)          111.9858         0.360778   
    242. A(C  30,C  28,H  76)          107.9061         0.321568   
    243. A(C  29,C  28,H  76)          109.0346         0.321438   
    244. A(C  27,C  28,H  76)          107.6604         0.320435   
    245. A(C  28,C  29,H  79)          110.8246         0.321772   
    246. A(H  78,C  29,H  79)          107.9673         0.287316   
    247. A(H  77,C  29,H  79)          107.4503         0.287567   
    248. A(H  77,C  29,H  78)          107.0729         0.287380   
    249. A(C  28,C  29,H  78)          110.6928         0.321552   
    250. A(C  28,C  29,H  77)          112.6241         0.321846   
    251. A(H  81,C  30,H  82)          107.6335         0.287142   
    252. A(H  80,C  30,H  82)          107.8542         0.287242   
    253. A(C  28,C  30,H  82)          110.7533         0.321486   
    254. A(H  80,C  30,H  81)          108.1361         0.287588   
    255. A(C  28,C  30,H  81)          111.2109         0.321892   
    256. A(C  28,C  30,H  80)          111.1063         0.322009   
    257. A(C  33,C  32,O  42)          122.0921         0.435266   
    258. A(C  18,C  32,O  42)          122.3081         0.429611   
    259. A(C  18,C  32,C  33)          115.5854         0.367538   
    260. A(C  32,C  33,C  34)          114.5145         0.369166   
    261. A(C  34,C  33,H  84)          111.9935         0.322448   
    262. A(H  83,C  33,H  84)          104.0362         0.285799   
    263. A(C  32,C  33,H  84)          106.8222         0.324944   
    264. A(C  34,C  33,H  83)          110.9516         0.322684   
    265. A(C  32,C  33,H  83)          107.8837         0.325183   
    266. A(C  33,C  34,C  35)          113.1900         0.364136   
    267. A(H  85,C  34,H  86)          105.9949         0.287706   
    268. A(C  35,C  34,H  86)          108.3124         0.322176   
    269. A(C  33,C  34,H  86)          108.5039         0.323926   
    270. A(C  35,C  34,H  85)          110.4710         0.321716   
    271. A(C  33,C  34,H  85)          110.0775         0.323463   
    272. A(C  34,C  35,C  36)          110.9452         0.363218   
    273. A(H  87,C  35,H  88)          106.2242         0.286024   
    274. A(C  36,C  35,H  88)          111.3337         0.321979   
    275. A(C  34,C  35,H  88)          110.7995         0.321018   
    276. A(C  36,C  35,H  87)          108.4490         0.321858   
    277. A(C  34,C  35,H  87)          108.9211         0.320898   
    278. A(C  35,C  36,C  37)          115.5784         0.362791   
    279. A(H  89,C  36,H  90)          105.1813         0.287470   
    280. A(C  37,C  36,H  90)          108.6321         0.321609   
    281. A(C  35,C  36,H  90)          106.6815         0.322936   
    282. A(C  37,C  36,H  89)          110.4904         0.321283   
    283. A(C  35,C  36,H  89)          109.6897         0.322608   
    284. A(C  36,C  37,C  38)          111.8634         0.360897   
    285. A(H  91,C  37,H  92)          106.0562         0.286410   
    286. A(C  38,C  37,H  92)          110.0828         0.320548   
    287. A(C  36,C  37,H  92)          110.6557         0.320839   
    288. A(C  38,C  37,H  91)          108.4657         0.320520   
    289. A(C  36,C  37,H  91)          109.5244         0.320810   
    290. A(C  37,C  38,C  39)          114.2766         0.361655   
    291. A(H  93,C  38,H  94)          105.9942         0.285880   
    292. A(C  39,C  38,H  94)          109.7436         0.321439   
    293. A(C  37,C  38,H  94)          110.1746         0.320503   
    294. A(C  39,C  38,H  93)          108.4438         0.320878   
    295. A(C  37,C  38,H  93)          107.8455         0.319944   
    296. A(C  38,C  39,C  40)          113.2539         0.362880   
    297. A(H  95,C  39,H  96)          106.1364         0.286397   
    298. A(C  40,C  39,H  96)          108.5586         0.321771   
    299. A(C  38,C  39,H  96)          109.5336         0.321667   
    300. A(C  40,C  39,H  95)          109.4546         0.321363   
    301. A(C  38,C  39,H  95)          109.6514         0.321259   
    302. A(C  39,C  40,C  41)          112.8662         0.363216   
    303. A(H  97,C  40,H  98)          105.5014         0.285976   
    304. A(C  41,C  40,H  98)          109.9493         0.321751   
    305. A(C  39,C  40,H  98)          109.9805         0.321571   
    306. A(C  41,C  40,H  97)          109.4976         0.321248   
    307. A(C  39,C  40,H  97)          108.7738         0.321068   
    308. A(H 100,C  41,H 101)          107.0457         0.287290   
    309. A(H  99,C  41,H 101)          107.5855         0.287445   
    310. A(C  40,C  41,H 101)          111.0243         0.322341   
    311. A(H  99,C  41,H 100)          108.2258         0.287330   
    312. A(C  40,C  41,H 100)          110.8093         0.322206   
    313. A(C  40,C  41,H  99)          111.9511         0.322387   
    314. A(C  17,O  43,H 102)          105.8716         0.350779   
    315. A(C  13,C  45,C  46)          113.4694         0.362404   
    316. A(C  46,C  45,H 104)          109.4075         0.321960   
    317. A(C  13,C  45,H 104)          107.2133         0.320840   
    318. A(C  46,C  45,H 103)          109.4316         0.322367   
    319. A(C  13,C  45,H 103)          109.2897         0.321244   
    320. A(H 103,C  45,H 104)          107.8650         0.286889   
    321. A(H 106,C  46,H 107)          108.7012         0.288050   
    322. A(H 105,C  46,H 107)          107.9129         0.287605   
    323. A(C  45,C  46,H 107)          111.0423         0.322382   
    324. A(H 105,C  46,H 106)          108.1042         0.288396   
    325. A(C  45,C  46,H 106)          110.5101         0.323311   
    326. A(C  45,C  46,H 105)          110.4743         0.322787   
    327. A(C  50,C  48,H 108)          108.3530         0.321934   
    328. A(C  49,C  48,H 108)          109.2172         0.322507   
    329. A(C  10,C  48,H 108)          105.0111         0.318211   
    330. A(C  49,C  48,C  50)          111.3520         0.363065   
    331. A(C  10,C  48,C  50)          111.2716         0.358023   
    332. A(C  10,C  48,C  49)          111.3793         0.358684   
    333. A(H 110,C  49,H 111)          107.8396         0.287643   
    334. A(H 109,C  49,H 111)          108.5414         0.287928   
    335. A(C  48,C  49,H 111)          110.0056         0.322597   
    336. A(H 109,C  49,H 110)          107.2433         0.287954   
    337. A(C  48,C  49,H 110)          111.4076         0.322628   
    338. A(C  48,C  49,H 109)          111.6619         0.322963   
    339. A(H 113,C  50,H 114)          107.1730         0.287439   
    340. A(H 112,C  50,H 114)          108.6411         0.287279   
    341. A(C  48,C  50,H 114)          110.9803         0.321611   
    342. A(H 112,C  50,H 113)          107.5278         0.287806   
    343. A(C  48,C  50,H 113)          110.4562         0.322229   
    344. A(C  48,C  50,H 112)          111.8825         0.322042   
    345. D(H  51,C   2,C   1,N   9)   -159.9189         0.009782   
    346. D(C   3,C   2,C   1,N   9)     77.1119         0.009782   
    347. D(N   6,C   2,C   1,N   9)    -40.2818         0.009782   
    348. D(N   6,C   2,C   1,O   0)    140.9471         0.009782   
    349. D(C   3,C   2,C   1,O   0)   -101.6591         0.009782   
    350. D(H  51,C   2,C   1,O   0)     21.3100         0.009782   
    351. D(C   4,C   3,C   2,N   6)    -26.4039         0.010354   
    352. D(H  53,C   3,C   2,H  51)   -150.6569         0.010354   
    353. D(H  53,C   3,C   2,C   1)    -31.1976         0.010354   
    354. D(C   4,C   3,C   2,H  51)     91.2948         0.010354   
    355. D(H  53,C   3,C   2,N   6)     91.6444         0.010354   
    356. D(H  52,C   3,C   2,H  51)    -31.2551         0.010354   
    357. D(C   4,C   3,C   2,C   1)   -149.2459         0.010354   
    358. D(H  52,C   3,C   2,C   1)     88.2042         0.010354   
    359. D(H  52,C   3,C   2,N   6)   -148.9539         0.010354   
    360. D(H  55,C   4,C   3,H  53)    163.0614         0.010669   
    361. D(H  55,C   4,C   3,H  52)     42.0365         0.010669   
    362. D(H  54,C   4,C   3,H  52)    -79.1348         0.010669   
    363. D(H  55,C   4,C   3,C   2)    -79.0697         0.010669   
    364. D(H  54,C   4,C   3,H  53)     41.8902         0.010669   
    365. D(C   5,C   4,C   3,C   2)     37.9092         0.010669   
    366. D(H  54,C   4,C   3,C   2)    159.7591         0.010669   
    367. D(C   5,C   4,C   3,H  53)    -79.9597         0.010669   
    368. D(C   5,C   4,C   3,H  52)    159.0153         0.010669   
    369. D(N   6,C   5,C   4,C   3)    -34.0563         0.010925   
    370. D(H  57,C   5,C   4,C   3)   -153.8961         0.010925   
    371. D(H  56,C   5,C   4,H  55)   -158.2947         0.010925   
    372. D(H  56,C   5,C   4,C   3)     84.3502         0.010925   
    373. D(H  57,C   5,C   4,H  54)     83.7323         0.010925   
    374. D(H  56,C   5,C   4,H  54)    -38.0214         0.010925   
    375. D(H  57,C   5,C   4,H  55)    -36.5410         0.010925   
    376. D(N   6,C   5,C   4,H  54)   -156.4279         0.010925   
    377. D(N   6,C   5,C   4,H  55)     83.2988         0.010925   
    378. D(C   5,N   6,C   2,C   3)      5.0634         0.013957   
    379. D(C   7,N   6,C   5,H  57)    -34.6704         0.014646   
    380. D(C   7,N   6,C   5,H  56)     85.3338         0.014646   
    381. D(C   7,N   6,C   5,C   4)   -155.8812         0.014646   
    382. D(C   2,N   6,C   5,H  57)    139.5148         0.014646   
    383. D(C   2,N   6,C   5,H  56)   -100.4810         0.014646   
    384. D(C   7,N   6,C   2,H  51)     60.6920         0.013957   
    385. D(C   2,N   6,C   5,C   4)     18.3040         0.014646   
    386. D(C   7,N   6,C   2,C   3)    179.8739         0.013957   
    387. D(C   5,N   6,C   2,C   1)    128.6921         0.013957   
    388. D(C   7,N   6,C   2,C   1)    -56.4974         0.013957   
    389. D(C   5,N   6,C   2,H  51)   -114.1185         0.013957   
    390. D(C  24,C   7,N   6,C   5)     -3.9992         0.032807   
    391. D(C  24,C   7,N   6,C   2)   -177.8900         0.032807   
    392. D(O   8,C   7,N   6,C   5)    176.1740         0.032807   
    393. D(O   8,C   7,N   6,C   2)      2.2832         0.032807   
    394. D(H  58,N   9,C   1,O   0)    173.2552         0.030487   
    395. D(C  10,N   9,C   1,C   2)    172.1706         0.030487   
    396. D(H  58,N   9,C   1,C   2)     -5.4792         0.030487   
    397. D(C  10,N   9,C   1,O   0)     -9.0951         0.030487   
    398. D(H  59,C  10,N   9,C   1)    -24.2678         0.016410   
    399. D(C  48,C  10,N   9,H  58)    -86.6620         0.016410   
    400. D(C  48,C  10,N   9,C   1)     95.6801         0.016410   
    401. D(C  11,C  10,N   9,C   1)   -141.4898         0.016410   
    402. D(H  59,C  10,N   9,H  58)    153.3901         0.016410   
    403. D(C  11,C  10,N   9,H  58)     36.1681         0.016410   
    404. D(O  47,C  11,C  10,N   9)   -164.6765         0.009915   
    405. D(N  12,C  11,C  10,H  59)   -105.3080         0.009915   
    406. D(N  12,C  11,C  10,C  48)    136.5090         0.009915   
    407. D(N  12,C  11,C  10,N   9)     11.1685         0.009915   
    408. D(O  47,C  11,C  10,H  59)     78.8470         0.009915   
    409. D(O  47,C  11,C  10,C  48)    -39.3360         0.009915   
    410. D(H  60,N  12,C  11,O  47)   -162.6196         0.030481   
    411. D(H  60,N  12,C  11,C  10)     21.5516         0.030481   
    412. D(C  13,N  12,C  11,O  47)     14.7363         0.030481   
    413. D(C  13,N  12,C  11,C  10)   -161.0924         0.030481   
    414. D(H  61,C  13,N  12,C  11)     26.5196         0.015579   
    415. D(H  61,C  13,N  12,H  60)   -156.1025         0.015579   
    416. D(C  45,C  13,N  12,H  60)    -37.6580         0.015579   
    417. D(C  45,C  13,N  12,C  11)    144.9642         0.015579   
    418. D(C  14,C  13,N  12,C  11)    -88.9329         0.015579   
    419. D(C  14,C  13,N  12,H  60)     88.4450         0.015579   
    420. D(O  44,C  14,C  13,C  45)    -13.4787         0.009391   
    421. D(O  44,C  14,C  13,N  12)   -138.7969         0.009391   
    422. D(N  15,C  14,C  13,H  61)    -75.3260         0.009391   
    423. D(N  15,C  14,C  13,C  45)    165.0047         0.009391   
    424. D(O  44,C  14,C  13,H  61)    106.1906         0.009391   
    425. D(N  15,C  14,C  13,N  12)     39.6865         0.009391   
    426. D(H  62,N  15,C  14,O  44)   -169.8684         0.031095   
    427. D(H  62,N  15,C  14,C  13)     11.6777         0.031095   
    428. D(C  16,N  15,C  14,O  44)     -4.9401         0.031095   
    429. D(C  16,N  15,C  14,C  13)    176.6060         0.031095   
    430. D(H  64,C  16,N  15,H  62)     70.0158         0.016464   
    431. D(H  64,C  16,N  15,C  14)    -94.5864         0.016464   
    432. D(H  63,C  16,N  15,H  62)   -173.6412         0.016464   
    433. D(H  63,C  16,N  15,C  14)     21.7566         0.016464   
    434. D(C  17,C  16,N  15,C  14)    145.4394         0.016464   
    435. D(C  17,C  16,N  15,H  62)    -49.9584         0.016464   
    436. D(H  65,C  17,C  16,H  64)     61.4891         0.010739   
    437. D(H  65,C  17,C  16,H  63)    -54.9573         0.010739   
    438. D(H  65,C  17,C  16,N  15)   -176.4754         0.010739   
    439. D(O  43,C  17,C  16,H  64)    -51.6225         0.010739   
    440. D(O  43,C  17,C  16,H  63)   -168.0690         0.010739   
    441. D(O  43,C  17,C  16,N  15)     70.4130         0.010739   
    442. D(C  18,C  17,C  16,H  64)    178.9521         0.010739   
    443. D(C  18,C  17,C  16,H  63)     62.5057         0.010739   
    444. D(C  18,C  17,C  16,N  15)    -59.0124         0.010739   
    445. D(H  66,C  18,C  17,H  65)    -40.2391         0.009087   
    446. D(H  66,C  18,C  17,O  43)     72.8731         0.009087   
    447. D(H  66,C  18,C  17,C  16)   -157.0100         0.009087   
    448. D(C  32,C  18,C  17,O  43)    -43.6257         0.009087   
    449. D(C  32,C  18,C  17,C  16)     86.4912         0.009087   
    450. D(C  32,C  18,C  17,H  65)   -156.7379         0.009087   
    451. D(C  19,C  18,C  17,H  65)     73.5886         0.009087   
    452. D(C  19,C  18,C  17,O  43)   -173.2992         0.009087   
    453. D(C  19,C  18,C  17,C  16)    -43.1823         0.009087   
    454. D(O  31,C  19,C  18,H  66)      8.6577         0.009253   
    455. D(O  31,C  19,C  18,C  32)    120.9497         0.009253   
    456. D(O  31,C  19,C  18,C  17)   -106.9171         0.009253   
    457. D(N  20,C  19,C  18,H  66)   -168.8095         0.009253   
    458. D(N  20,C  19,C  18,C  17)     75.6158         0.009253   
    459. D(N  20,C  19,C  18,C  32)    -56.5174         0.009253   
    460. D(H  67,N  20,C  19,O  31)    168.1900         0.030118   
    461. D(H  67,N  20,C  19,C  18)    -14.3785         0.030118   
    462. D(C  21,N  20,C  19,O  31)      9.5571         0.030118   
    463. D(C  21,N  20,C  19,C  18)   -173.0114         0.030118   
    464. D(H  68,C  21,N  20,H  67)    158.0507         0.015433   
    465. D(H  68,C  21,N  20,C  19)    -43.6242         0.015433   
    466. D(C  27,C  21,N  20,H  67)    -83.0906         0.015433   
    467. D(C  27,C  21,N  20,C  19)     75.2345         0.015433   
    468. D(C  22,C  21,N  20,H  67)     43.5416         0.015433   
    469. D(C  22,C  21,N  20,C  19)   -158.1334         0.015433   
    470. D(N  23,C  22,C  21,C  27)    162.2699         0.009669   
    471. D(N  23,C  22,C  21,N  20)     35.0134         0.009669   
    472. D(O  26,C  22,C  21,H  68)    100.5231         0.009669   
    473. D(O  26,C  22,C  21,C  27)    -18.5597         0.009669   
    474. D(O  26,C  22,C  21,N  20)   -145.8162         0.009669   
    475. D(N  23,C  22,C  21,H  68)    -78.6473         0.009669   
    476. D(H  69,N  23,C  22,O  26)   -173.3810         0.030559   
    477. D(H  69,N  23,C  22,C  21)      5.7973         0.030559   
    478. D(C  24,N  23,C  22,O  26)     -8.8191         0.030559   
    479. D(C  24,N  23,C  22,C  21)    170.3593         0.030559   
    480. D(H  70,C  24,N  23,H  69)   -141.9331         0.016708   
    481. D(H  70,C  24,N  23,C  22)     52.6579         0.016708   
    482. D(C  25,C  24,N  23,H  69)     96.9310         0.016708   
    483. D(C  25,C  24,N  23,C  22)    -68.4779         0.016708   
    484. D(C   7,C  24,N  23,H  69)    -22.8087         0.016708   
    485. D(C   7,C  24,N  23,C  22)    171.7824         0.016708   
    486. D(H  70,C  24,C   7,O   8)    143.5795         0.010303   
    487. D(H  70,C  24,C   7,N   6)    -36.2493         0.010303   
    488. D(C  25,C  24,C   7,O   8)    -94.6413         0.010303   
    489. D(C  25,C  24,C   7,N   6)     85.5299         0.010303   
    490. D(N  23,C  24,C   7,O   8)     26.1776         0.010303   
    491. D(N  23,C  24,C   7,N   6)   -153.6513         0.010303   
    492. D(H  73,C  25,C  24,H  70)    179.3394         0.010417   
    493. D(H  73,C  25,C  24,N  23)    -59.9046         0.010417   
    494. D(H  73,C  25,C  24,C   7)     56.4566         0.010417   
    495. D(H  72,C  25,C  24,H  70)     58.9798         0.010417   
    496. D(H  72,C  25,C  24,N  23)    179.7358         0.010417   
    497. D(H  72,C  25,C  24,C   7)    -63.9029         0.010417   
    498. D(H  71,C  25,C  24,H  70)    -60.8714         0.010417   
    499. D(H  71,C  25,C  24,N  23)     59.8847         0.010417   
    500. D(H  71,C  25,C  24,C   7)    176.2459         0.010417   
    501. D(H  75,C  27,C  21,H  68)     80.4803         0.010742   
    502. D(H  75,C  27,C  21,C  22)   -161.5994         0.010742   
    503. D(H  75,C  27,C  21,N  20)    -36.4704         0.010742   
    504. D(H  74,C  27,C  21,H  68)   -163.6467         0.010742   
    505. D(H  74,C  27,C  21,C  22)    -45.7264         0.010742   
    506. D(H  74,C  27,C  21,N  20)     79.4026         0.010742   
    507. D(C  28,C  27,C  21,H  68)    -39.9382         0.010742   
    508. D(C  28,C  27,C  21,C  22)     77.9821         0.010742   
    509. D(C  28,C  27,C  21,N  20)   -156.8889         0.010742   
    510. D(H  76,C  28,C  27,H  75)   -170.9153         0.010527   
    511. D(H  76,C  28,C  27,H  74)     71.4170         0.010527   
    512. D(H  76,C  28,C  27,C  21)    -51.1873         0.010527   
    513. D(C  30,C  28,C  27,H  75)     72.0234         0.010527   
    514. D(C  30,C  28,C  27,H  74)    -45.6443         0.010527   
    515. D(C  30,C  28,C  27,C  21)   -168.2487         0.010527   
    516. D(C  29,C  28,C  27,H  75)    -51.0703         0.010527   
    517. D(C  29,C  28,C  27,H  74)   -168.7380         0.010527   
    518. D(C  29,C  28,C  27,C  21)     68.6576         0.010527   
    519. D(H  79,C  29,C  28,C  30)     59.1607         0.010910   
    520. D(H  79,C  29,C  28,C  27)   -178.3957         0.010910   
    521. D(H  78,C  29,C  28,H  76)   -179.1245         0.010910   
    522. D(H  78,C  29,C  28,C  30)    -60.6056         0.010910   
    523. D(H  78,C  29,C  28,C  27)     61.8379         0.010910   
    524. D(H  77,C  29,C  28,H  76)     61.0462         0.010910   
    525. D(H  77,C  29,C  28,C  30)    179.5652         0.010910   
    526. D(H  79,C  29,C  28,H  76)    -59.3582         0.010910   
    527. D(H  77,C  29,C  28,C  27)    -57.9913         0.010910   
    528. D(H  82,C  30,C  28,H  76)   -177.7021         0.010960   
    529. D(H  82,C  30,C  28,C  29)     63.0950         0.010960   
    530. D(H  82,C  30,C  28,C  27)    -60.7956         0.010960   
    531. D(H  81,C  30,C  28,H  76)     62.6579         0.010960   
    532. D(H  81,C  30,C  28,C  29)    -56.5450         0.010960   
    533. D(H  81,C  30,C  28,C  27)    179.5644         0.010960   
    534. D(H  80,C  30,C  28,H  76)    -57.8534         0.010960   
    535. D(H  80,C  30,C  28,C  29)   -177.0563         0.010960   
    536. D(H  80,C  30,C  28,C  27)     59.0532         0.010960   
    537. D(O  42,C  32,C  18,H  66)   -129.1885         0.010380   
    538. D(O  42,C  32,C  18,C  19)    120.0610         0.010380   
    539. D(O  42,C  32,C  18,C  17)    -12.3003         0.010380   
    540. D(C  33,C  32,C  18,H  66)     49.4560         0.010380   
    541. D(C  33,C  32,C  18,C  19)    -61.2946         0.010380   
    542. D(C  33,C  32,C  18,C  17)    166.3441         0.010380   
    543. D(H  84,C  33,C  32,O  42)    115.5266         0.011908   
    544. D(H  84,C  33,C  32,C  18)    -63.1211         0.011908   
    545. D(H  83,C  33,C  32,O  42)   -133.1396         0.011908   
    546. D(H  83,C  33,C  32,C  18)     48.2127         0.011908   
    547. D(C  34,C  33,C  32,O  42)     -9.0762         0.011908   
    548. D(C  34,C  33,C  32,C  18)    172.2762         0.011908   
    549. D(H  86,C  34,C  33,H  84)   -167.4385         0.011636   
    550. D(H  86,C  34,C  33,H  83)     76.7928         0.011636   
    551. D(H  86,C  34,C  33,C  32)    -45.6202         0.011636   
    552. D(H  85,C  34,C  33,H  84)    -51.8632         0.011636   
    553. D(H  85,C  34,C  33,H  83)   -167.6319         0.011636   
    554. D(H  85,C  34,C  33,C  32)     69.9552         0.011636   
    555. D(C  35,C  34,C  33,H  84)     72.3083         0.011636   
    556. D(C  35,C  34,C  33,H  83)    -43.4603         0.011636   
    557. D(C  35,C  34,C  33,C  32)   -165.8733         0.011636   
    558. D(H  88,C  35,C  34,H  86)    168.2978         0.010932   
    559. D(H  88,C  35,C  34,H  85)     52.6165         0.010932   
    560. D(H  88,C  35,C  34,C  33)    -71.3400         0.010932   
    561. D(H  87,C  35,C  34,H  86)    -75.2048         0.010932   
    562. D(H  87,C  35,C  34,H  85)    169.1139         0.010932   
    563. D(H  87,C  35,C  34,C  33)     45.1573         0.010932   
    564. D(C  36,C  35,C  34,H  86)     44.0973         0.010932   
    565. D(C  36,C  35,C  34,H  85)    -71.5840         0.010932   
    566. D(C  36,C  35,C  34,C  33)    164.4595         0.010932   
    567. D(H  90,C  36,C  35,H  87)     65.6573         0.011314   
    568. D(H  90,C  36,C  35,C  34)    -53.9277         0.011314   
    569. D(H  89,C  36,C  35,H  88)    -64.3962         0.011314   
    570. D(H  89,C  36,C  35,H  87)    179.0848         0.011314   
    571. D(H  89,C  36,C  35,C  34)     59.4998         0.011314   
    572. D(C  37,C  36,C  35,H  88)     61.2990         0.011314   
    573. D(C  37,C  36,C  35,H  87)    -55.2200         0.011314   
    574. D(H  90,C  36,C  35,H  88)   -177.8237         0.011314   
    575. D(C  37,C  36,C  35,C  34)   -174.8050         0.011314   
    576. D(H  92,C  37,C  36,H  90)    153.6099         0.010792   
    577. D(H  92,C  37,C  36,H  89)     38.7109         0.010792   
    578. D(H  92,C  37,C  36,C  35)    -86.5734         0.010792   
    579. D(H  91,C  37,C  36,H  90)    -89.8201         0.010792   
    580. D(H  91,C  37,C  36,H  89)    155.2810         0.010792   
    581. D(H  91,C  37,C  36,C  35)     29.9966         0.010792   
    582. D(C  38,C  37,C  36,H  90)     30.4707         0.010792   
    583. D(C  38,C  37,C  36,H  89)    -84.4282         0.010792   
    584. D(C  38,C  37,C  36,C  35)    150.2874         0.010792   
    585. D(H  94,C  38,C  37,H  92)     56.3920         0.010680   
    586. D(H  94,C  38,C  37,H  91)    -59.2379         0.010680   
    587. D(H  94,C  38,C  37,C  36)    179.8550         0.010680   
    588. D(H  93,C  38,C  37,H  92)    171.6490         0.010680   
    589. D(H  93,C  38,C  37,H  91)     56.0190         0.010680   
    590. D(H  93,C  38,C  37,C  36)    -64.8881         0.010680   
    591. D(C  39,C  38,C  37,H  92)    -67.6998         0.010680   
    592. D(C  39,C  38,C  37,H  91)    176.6702         0.010680   
    593. D(C  39,C  38,C  37,C  36)     55.7632         0.010680   
    594. D(H  95,C  39,C  38,H  94)    -60.1327         0.011044   
    595. D(H  95,C  39,C  38,H  93)   -175.4924         0.011044   
    596. D(H  95,C  39,C  38,C  37)     64.1893         0.011044   
    597. D(C  40,C  39,C  38,H  94)     62.4406         0.011044   
    598. D(C  40,C  39,C  38,H  93)    -52.9191         0.011044   
    599. D(C  40,C  39,C  38,C  37)   -173.2373         0.011044   
    600. D(H  96,C  39,C  38,H  94)   -176.2255         0.011044   
    601. D(H  96,C  39,C  38,H  93)     68.4148         0.011044   
    602. D(H  96,C  39,C  38,C  37)    -51.9034         0.011044   
    603. D(H  98,C  40,C  39,H  95)     61.9102         0.011085   
    604. D(H  98,C  40,C  39,C  38)    -60.7723         0.011085   
    605. D(H  97,C  40,C  39,H  96)    -67.5691         0.011085   
    606. D(H  97,C  40,C  39,H  95)    176.9943         0.011085   
    607. D(H  97,C  40,C  39,C  38)     54.3118         0.011085   
    608. D(C  41,C  40,C  39,H  96)     54.1623         0.011085   
    609. D(C  41,C  40,C  39,H  95)    -61.2742         0.011085   
    610. D(H  98,C  40,C  39,H  96)    177.3468         0.011085   
    611. D(C  41,C  40,C  39,C  38)    176.0433         0.011085   
    612. D(H 101,C  41,C  40,H  98)    -61.5634         0.011157   
    613. D(H 101,C  41,C  40,H  97)   -177.0396         0.011157   
    614. D(H 101,C  41,C  40,C  39)     61.6383         0.011157   
    615. D(H 100,C  41,C  40,H  98)    179.6186         0.011157   
    616. D(H 100,C  41,C  40,H  97)     64.1424         0.011157   
    617. D(H 100,C  41,C  40,C  39)    -57.1797         0.011157   
    618. D(H  99,C  41,C  40,H  98)     58.6937         0.011157   
    619. D(H  99,C  41,C  40,H  97)    -56.7825         0.011157   
    620. D(H  99,C  41,C  40,C  39)   -178.1046         0.011157   
    621. D(H 102,O  43,C  17,H  65)    169.2858         0.018839   
    622. D(H 102,O  43,C  17,C  18)     55.6228         0.018839   
    623. D(H 102,O  43,C  17,C  16)    -77.8766         0.018839   
    624. D(H 104,C  45,C  13,H  61)     79.6897         0.010767   
    625. D(H 104,C  45,C  13,C  14)   -163.0679         0.010767   
    626. D(H 104,C  45,C  13,N  12)    -35.7602         0.010767   
    627. D(H 103,C  45,C  13,H  61)   -163.6506         0.010767   
    628. D(H 103,C  45,C  13,C  14)    -46.4082         0.010767   
    629. D(H 103,C  45,C  13,N  12)     80.8996         0.010767   
    630. D(C  46,C  45,C  13,H  61)    -41.2242         0.010767   
    631. D(C  46,C  45,C  13,C  14)     76.0182         0.010767   
    632. D(C  46,C  45,C  13,N  12)   -156.6740         0.010767   
    633. D(H 107,C  46,C  45,H 104)    -60.5684         0.011207   
    634. D(H 107,C  46,C  45,H 103)   -178.5498         0.011207   
    635. D(H 107,C  46,C  45,C  13)     59.1024         0.011207   
    636. D(H 106,C  46,C  45,H 104)    178.7206         0.011207   
    637. D(H 106,C  46,C  45,H 103)     60.7391         0.011207   
    638. D(H 106,C  46,C  45,C  13)    -61.6086         0.011207   
    639. D(H 105,C  46,C  45,H 104)     59.1284         0.011207   
    640. D(H 105,C  46,C  45,H 103)    -58.8531         0.011207   
    641. D(H 105,C  46,C  45,C  13)    178.7992         0.011207   
    642. D(H 108,C  48,C  10,H  59)    -65.3930         0.009624   
    643. D(H 108,C  48,C  10,C  11)     52.0885         0.009624   
    644. D(H 108,C  48,C  10,N   9)    175.9927         0.009624   
    645. D(C  50,C  48,C  10,H  59)    177.5919         0.009624   
    646. D(C  50,C  48,C  10,C  11)    -64.9266         0.009624   
    647. D(C  50,C  48,C  10,N   9)     58.9776         0.009624   
    648. D(C  49,C  48,C  10,H  59)     52.7023         0.009624   
    649. D(C  49,C  48,C  10,C  11)    170.1837         0.009624   
    650. D(C  49,C  48,C  10,N   9)    -65.9120         0.009624   
    651. D(H 111,C  49,C  48,C  50)     59.5589         0.011209   
    652. D(H 111,C  49,C  48,C  10)   -175.5965         0.011209   
    653. D(H 110,C  49,C  48,H 108)   -179.5972         0.011209   
    654. D(H 110,C  49,C  48,C  50)    -59.9740         0.011209   
    655. D(H 110,C  49,C  48,C  10)     64.8706         0.011209   
    656. D(H 109,C  49,C  48,H 108)     60.5150         0.011209   
    657. D(H 109,C  49,C  48,C  50)   -179.8618         0.011209   
    658. D(H 111,C  49,C  48,H 108)    -60.0643         0.011209   
    659. D(H 109,C  49,C  48,C  10)    -55.0172         0.011209   
    660. D(H 114,C  50,C  48,H 108)   -179.1285         0.010983   
    661. D(H 114,C  50,C  48,C  49)     60.7367         0.010983   
    662. D(H 114,C  50,C  48,C  10)    -64.1682         0.010983   
    663. D(H 113,C  50,C  48,H 108)     62.1506         0.010983   
    664. D(H 113,C  50,C  48,C  49)    -57.9842         0.010983   
    665. D(H 113,C  50,C  48,C  10)    177.1108         0.010983   
    666. D(H 112,C  50,C  48,H 108)    -57.5993         0.010983   
    667. D(H 112,C  50,C  48,C  49)   -177.7341         0.010983   
    668. D(H 112,C  50,C  48,C  10)     57.3610         0.010983   
    -----------------------------------------------------------------

Number of atoms                         .... 115
Number of degrees of freedom            .... 668

         *************************************************************
         *                GEOMETRY OPTIMIZATION CYCLE   1            *
         *************************************************************
---------------------------------
CARTESIAN COORDINATES (ANGSTROEM)
---------------------------------
  O      1.832273    2.567655   -2.731496
  C      2.243509    2.411307   -1.588390
  C      1.931722    3.424648   -0.472129
  C      3.095918    4.380190   -0.147636
  C      2.915661    4.683188    1.347673
  C      2.455053    3.340685    1.926632
  N      1.651928    2.779527    0.828355
  C      0.656615    1.861939    0.896922
  O      0.021955    1.537872   -0.116748
  N      3.025213    1.366120   -1.189652
  C      3.325172    0.197881   -2.005700
  C      3.339138   -1.079287   -1.149746
  N      2.857020   -0.982925    0.123366
  C      3.170795   -1.969367    1.157669
  C      2.181561   -3.155899    1.206602
  N      1.777244   -3.608131   -0.013101
  C      0.904091   -4.765304   -0.147111
  C     -0.090820   -4.689712   -1.314054
  C     -1.103107   -3.503033   -1.344067
  C     -1.766662   -3.159543    0.011431
  N     -0.954506   -2.492390    0.884345
  C     -1.364566   -2.221085    2.263949
  C     -0.551498   -1.036331    2.821343
  N     -0.260513   -0.074885    1.897977
  C      0.314880    1.214945    2.242760
  C     -0.673059    2.097347    3.027837
  O     -0.204484   -0.948700    3.997887
  C     -1.302339   -3.454717    3.175817
  C     -2.213485   -3.374489    4.412605
  C     -3.698452   -3.434687    4.036380
  C     -1.856480   -4.503994    5.384723
  O     -2.940852   -3.426713    0.250397
  C     -0.583954   -2.225281   -2.008270
  C     -1.632365   -1.187429   -2.335066
  C     -1.073783    0.143788   -2.822678
  C     -2.111236    1.272092   -2.816959
  C     -1.434756    2.636653   -2.937547
  C     -2.365865    3.850676   -2.817817
  C     -1.642014    5.070894   -2.228845
  C     -0.383360    5.486851   -2.995433
  C      0.408743    6.596799   -2.299854
  C      1.713222    6.938473   -3.022333
  O      0.603191   -2.062981   -2.282154
  O      0.565366   -4.809620   -2.575549
  O      1.779323   -3.622755    2.273347
  C      3.294742   -1.280524    2.523791
  C      4.142429   -2.064436    3.526440
  O      3.838697   -2.126057   -1.572962
  C      4.673471    0.309161   -2.765179
  C      4.632450    1.421385   -3.813788
  C      5.843797    0.500064   -1.795003
  H      1.040024    3.970071   -0.813043
  H      3.068214    5.273275   -0.781667
  H      4.058568    3.875166   -0.321900
  H      3.830336    5.053694    1.826818
  H      2.126263    5.436046    1.488832
  H      3.314929    2.686874    2.156300
  H      1.858225    3.446702    2.840084
  H      3.397636    1.385818   -0.245468
  H      2.507388    0.105455   -2.738242
  H      2.224872   -0.222084    0.358096
  H      4.144025   -2.398529    0.861949
  H      2.286828   -3.263919   -0.833191
  H      0.379768   -4.884737    0.810600
  H      1.503855   -5.676126   -0.308974
  H     -0.699300   -5.603435   -1.220114
  H     -1.950161   -3.835251   -1.962613
  H      0.042091   -2.486017    0.668351
  H     -2.413208   -1.883067    2.197033
  H     -0.647587   -0.127356    0.954029
  H      1.219282    1.049208    2.848386
  H     -0.952182    1.580917    3.953942
  H     -0.229734    3.068448    3.288883
  H     -1.572722    2.276097    2.423987
  H     -0.258802   -3.610912    3.477381
  H     -1.607082   -4.324712    2.571756
  H     -2.009091   -2.416418    4.916752
  H     -3.992350   -2.632290    3.344294
  H     -3.936532   -4.390121    3.543423
  H     -4.332409   -3.347256    4.931087
  H     -0.805464   -4.437158    5.700502
  H     -2.487478   -4.468468    6.285130
  H     -2.005187   -5.488194    4.911431
  H     -2.261733   -1.046962   -1.438233
  H     -2.316340   -1.645028   -3.073718
  H     -0.638782    0.025951   -3.826769
  H     -0.243531    0.435099   -2.165475
  H     -2.668796    1.241284   -1.863631
  H     -2.858191    1.121996   -3.616212
  H     -0.858803    2.683631   -3.874669
  H     -0.684619    2.688934   -2.135691
  H     -3.217144    3.599295   -2.162332
  H     -2.801141    4.105568   -3.799024
  H     -1.353518    4.824899   -1.189420
  H     -2.334992    5.926718   -2.157619
  H     -0.659717    5.814615   -4.013262
  H      0.275934    4.612745   -3.123490
  H      0.632529    6.279090   -1.264409
  H     -0.215649    7.501254   -2.202362
  H      2.286113    7.713619   -2.492123
  H      2.350770    6.046307   -3.121365
  H      1.515851    7.308401   -4.039634
  H      0.969768   -3.933632   -2.751885
  H      2.289373   -1.118492    2.941910
  H      3.752497   -0.292125    2.350610
  H      4.216027   -1.518603    4.477086
  H      3.690964   -3.042300    3.729251
  H      5.163322   -2.219298    3.145042
  H      4.796854   -0.660356   -3.270284
  H      3.794052    1.290865   -4.510360
  H      4.516830    2.409769   -3.346159
  H      5.568542    1.429124   -4.390818
  H      5.905402   -0.316720   -1.061406
  H      6.796011    0.525706   -2.342358
  H      5.754670    1.454837   -1.252365

----------------------------
CARTESIAN COORDINATES (A.U.)
----------------------------
  NO LB      ZA    FRAG     MASS         X           Y           Z
   0 O     8.0000    0    15.999    3.462494    4.852165   -5.161780
   1 C     6.0000    0    12.011    4.239617    4.556710   -3.001623
   2 C     6.0000    0    12.011    3.650425    6.471647   -0.892195
   3 C     6.0000    0    12.011    5.850437    8.277359   -0.278992
   4 C     6.0000    0    12.011    5.509801    8.849944    2.546733
   5 C     6.0000    0    12.011    4.639378    6.312980    3.640808
   6 N     7.0000    0    14.007    3.121691    5.252545    1.565364
   7 C     6.0000    0    12.011    1.240822    3.518555    1.694937
   8 O     8.0000    0    15.999    0.041489    2.906157   -0.220622
   9 N     7.0000    0    14.007    5.716824    2.581592   -2.248116
  10 C     6.0000    0    12.011    6.283665    0.373940   -3.790224
  11 C     6.0000    0    12.011    6.310056   -2.039557   -2.172705
  12 N     7.0000    0    14.007    5.398986   -1.857460    0.233127
  13 C     6.0000    0    12.011    5.991935   -3.721563    2.187678
  14 C     6.0000    0    12.011    4.122553   -5.963785    2.280147
  15 N     7.0000    0    14.007    3.358505   -6.818380   -0.024757
  16 C     6.0000    0    12.011    1.708485   -9.005119   -0.278000
  17 C     6.0000    0    12.011   -0.171625   -8.862272   -2.483203
  18 C     6.0000    0    12.011   -2.084570   -6.619773   -2.539918
  19 C     6.0000    0    12.011   -3.338507   -5.970672    0.021601
  20 N     7.0000    0    14.007   -1.803755   -4.709934    1.671170
  21 C     6.0000    0    12.011   -2.578657   -4.197243    4.278244
  22 C     6.0000    0    12.011   -1.042180   -1.958382    5.331566
  23 N     7.0000    0    14.007   -0.492299   -0.141512    3.586658
  24 C     6.0000    0    12.011    0.595038    2.295913    4.238202
  25 C     6.0000    0    12.011   -1.271897    3.963412    5.721782
  26 O     8.0000    0    15.999   -0.386418   -1.792784    7.554912
  27 C     6.0000    0    12.011   -2.461064   -6.528469    6.001424
  28 C     6.0000    0    12.011   -4.182880   -6.376861    8.338614
  29 C     6.0000    0    12.011   -6.989061   -6.490618    7.627652
  30 C     6.0000    0    12.011   -3.508240   -8.511315   10.175651
  31 O     8.0000    0    15.999   -5.557405   -6.475548    0.473183
  32 C     6.0000    0    12.011   -1.103513   -4.205172   -3.795080
  33 C     6.0000    0    12.011   -3.084722   -2.243916   -4.412635
  34 C     6.0000    0    12.011   -2.029155    0.271719   -5.334088
  35 C     6.0000    0    12.011   -3.989659    2.403905   -5.323282
  36 C     6.0000    0    12.011   -2.711295    4.982553   -5.551160
  37 C     6.0000    0    12.011   -4.470836    7.276723   -5.324902
  38 C     6.0000    0    12.011   -3.102956    9.582601   -4.211906
  39 C     6.0000    0    12.011   -0.724445   10.368646   -5.660547
  40 C     6.0000    0    12.011    0.772412   12.466143   -4.346095
  41 C     6.0000    0    12.011    3.237520   13.111815   -5.711381
  42 O     8.0000    0    15.999    1.139865   -3.898470   -4.312646
  43 O     8.0000    0    15.999    1.068387   -9.088864   -4.867082
  44 O     8.0000    0    15.999    3.362433   -6.846014    4.296003
  45 C     6.0000    0    12.011    6.226160   -2.419839    4.769274
  46 C     6.0000    0    12.011    7.828055   -3.901219    6.664006
  47 O     8.0000    0    15.999    7.254087   -4.017666   -2.972467
  48 C     6.0000    0    12.011    8.831580    0.584229   -5.225431
  49 C     6.0000    0    12.011    8.754061    2.686029   -7.207015
  50 C     6.0000    0    12.011   11.043176    0.944985   -3.392065
  51 H     1.0000    0     1.008    1.965360    7.502348   -1.536429
  52 H     1.0000    0     1.008    5.798085    9.965046   -1.477137
  53 H     1.0000    0     1.008    7.669582    7.323002   -0.608302
  54 H     1.0000    0     1.008    7.238286    9.550097    3.452186
  55 H     1.0000    0     1.008    4.018055   10.272639    2.813484
  56 H     1.0000    0     1.008    6.264307    5.077456    4.074816
  57 H     1.0000    0     1.008    3.511536    6.513324    5.366980
  58 H     1.0000    0     1.008    6.420602    2.618817   -0.463867
  59 H     1.0000    0     1.008    4.738277    0.199281   -5.174528
  60 H     1.0000    0     1.008    4.204399   -0.419679    0.676704
  61 H     1.0000    0     1.008    7.831073   -4.532562    1.628848
  62 H     1.0000    0     1.008    4.321479   -6.167912   -1.574502
  63 H     1.0000    0     1.008    0.717657   -9.230815    1.531812
  64 H     1.0000    0     1.008    2.841875  -10.726323   -0.583876
  65 H     1.0000    0     1.008   -1.321485  -10.588958   -2.305681
  66 H     1.0000    0     1.008   -3.685270   -7.247573   -3.708801
  67 H     1.0000    0     1.008    0.079541   -4.697891    1.263000
  68 H     1.0000    0     1.008   -4.560302   -3.558480    4.151790
  69 H     1.0000    0     1.008   -1.223762   -0.240668    1.802854
  70 H     1.0000    0     1.008    2.304110    1.982715    5.382670
  71 H     1.0000    0     1.008   -1.799363    2.987501    7.471868
  72 H     1.0000    0     1.008   -0.434134    5.798526    6.215089
  73 H     1.0000    0     1.008   -2.972014    4.301200    4.580672
  74 H     1.0000    0     1.008   -0.489065   -6.823635    6.571299
  75 H     1.0000    0     1.008   -3.036945   -8.172521    4.859914
  76 H     1.0000    0     1.008   -3.796631   -4.566368    9.291315
  77 H     1.0000    0     1.008   -7.544448   -4.974308    6.319801
  78 H     1.0000    0     1.008   -7.438968   -8.296127    6.696098
  79 H     1.0000    0     1.008   -8.187066   -6.325398    9.318405
  80 H     1.0000    0     1.008   -1.522107   -8.385013   10.772389
  81 H     1.0000    0     1.008   -4.700652   -8.444180   11.877175
  82 H     1.0000    0     1.008   -3.789255  -10.371184    9.281259
  83 H     1.0000    0     1.008   -4.274056   -1.978471   -2.717867
  84 H     1.0000    0     1.008   -4.377249   -3.108653   -5.808486
  85 H     1.0000    0     1.008   -1.207123    0.049040   -7.231546
  86 H     1.0000    0     1.008   -0.460207    0.822219   -4.092155
  87 H     1.0000    0     1.008   -5.043294    2.345687   -3.521752
  88 H     1.0000    0     1.008   -5.401198    2.120264   -6.833651
  89 H     1.0000    0     1.008   -1.622902    5.071328   -7.322063
  90 H     1.0000    0     1.008   -1.293742    5.081349   -4.035872
  91 H     1.0000    0     1.008   -6.079521    6.801683   -4.086215
  92 H     1.0000    0     1.008   -5.293390    7.758400   -7.179115
  93 H     1.0000    0     1.008   -2.557779    9.117738   -2.247678
  94 H     1.0000    0     1.008   -4.412495   11.199874   -4.077310
  95 H     1.0000    0     1.008   -1.246684   10.988030   -7.583966
  96 H     1.0000    0     1.008    0.521439    8.716825   -5.902541
  97 H     1.0000    0     1.008    1.195306   11.865760   -2.389387
  98 H     1.0000    0     1.008   -0.407518   14.175316   -4.161861
  99 H     1.0000    0     1.008    4.320128   14.576627   -4.709430
 100 H     1.0000    0     1.008    4.442312   11.425865   -5.898526
 101 H     1.0000    0     1.008    2.864542   13.810876   -7.633803
 102 H     1.0000    0     1.008    1.832596   -7.433487   -5.200308
 103 H     1.0000    0     1.008    4.326288   -2.113644    5.559404
 104 H     1.0000    0     1.008    7.091191   -0.552037    4.442009
 105 H     1.0000    0     1.008    7.967137   -2.869745    8.460466
 106 H     1.0000    0     1.008    6.974910   -5.749114    7.047263
 107 H     1.0000    0     1.008    9.757264   -4.193866    5.943268
 108 H     1.0000    0     1.008    9.064740   -1.247892   -6.179941
 109 H     1.0000    0     1.008    7.169718    2.439382   -8.523345
 110 H     1.0000    0     1.008    8.535571    4.553804   -6.323324
 111 H     1.0000    0     1.008   10.523020    2.700654   -8.297444
 112 H     1.0000    0     1.008   11.159593   -0.598514   -2.005767
 113 H     1.0000    0     1.008   12.842600    0.993441   -4.426416
 114 H     1.0000    0     1.008   10.874750    2.749244   -2.366628

--------------------------------
INTERNAL COORDINATES (ANGSTROEM)
--------------------------------
 O      0   0   0     0.000000000000     0.00000000     0.00000000
 C      1   0   0     1.224847382681     0.00000000     0.00000000
 C      2   1   0     1.539516049193   121.64591775     0.00000000
 C      3   2   1     1.540684415410   114.07364865   258.34086080
 C      4   3   2     1.536310619256   103.80721277   210.75409229
 C      5   4   3     1.532863193146   103.30544892    37.90915990
 N      6   5   4     1.471774922038   102.47737187   325.94371287
 C      7   6   5     1.355476954791   128.39281542   204.11876849
 O      8   7   6     1.239088067196   120.78155919   176.17399758
 N      2   1   3     1.364723569444   124.24610383   181.35717379
 C     10   2   1     1.456259967246   124.65570774   350.90494516
 C     11  10   2     1.537533527483   110.87187037   218.51020542
 N     12  11  10     1.364747573173   117.22373029    11.16850821
 C     13  12  11     1.463319812467   122.41268254   198.90760881
 C     14  13  12     1.545586891862   113.74368863   271.06713761
 N     15  14  13     1.362226201581   114.61241037    39.68652937
 C     16  15  14     1.455816972098   121.62205523   176.60600153
 C     17  16  15     1.535355895725   114.80173853   145.43942314
 C     18  17  16     1.560074880172   118.19931715   300.98763462
 C     19  18  17     1.547793067062   115.47620996   316.81771152
 N     20  19  18     1.366261579368   114.39689424    75.61580901
 C     21  20  19     1.464603487391   121.72557419   186.98859286
 C     22  21  20     1.541236806789   109.59433715   201.86663021
 N     23  22  21     1.364425130810   114.16897166    35.01338386
 C     24  23  22     1.453826826779   123.30379731   170.35932096
 C     25  24  23     1.539806743214   112.04903289   291.52210349
 O     23  22  21     1.229777568973   123.34194944   214.18376879
 C     22  21  20     1.535324439363   113.53238574    75.23445162
 C     28  22  21     1.538267478417   114.30605380   203.11108493
 C     29  28  22     1.533067272802   111.98581405    68.65764691
 C     29  28  22     1.532398684368   109.48816460   191.75132371
 O     20  19  18     1.227683597021   122.15428680   253.08294861
 C     19  18  17     1.530795797252   115.03720470    86.49122324
 C     33  19  18     1.510992075558   115.58536690   166.34413204
 C     34  33  19     1.523784206125   114.51453650   172.27618547
 C     35  34  33     1.532779392179   113.18999454   194.12667048
 C     36  35  34     1.527807808560   110.94524050   164.45947163
 C     37  36  35     1.534649769359   115.57843149   185.19497444
 C     38  37  36     1.536157464491   111.86336550   150.28741641
 C     39  38  37     1.531302406287   114.27656215    55.76316493
 C     40  39  38     1.530764498233   113.25391570   186.76265364
 C     41  40  39     1.529830695792   112.86619250   176.04327768
 O     33  19  18     1.229091475826   122.30812490   347.69970331
 O     18  17  16     1.426999304645   111.70237005    70.41299165
 O     15  14  13     1.231947467982   121.82403586   221.20311743
 C     14  13  12     1.534977915310   110.11242556   144.96416118
 C     46  14  13     1.529181520896   113.46935219   203.32597845
 O     12  11  10     1.234665666175   121.13766792   195.32354304
 C     11  10   2     1.551483189282   113.31445151    95.68008427
 C     49  11  10     1.529152427216   111.37932504   294.08798215
 C     49  11  10     1.532105882577   111.27162369    58.97761090
 H      3   2   1     1.099469639441   105.42377234    21.31003940
 H      4   3   2     1.095611526812   111.38107212    88.20415552
 H      4   3   2     1.100959558891   110.05212338   328.80240780
 H      5   4   3     1.097034360678   113.19676857   159.75910432
 H      5   4   3     1.099941122992   110.12715266   280.93033611
 H      6   5   4     1.104355975725   111.28997541    84.35022137
 H      6   5   4     1.096282956603   113.17870459   206.10391306
 H     10   2   1     1.015170189967   117.84089164   173.25515654
 H     11  10   2     1.101785459869   106.67752767   335.73222542
 H     13  12  11     1.016655496502   119.20137511    21.55164473
 H     14  13  12     1.103995991290   105.17382150    26.51962288
 H     16  15  14     1.025039428873   117.21413440    11.67773495
 H     17  16  15     1.098358228681   107.00640940    21.75655811
 H     17  16  15     1.102503109868   110.11504696   265.41357086
 H     18  17  16     1.101800016678   104.60968013   183.52464594
 H     19  18  17     1.100213034486   106.30172864   202.99002058
 H     21  20  19     1.019755235834   116.65787301   345.62148556
 H     22  21  20     1.103803991116   105.40317887   316.37579006
 H     24  23  22     1.021575875192   120.55199008     5.79734528
 H     25  24  23     1.100997409064   108.78436176    52.65791516
 H     26  25  24     1.096485652013   108.90815112    59.88466728
 H     26  25  24     1.098962648048   111.63378718   179.73578983
 H     26  25  24     1.098170843308   109.78840955   300.09537431
 H     28  22  21     1.097409279965   108.42796390    79.40259450
 H     28  22  21     1.102111567081   107.30988136   323.52962788
 H     29  28  22     1.101745462779   107.66043522   308.81266050
 H     30  29  28     1.099635718555   112.62414878   302.00868133
 H     30  29  28     1.101155466580   110.69283701    61.83793750
 H     30  29  28     1.100021709567   110.82455374   181.60425930
 H     31  29  28     1.099463163105   111.10628967    59.05318300
 H     31  29  28     1.100069890992   111.21092828   179.56443950
 H     31  29  28     1.102165683824   110.75334120   299.20442293
 H     34  33  19     1.104600925290   107.88370736    48.21272890
 H     34  33  19     1.105815335292   106.82216081   296.87894712
 H     35  34  33     1.100595776445   110.07754479    69.95515588
 H     35  34  33     1.098223618583   108.50389271   314.37981907
 H     36  35  34     1.104833623960   108.92112923    45.15733142
 H     36  35  34     1.104207846697   110.79947762   288.65999879
 H     37  36  35     1.100965619769   109.68969989    59.49984866
 H     37  36  35     1.099277993750   106.68151153   306.07228377
 H     38  37  36     1.103417213077   109.52437801    29.99660389
 H     38  37  36     1.103269385524   110.65568079   273.42656081
 H     39  38  37     1.106411449555   107.84554590   295.11190287
 H     39  38  37     1.103506186751   110.17455659   179.85499322
 H     40  39  38     1.104436069269   109.65143936    64.18933748
 H     40  39  38     1.102328700509   109.53363493   308.09657573
 H     41  40  39     1.105968140807   108.77375558    54.31180168
 H     41  40  39     1.103362980650   109.98053031   299.22769631
 H     42  41  40     1.100080856325   111.95108938   181.89541975
 H     42  41  40     1.101015976562   110.80931967   302.82033965
 H     42  41  40     1.100320029836   111.02425670    61.63832584
 H     44  18  17     0.980810942357   105.87164798   282.12339904
 H     46  14  13     1.100837965743   109.28966992    80.89957949
 H     46  14  13     1.102933385815   107.21326811   324.23981583
 H     47  46  14     1.098670760219   110.47434392   178.79915196
 H     47  46  14     1.095979384333   110.51009563   298.39137445
 H     47  46  14     1.100758513678   111.04234258    59.10240153
 H     49  11  10     1.100144053220   105.01108496   175.99273253
 H     50  49  11     1.097797324554   111.66186445   304.98280332
 H     50  49  11     1.099521648506   111.40757913    64.87062558
 H     50  49  11     1.099678454469   110.00558204   184.40352929
 H     51  49  11     1.099589078969   111.88246022    57.36099448
 H     51  49  11     1.098620614572   110.45624560   177.11083668
 H     51  49  11     1.101812430433   110.98029389   295.83179972

---------------------------
INTERNAL COORDINATES (A.U.)
---------------------------
 O      0   0   0     0.000000000000     0.00000000     0.00000000
 C      1   0   0     2.314626109117     0.00000000     0.00000000
 C      2   1   0     2.909263711751   121.64591775     0.00000000
 C      3   2   1     2.911471603925   114.07364865   258.34086080
 C      4   3   2     2.903206327030   103.80721277   210.75409229
 C      5   4   3     2.896691635814   103.30544892    37.90915990
 N      6   5   4     2.781251533424   102.47737187   325.94371287
 C      7   6   5     2.561480225397   128.39281542   204.11876849
 O      8   7   6     2.341537102810   120.78155919   176.17399758
 N      2   1   3     2.578953794756   124.24610383   181.35717379
 C     10   2   1     2.751932517889   124.65570774   350.90494516
 C     11  10   2     2.905517288665   110.87187037   218.51020542
 N     12  11  10     2.578999155230   117.22373029    11.16850821
 C     13  12  11     2.765273691904   122.41268254   198.90760881
 C     14  13  12     2.920735941798   113.74368863   271.06713761
 N     15  14  13     2.574234453439   114.61241037    39.68652937
 C     16  15  14     2.751095378381   121.62205523   176.60600153
 C     17  16  15     2.901402161021   114.80173853   145.43942314
 C     18  17  16     2.948114271936   118.19931715   300.98763462
 C     19  18  17     2.924905008729   115.47620996   316.81771152
 N     20  19  18     2.581860212305   114.39689424    75.61580901
 C     21  20  19     2.767699485954   121.72557419   186.98859286
 C     22  21  20     2.912515472351   109.59433715   201.86663021
 N     23  22  21     2.578389827471   114.16897166    35.01338386
 C     24  23  22     2.747334548760   123.30379731   170.35932096
 C     25  24  23     2.909813043840   112.04903289   291.52210349
 O     23  22  21     2.323942810998   123.34194944   214.18376879
 C     22  21  20     2.901342717112   113.53238574    75.23445162
 C     28  22  21     2.906904254925   114.30605380   203.11108493
 C     29  28  22     2.897077290473   111.98581405    68.65764691
 C     29  28  22     2.895813841436   109.48816460   191.75132371
 O     20  19  18     2.319985777477   122.15428680   253.08294861
 C     19  18  17     2.892784823763   115.03720470    86.49122324
 C     33  19  18     2.855361213329   115.58536690   166.34413204
 C     34  33  19     2.879534836770   114.51453650   172.27618547
 C     35  34  33     2.896533274936   113.18999454   194.12667048
 C     36  35  34     2.887138343444   110.94524050   164.45947163
 C     37  36  35     2.900067775574   115.57843149   185.19497444
 C     38  37  36     2.902916906467   111.86336550   150.28741641
 C     39  38  37     2.893742176096   114.27656215    55.76316493
 C     40  39  38     2.892725677190   113.25391570   186.76265364
 C     41  40  39     2.890961046313   112.86619250   176.04327768
 O     33  19  18     2.322646282848   122.30812490   347.69970331
 O     18  17  16     2.696637879075   111.70237005    70.41299165
 O     15  14  13     2.328043325865   121.82403586   221.20311743
 C     14  13  12     2.900687881553   110.11242556   144.96416118
 C     46  14  13     2.889734283546   113.46935219   203.32597845
 O     12  11  10     2.333179976026   121.13766792   195.32354304
 C     11  10   2     2.931878329126   113.31445151    95.68008427
 C     49  11  10     2.889679304460   111.37932504   294.08798215
 C     49  11  10     2.895260526241   111.27162369    58.97761090
 H      3   2   1     2.077696511104   105.42377234    21.31003940
 H      4   3   2     2.070405734842   111.38107212    88.20415552
 H      4   3   2     2.080512050827   110.05212338   328.80240780
 H      5   4   3     2.073094501183   113.19676857   159.75910432
 H      5   4   3     2.078587485892   110.12715266   280.93033611
 H      6   5   4     2.086930348480   111.28997541    84.35022137
[...]
freq.      82.18  E(vib)   ...       0.48 
freq.      90.41  E(vib)   ...       0.47 
freq.      92.68  E(vib)   ...       0.47 
freq.      95.81  E(vib)   ...       0.47 
freq.     101.63  E(vib)   ...       0.46 
freq.     104.11  E(vib)   ...       0.46 
freq.     110.07  E(vib)   ...       0.45 
freq.     113.90  E(vib)   ...       0.44 
freq.     119.99  E(vib)   ...       0.44 
freq.     124.14  E(vib)   ...       0.43 
freq.     131.06  E(vib)   ...       0.42 
freq.     137.16  E(vib)   ...       0.42 
freq.     142.20  E(vib)   ...       0.41 
freq.     147.76  E(vib)   ...       0.41 
freq.     150.90  E(vib)   ...       0.40 
freq.     155.86  E(vib)   ...       0.40 
freq.     160.54  E(vib)   ...       0.39 
freq.     162.90  E(vib)   ...       0.39 
freq.     172.36  E(vib)   ...       0.38 
freq.     175.73  E(vib)   ...       0.38 
freq.     184.65  E(vib)   ...       0.37 
freq.     198.87  E(vib)   ...       0.35 
freq.     203.26  E(vib)   ...       0.35 
freq.     210.76  E(vib)   ...       0.34 
freq.     215.66  E(vib)   ...       0.34 
freq.     220.98  E(vib)   ...       0.33 
freq.     223.27  E(vib)   ...       0.33 
freq.     223.80  E(vib)   ...       0.33 
freq.     231.53  E(vib)   ...       0.32 
freq.     234.73  E(vib)   ...       0.32 
freq.     240.17  E(vib)   ...       0.31 
freq.     243.46  E(vib)   ...       0.31 
freq.     245.22  E(vib)   ...       0.31 
freq.     251.11  E(vib)   ...       0.30 
freq.     255.41  E(vib)   ...       0.30 
freq.     260.03  E(vib)   ...       0.30 
freq.     267.58  E(vib)   ...       0.29 
freq.     272.43  E(vib)   ...       0.29 
freq.     278.01  E(vib)   ...       0.28 
freq.     294.28  E(vib)   ...       0.27 
freq.     296.31  E(vib)   ...       0.27 
freq.     301.98  E(vib)   ...       0.26 
freq.     316.01  E(vib)   ...       0.25 
freq.     320.32  E(vib)   ...       0.25 
freq.     325.17  E(vib)   ...       0.24 
freq.     338.48  E(vib)   ...       0.23 
freq.     341.17  E(vib)   ...       0.23 
freq.     352.04  E(vib)   ...       0.23 
freq.     364.16  E(vib)   ...       0.22 
freq.     367.65  E(vib)   ...       0.21 
freq.     374.17  E(vib)   ...       0.21 
freq.     376.84  E(vib)   ...       0.21 
freq.     390.65  E(vib)   ...       0.20 
freq.     394.34  E(vib)   ...       0.20 
freq.     396.82  E(vib)   ...       0.20 
freq.     405.32  E(vib)   ...       0.19 
freq.     411.25  E(vib)   ...       0.19 
freq.     414.26  E(vib)   ...       0.19 
freq.     447.71  E(vib)   ...       0.17 
freq.     452.32  E(vib)   ...       0.16 
freq.     464.40  E(vib)   ...       0.16 
freq.     478.88  E(vib)   ...       0.15 
freq.     487.27  E(vib)   ...       0.15 
freq.     497.30  E(vib)   ...       0.14 
freq.     501.90  E(vib)   ...       0.14 
freq.     511.45  E(vib)   ...       0.14 
freq.     530.87  E(vib)   ...       0.13 
freq.     542.94  E(vib)   ...       0.12 
freq.     561.58  E(vib)   ...       0.11 
freq.     566.98  E(vib)   ...       0.11 
freq.     583.38  E(vib)   ...       0.11 
freq.     588.05  E(vib)   ...       0.10 
freq.     597.43  E(vib)   ...       0.10 
freq.     602.50  E(vib)   ...       0.10 
freq.     607.02  E(vib)   ...       0.10 
freq.     621.38  E(vib)   ...       0.09 
freq.     647.15  E(vib)   ...       0.09 
freq.     665.45  E(vib)   ...       0.08 
freq.     670.85  E(vib)   ...       0.08 
freq.     690.67  E(vib)   ...       0.07 
freq.     698.48  E(vib)   ...       0.07 
freq.     705.40  E(vib)   ...       0.07 
freq.     709.43  E(vib)   ...       0.07 
freq.     716.85  E(vib)   ...       0.07 
freq.     719.41  E(vib)   ...       0.07 
freq.     726.88  E(vib)   ...       0.06 
freq.     728.24  E(vib)   ...       0.06 
freq.     732.01  E(vib)   ...       0.06 
freq.     746.75  E(vib)   ...       0.06 
freq.     747.87  E(vib)   ...       0.06 
freq.     758.93  E(vib)   ...       0.06 
freq.     768.19  E(vib)   ...       0.06 
freq.     781.42  E(vib)   ...       0.05 
freq.     783.99  E(vib)   ...       0.05 
freq.     811.81  E(vib)   ...       0.05 
freq.     818.39  E(vib)   ...       0.05 
freq.     821.45  E(vib)   ...       0.05 
freq.     828.50  E(vib)   ...       0.04 
freq.     855.82  E(vib)   ...       0.04 
freq.     859.03  E(vib)   ...       0.04 
freq.     864.24  E(vib)   ...       0.04 
freq.     867.42  E(vib)   ...       0.04 
freq.     873.34  E(vib)   ...       0.04 
freq.     880.30  E(vib)   ...       0.04 
freq.     882.42  E(vib)   ...       0.04 
freq.     886.43  E(vib)   ...       0.04 
freq.     895.99  E(vib)   ...       0.03 
freq.     900.35  E(vib)   ...       0.03 
freq.     902.18  E(vib)   ...       0.03 
freq.     903.17  E(vib)   ...       0.03 
freq.     907.25  E(vib)   ...       0.03 
freq.     915.90  E(vib)   ...       0.03 
freq.     928.70  E(vib)   ...       0.03 
freq.     929.50  E(vib)   ...       0.03 
freq.     939.76  E(vib)   ...       0.03 
freq.     940.91  E(vib)   ...       0.03 
freq.     942.40  E(vib)   ...       0.03 
freq.     943.77  E(vib)   ...       0.03 
freq.     944.94  E(vib)   ...       0.03 
freq.     950.34  E(vib)   ...       0.03 
freq.     971.32  E(vib)   ...       0.03 
freq.     972.76  E(vib)   ...       0.03 
freq.     982.89  E(vib)   ...       0.02 
freq.     986.64  E(vib)   ...       0.02 
freq.    1003.54  E(vib)   ...       0.02 
freq.    1010.51  E(vib)   ...       0.02 
freq.    1016.55  E(vib)   ...       0.02 
freq.    1023.04  E(vib)   ...       0.02 
freq.    1025.01  E(vib)   ...       0.02 
freq.    1029.75  E(vib)   ...       0.02 
freq.    1031.17  E(vib)   ...       0.02 
freq.    1035.41  E(vib)   ...       0.02 
freq.    1039.26  E(vib)   ...       0.02 
freq.    1045.23  E(vib)   ...       0.02 
freq.    1047.91  E(vib)   ...       0.02 
freq.    1051.24  E(vib)   ...       0.02 
freq.    1055.51  E(vib)   ...       0.02 
freq.    1058.30  E(vib)   ...       0.02 
freq.    1067.11  E(vib)   ...       0.02 
freq.    1073.64  E(vib)   ...       0.02 
freq.    1076.09  E(vib)   ...       0.02 
freq.    1082.92  E(vib)   ...       0.02 
freq.    1087.83  E(vib)   ...       0.02 
freq.    1091.85  E(vib)   ...       0.02 
freq.    1101.66  E(vib)   ...       0.02 
freq.    1108.44  E(vib)   ...       0.02 
freq.    1114.83  E(vib)   ...       0.01 
freq.    1118.85  E(vib)   ...       0.01 
freq.    1127.06  E(vib)   ...       0.01 
freq.    1128.74  E(vib)   ...       0.01 
freq.    1133.52  E(vib)   ...       0.01 
freq.    1136.03  E(vib)   ...       0.01 
freq.    1141.06  E(vib)   ...       0.01 
freq.    1152.43  E(vib)   ...       0.01 
freq.    1157.58  E(vib)   ...       0.01 
freq.    1160.44  E(vib)   ...       0.01 
freq.    1164.64  E(vib)   ...       0.01 
freq.    1166.05  E(vib)   ...       0.01 
freq.    1176.50  E(vib)   ...       0.01 
freq.    1179.90  E(vib)   ...       0.01 
freq.    1185.77  E(vib)   ...       0.01 
freq.    1200.31  E(vib)   ...       0.01 
freq.    1203.23  E(vib)   ...       0.01 
freq.    1203.81  E(vib)   ...       0.01 
freq.    1204.83  E(vib)   ...       0.01 
freq.    1206.76  E(vib)   ...       0.01 
freq.    1223.21  E(vib)   ...       0.01 
freq.    1225.89  E(vib)   ...       0.01 
freq.    1226.87  E(vib)   ...       0.01 
freq.    1230.31  E(vib)   ...       0.01 
freq.    1236.85  E(vib)   ...       0.01 
freq.    1244.05  E(vib)   ...       0.01 
freq.    1248.68  E(vib)   ...       0.01 
freq.    1250.94  E(vib)   ...       0.01 
freq.    1260.17  E(vib)   ...       0.01 
freq.    1261.27  E(vib)   ...       0.01 
freq.    1263.04  E(vib)   ...       0.01 
freq.    1268.78  E(vib)   ...       0.01 
freq.    1270.02  E(vib)   ...       0.01 
freq.    1272.55  E(vib)   ...       0.01 
freq.    1278.41  E(vib)   ...       0.01 
freq.    1282.67  E(vib)   ...       0.01 
freq.    1283.71  E(vib)   ...       0.01 
freq.    1287.77  E(vib)   ...       0.01 
freq.    1289.36  E(vib)   ...       0.01 
freq.    1291.65  E(vib)   ...       0.01 
freq.    1298.42  E(vib)   ...       0.01 
freq.    1300.73  E(vib)   ...       0.01 
freq.    1301.73  E(vib)   ...       0.01 
freq.    1304.89  E(vib)   ...       0.01 
freq.    1312.40  E(vib)   ...       0.01 
freq.    1312.81  E(vib)   ...       0.01 
freq.    1315.28  E(vib)   ...       0.01 
freq.    1318.21  E(vib)   ...       0.01 
freq.    1318.99  E(vib)   ...       0.01 
freq.    1320.77  E(vib)   ...       0.01 
freq.    1325.16  E(vib)   ...       0.01 
freq.    1328.07  E(vib)   ...       0.01 
freq.    1329.54  E(vib)   ...       0.01 
freq.    1333.50  E(vib)   ...       0.01 
freq.    1335.64  E(vib)   ...       0.01 
freq.    1342.90  E(vib)   ...       0.01 
freq.    1344.40  E(vib)   ...       0.01 
freq.    1351.29  E(vib)   ...       0.01 
freq.    1351.85  E(vib)   ...       0.01 
freq.    1352.57  E(vib)   ...       0.01 
freq.    1355.24  E(vib)   ...       0.01 
freq.    1355.85  E(vib)   ...       0.01 
freq.    1358.06  E(vib)   ...       0.01 
freq.    1363.77  E(vib)   ...       0.01 
freq.    1366.70  E(vib)   ...       0.01 
freq.    1372.92  E(vib)   ...       0.01 
freq.    1374.54  E(vib)   ...       0.01 
freq.    1386.59  E(vib)   ...       0.00 
freq.    1393.75  E(vib)   ...       0.00 
freq.    1416.14  E(vib)   ...       0.00 
freq.    1424.50  E(vib)   ...       0.00 
freq.    1425.71  E(vib)   ...       0.00 
freq.    1428.34  E(vib)   ...       0.00 
freq.    1431.02  E(vib)   ...       0.00 
freq.    1433.91  E(vib)   ...       0.00 
freq.    1434.37  E(vib)   ...       0.00 
freq.    1435.52  E(vib)   ...       0.00 
freq.    1437.59  E(vib)   ...       0.00 
freq.    1438.51  E(vib)   ...       0.00 
freq.    1443.13  E(vib)   ...       0.00 
freq.    1443.61  E(vib)   ...       0.00 
freq.    1444.55  E(vib)   ...       0.00 
freq.    1445.12  E(vib)   ...       0.00 
freq.    1445.27  E(vib)   ...       0.00 
freq.    1445.38  E(vib)   ...       0.00 
freq.    1449.26  E(vib)   ...       0.00 
freq.    1449.67  E(vib)   ...       0.00 
freq.    1451.59  E(vib)   ...       0.00 
freq.    1453.12  E(vib)   ...       0.00 
freq.    1454.24  E(vib)   ...       0.00 
freq.    1455.16  E(vib)   ...       0.00 
freq.    1455.50  E(vib)   ...       0.00 
freq.    1456.48  E(vib)   ...       0.00 
freq.    1457.92  E(vib)   ...       0.00 
freq.    1458.52  E(vib)   ...       0.00 
freq.    1460.49  E(vib)   ...       0.00 
freq.    1465.91  E(vib)   ...       0.00 
freq.    1466.02  E(vib)   ...       0.00 
freq.    1473.23  E(vib)   ...       0.00 
freq.    1475.09  E(vib)   ...       0.00 
freq.    1479.75  E(vib)   ...       0.00 
freq.    1515.48  E(vib)   ...       0.00 
freq.    1635.74  E(vib)   ...       0.00 
freq.    1654.52  E(vib)   ...       0.00 
freq.    1665.33  E(vib)   ...       0.00 
freq.    1677.64  E(vib)   ...       0.00 
freq.    1684.40  E(vib)   ...       0.00 
freq.    1695.38  E(vib)   ...       0.00 
freq.    1705.74  E(vib)   ...       0.00 
freq.    2910.71  E(vib)   ...       0.00 
freq.    2916.19  E(vib)   ...       0.00 
freq.    2925.02  E(vib)   ...       0.00 
freq.    2929.36  E(vib)   ...       0.00 
freq.    2936.54  E(vib)   ...       0.00 
freq.    2938.04  E(vib)   ...       0.00 
freq.    2940.54  E(vib)   ...       0.00 
freq.    2945.60  E(vib)   ...       0.00 
freq.    2949.31  E(vib)   ...       0.00 
freq.    2953.15  E(vib)   ...       0.00 
freq.    2953.43  E(vib)   ...       0.00 
freq.    2953.84  E(vib)   ...       0.00 
freq.    2954.30  E(vib)   ...       0.00 
freq.    2954.66  E(vib)   ...       0.00 
freq.    2955.12  E(vib)   ...       0.00 
freq.    2956.81  E(vib)   ...       0.00 
freq.    2957.07  E(vib)   ...       0.00 
freq.    2958.08  E(vib)   ...       0.00 
freq.    2959.96  E(vib)   ...       0.00 
freq.    2961.40  E(vib)   ...       0.00 
freq.    2966.66  E(vib)   ...       0.00 
freq.    2966.88  E(vib)   ...       0.00 
freq.    2967.93  E(vib)   ...       0.00 
freq.    2971.78  E(vib)   ...       0.00 
freq.    2974.92  E(vib)   ...       0.00 
freq.    2975.74  E(vib)   ...       0.00 
freq.    2976.14  E(vib)   ...       0.00 
freq.    2977.62  E(vib)   ...       0.00 
freq.    2981.56  E(vib)   ...       0.00 
freq.    2984.74  E(vib)   ...       0.00 
freq.    2987.34  E(vib)   ...       0.00 
freq.    2988.79  E(vib)   ...       0.00 
freq.    2992.17  E(vib)   ...       0.00 
freq.    2992.31  E(vib)   ...       0.00 
freq.    2998.43  E(vib)   ...       0.00 
freq.    3001.30  E(vib)   ...       0.00 
freq.    3003.78  E(vib)   ...       0.00 
freq.    3013.44  E(vib)   ...       0.00 
freq.    3019.22  E(vib)   ...       0.00 
freq.    3020.58  E(vib)   ...       0.00 
freq.    3021.22  E(vib)   ...       0.00 
freq.    3022.61  E(vib)   ...       0.00 
freq.    3023.19  E(vib)   ...       0.00 
freq.    3024.81  E(vib)   ...       0.00 
freq.    3029.78  E(vib)   ...       0.00 
freq.    3031.77  E(vib)   ...       0.00 
freq.    3032.77  E(vib)   ...       0.00 
freq.    3032.98  E(vib)   ...       0.00 
freq.    3034.56  E(vib)   ...       0.00 
freq.    3037.27  E(vib)   ...       0.00 
freq.    3038.43  E(vib)   ...       0.00 
freq.    3043.48  E(vib)   ...       0.00 
freq.    3046.89  E(vib)   ...       0.00 
freq.    3047.72  E(vib)   ...       0.00 
freq.    3048.16  E(vib)   ...       0.00 
freq.    3059.85  E(vib)   ...       0.00 
freq.    3069.17  E(vib)   ...       0.00 
freq.    3070.11  E(vib)   ...       0.00 
freq.    3364.05  E(vib)   ...       0.00 
freq.    3428.19  E(vib)   ...       0.00 
freq.    3434.94  E(vib)   ...       0.00 
freq.    3494.24  E(vib)   ...       0.00 
freq.    3505.81  E(vib)   ...       0.00 
freq.    3540.32  E(vib)   ...       0.00 

------------
INNER ENERGY
------------

The inner energy is: U= E(el) + E(ZPE) + E(vib) + E(rot) + E(trans)
    E(el)   - is the total energy from the electronic structure calculation
              = E(kin-el) + E(nuc-el) + E(el-el) + E(nuc-nuc)
    E(ZPE)  - the the zero temperature vibrational energy from the frequency calculation
    E(vib)  - the the finite temperature correction to E(ZPE) due to population
              of excited vibrational states
    E(rot)  - is the rotational thermal energy
    E(trans)- is the translational thermal energy

Summary of contributions to the inner energy U:
Electronic energy                ...  -2380.07311206 Eh
Zero point energy                ...      0.97652249 Eh     612.78 kcal/mol
Thermal vibrational correction   ...      0.05595655 Eh      35.11 kcal/mol
Thermal rotational correction    ...      0.00141627 Eh       0.89 kcal/mol
Thermal translational correction ...      0.00141627 Eh       0.89 kcal/mol
-----------------------------------------------------------------------
Total thermal energy                  -2379.03780048 Eh


Summary of corrections to the electronic energy:
(perhaps to be used in another calculation)
Total thermal correction                  0.05878909 Eh      36.89 kcal/mol
Non-thermal (ZPE) correction              0.97652249 Eh     612.78 kcal/mol
-----------------------------------------------------------------------
Total correction                          1.03531158 Eh     649.67 kcal/mol


--------
ENTHALPY
--------

The enthalpy is H = U + kB*T
                kB is Boltzmann's constant
Total free energy                 ...  -2379.03780048 Eh 
Thermal Enthalpy correction       ...      0.00094421 Eh       0.59 kcal/mol
-----------------------------------------------------------------------
Total Enthalpy                    ...  -2379.03685627 Eh


Note: Only C1 symmetry has been detected, increase convergence thresholds 
      if your molecule has a higher symmetry. Symmetry factor of 1.0 is   
      used for the rotational entropy correction. 
 

Note: Rotational entropy computed according to Herzberg 
Infrared and Raman Spectra, Chapter V,1, Van Nostrand Reinhold, 1945 
Point Group:  C1, Symmetry Number:   1  
Rotational constants in cm-1:     0.002573     0.001451     0.001387 

Vibrational entropy computed according to the QRRHO of S. Grimme
Chem.Eur.J. 2012 18 9955


-------
ENTROPY
-------

The entropy contributions are T*S = T*(S(el)+S(vib)+S(rot)+S(trans))
     S(el)   - electronic entropy
     S(vib)  - vibrational entropy
     S(rot)  - rotational entropy
     S(trans)- translational entropy
The entropies will be listed as mutliplied by the temperature to get
units of energy

Electronic entropy                ...      0.00000000 Eh      0.00 kcal/mol
Vibrational entropy               ...      0.10251365 Eh     64.33 kcal/mol
Rotational entropy                ...      0.01851771 Eh     11.62 kcal/mol
Translational entropy             ...      0.02166895 Eh     13.60 kcal/mol
-----------------------------------------------------------------------
Final entropy term                ...      0.14270030 Eh     89.55 kcal/mol

In case the symmetry of your molecule has not been determined correctly
or in case you have a reason to use a different symmetry number we print 
out the resulting rotational entropy values for sn=1,12 :
 --------------------------------------------------------
|  sn= 1 | S(rot)=       0.01851771 Eh     11.62 kcal/mol|
|  sn= 2 | S(rot)=       0.01786325 Eh     11.21 kcal/mol|
|  sn= 3 | S(rot)=       0.01748042 Eh     10.97 kcal/mol|
|  sn= 4 | S(rot)=       0.01720879 Eh     10.80 kcal/mol|
|  sn= 5 | S(rot)=       0.01699811 Eh     10.67 kcal/mol|
|  sn= 6 | S(rot)=       0.01682596 Eh     10.56 kcal/mol|
|  sn= 7 | S(rot)=       0.01668042 Eh     10.47 kcal/mol|
|  sn= 8 | S(rot)=       0.01655434 Eh     10.39 kcal/mol|
|  sn= 9 | S(rot)=       0.01644313 Eh     10.32 kcal/mol|
|  sn=10 | S(rot)=       0.01634365 Eh     10.26 kcal/mol|
|  sn=11 | S(rot)=       0.01625366 Eh     10.20 kcal/mol|
|  sn=12 | S(rot)=       0.01617151 Eh     10.15 kcal/mol|
 --------------------------------------------------------


-------------------
GIBBS FREE ENERGY
-------------------

The Gibbs free energy is G = H - T*S

Total enthalpy                    ...  -2379.03685627 Eh 
Total entropy correction          ...     -0.14270030 Eh    -89.55 kcal/mol
-----------------------------------------------------------------------
Final Gibbs free energy         ...  -2379.17955657 Eh

For completeness - the Gibbs free energy minus the electronic energy
G-E(el)                           ...      0.89355549 Eh    560.71 kcal/mol

--------------------------------------------------------------------------
WARNING: No preset parameters were found for the device that Open MPI
detected:

  Local host:            eu-g1-038-1
  Device name:           mlx5_0
  Device vendor ID:      0x02c9
  Device vendor part ID: 4123

Default device parameters will be used, which may result in lower
performance.  You can edit any of the files specified by the
btl_openib_device_param_files MCA parameter to set values for your
device.

NOTE: You can turn off this warning by setting the MCA parameter
      btl_openib_warn_no_device_params_found to 0.
--------------------------------------------------------------------------
--------------------------------------------------------------------------
WARNING: There was an error initializing an OpenFabrics device.

  Local host:   eu-g1-038-1
  Local device: mlx5_0
--------------------------------------------------------------------------

Timings for individual modules:

Sum of individual times         ...    29946.678 sec (= 499.111 min)
GTO integral calculation        ...       14.262 sec (=   0.238 min)   0.0 %
SCF iterations                  ...      383.151 sec (=   6.386 min)   1.3 %
SCF Gradient evaluation         ...       80.215 sec (=   1.337 min)   0.3 %
Geometry relaxation             ...        4.071 sec (=   0.068 min)   0.0 %
Analytical frequency calculation...    29464.980 sec (= 491.083 min)  98.4 %
                             ****ORCA TERMINATED NORMALLY****
TOTAL RUN TIME: 0 days 8 hours 19 minutes 24 seconds 19 msec
