
                                 *****************
                                 * O   R   C   A *
                                 *****************

           --- An Ab Initio, DFT and Semiempirical electronic structure package ---

                  #######################################################
                  #                        -***-                        #
                  #          Department of theory and spectroscopy      #
                  #               Directorship: Frank Neese             #
                  #        Max Planck Institute fuer Kohlenforschung    #
                  #                Kaiser Wilhelm Platz 1               #
                  #                 D-45470 Muelheim/Ruhr               #
                  #                      Germany                        #
                  #                                                     #
                  #                  All rights reserved                #
                  #                        -***-                        #
                  #######################################################


                         Program Version 4.2.0 -  RELEASE  -


 With contributions from (in alphabetic order):
   Daniel Aravena         : Magnetic Suceptibility
   Michael Atanasov       : Ab Initio Ligand Field Theory (pilot matlab implementation)
   Alexander A. Auer      : GIAO ZORA, VPT2
   Ute Becker             : Parallelization
   Giovanni Bistoni       : ED, misc. LED, open-shell LED, HFLED
   Martin Brehm           : Molecular dynamics
   Dmytro Bykov           : SCF Hessian
   Vijay G. Chilkuri      : MRCI spin determinant printing, contributions to CSF-ICE
   Dipayan Datta          : RHF DLPNO-CCSD density
   Achintya Kumar Dutta   : EOM-CC, STEOM-CC
   Dmitry Ganyushin       : Spin-Orbit,Spin-Spin,Magnetic field MRCI
   Miquel Garcia          : C-PCM Hessian, Gaussian charge scheme
   Yang Guo               : DLPNO-NEVPT2, CIM, IAO-localization
   Andreas Hansen         : Spin unrestricted coupled pair/coupled cluster methods
   Benjamin Helmich-Paris : CASSCF linear response (MC-RPA)
   Lee Huntington         : MR-EOM, pCC
   Robert Izsak           : Overlap fitted RIJCOSX, COSX-SCS-MP3, EOM
   Christian Kollmar      : KDIIS, OOCD, Brueckner-CCSD(T), CCSD density
   Simone Kossmann        : Meta GGA functionals, TD-DFT gradient, OOMP2, MP2 Hessian
   Martin Krupicka        : AUTO-CI
   Lucas Lang             : DCDCAS
   Dagmar Lenk            : GEPOL surface, SMD
   Dimitrios Liakos       : Extrapolation schemes; Compound Job, initial MDCI parallelization
   Dimitrios Manganas     : Further ROCIS development; embedding schemes
   Dimitrios Pantazis     : SARC Basis sets
   Taras Petrenko         : DFT Hessian,TD-DFT gradient, ASA, ECA, R-Raman, ABS, FL, XAS/XES, NRVS
   Peter Pinski           : DLPNO-MP2, DLPNO-MP2 Gradient
   Christoph Reimann      : Effective Core Potentials
   Marius Retegan         : Local ZFS, SOC
   Christoph Riplinger    : Optimizer, TS searches, QM/MM, DLPNO-CCSD(T), (RO)-DLPNO pert. Triples
   Tobias Risthaus        : Range-separated hybrids, TD-DFT gradient, RPA, STAB
   Michael Roemelt        : Original ROCIS implementation
   Masaaki Saitow         : Open-shell DLPNO-CCSD energy and density
   Barbara Sandhoefer     : DKH picture change effects
   Avijit Sen             : IP-ROCIS
   Kantharuban Sivalingam : CASSCF convergence, NEVPT2, FIC-MRCI
   Bernardo de Souza      : ESD, SOC TD-DFT
   Georgi Stoychev        : AutoAux, RI-MP2 NMR
   Willem Van den Heuvel  : Paramagnetic NMR
   Boris Wezisla          : Elementary symmetry handling
   Frank Wennmohs         : Technical directorship


 We gratefully acknowledge several colleagues who have allowed us to
 interface, adapt or use parts of their codes:
   Stefan Grimme, W. Hujo, H. Kruse,             : VdW corrections, initial TS optimization,
                  C. Bannwarth                     DFT functionals, gCP, sTDA/sTD-DF
   Ed Valeev, F. Pavosevic, A. Kumar             : LibInt (2-el integral package), F12 methods
   Garnet Chan, S. Sharma, J. Yang, R. Olivares  : DMRG
   Ulf Ekstrom                                   : XCFun DFT Library
   Mihaly Kallay                                 : mrcc  (arbitrary order and MRCC methods)
   Andreas Klamt, Michael Diedenhofen            : otool_cosmo (COSMO solvation model)
   Jiri Pittner, Ondrej Demel                    : Mk-CCSD
   Frank Weinhold                                : gennbo (NPA and NBO analysis)
   Christopher J. Cramer and Donald G. Truhlar   : smd solvation model
   Lars Goerigk                                  : TD-DFT with DH, B97 family of functionals
   V. Asgeirsson, H. Jonsson                     : NEB implementation
   FAccTs GmbH                                   : IRC, NEB, NEB-TS, Multilevel, MM, QM/MM, CI optimization
   S Lehtola, MJT Oliveira, MAL Marques          : LibXC Library


 Your calculation uses the libint2 library for the computation of 2-el integrals
 For citations please refer to: http://libint.valeyev.net

 Your ORCA version has been built with support for libXC version: 4.2.3
 For citations please refer to: https://tddft.org/programs/libxc/

 This ORCA versions uses:
   CBLAS   interface :  Fast vector & matrix operations
   LAPACKE interface :  Fast linear algebra routines
   SCALAPACK package :  Parallel linear algebra routines




***************************************
The coordinates will be read from file: 61.xyz
***************************************


Your calculation utilizes the atom-pairwise dispersion correction
with the Becke-Johnson damping scheme (D3BJ)
Cite in your paper:
S.Grimme, S.Ehrlich, L.Goerigk, J Comput Chem, (2011), 32, 1456–1465 
S.Grimme, J.Antony, S.Ehrlich and H.Krieg, J.Chem.Phys., 132, (2010), 154104 
   

----- Orbital basis set information -----
Your calculation utilizes the basis: def2-TZVP
   F. Weigend and R. Ahlrichs, Phys. Chem. Chem. Phys. 7, 3297 (2005).

----- AuxJ basis set information -----
Your calculation utilizes the auxiliary basis: def2/J
   F. Weigend, Phys. Chem. Chem. Phys. 8, 1057 (2006).

================================================================================
                                        WARNINGS
                       Please study these warnings very carefully!
================================================================================


WARNING: Geometry Optimization
  ===> : Switching off AutoStart
         For restart on a previous wavefunction, please use MOREAD

INFO   : the flag for use of LIBINT has been found!

================================================================================
                                       INPUT FILE
================================================================================
NAME = 61.inp
|  1> !RI BP86 def2-tzvp def2/J D3BJ VeryTightSCF VeryTightOpt Grid5 FinalGrid6 freq
|  2> %maxcore 4000
|  3> %pal nprocs 24
|  4> end
|  5> * xyzfile 0 1 61.xyz 
|  6> 
|  7>                          ****END OF INPUT****
================================================================================

                       *****************************
                       * Geometry Optimization Run *
                       *****************************

Geometry optimization settings:
Update method            Update   .... BFGS
Choice of coordinates    CoordSys .... Z-matrix Internals
Initial Hessian          InHess   .... Almoef's Model

Convergence Tolerances:
Energy Change            TolE     ....  2.0000e-07 Eh
Max. Gradient            TolMAXG  ....  3.0000e-05 Eh/bohr
RMS Gradient             TolRMSG  ....  8.0000e-06 Eh/bohr
Max. Displacement        TolMAXD  ....  2.0000e-04 bohr
RMS Displacement         TolRMSD  ....  1.0000e-04 bohr
Strict Convergence                ....  False
------------------------------------------------------------------------------
                        ORCA OPTIMIZATION COORDINATE SETUP
------------------------------------------------------------------------------

The optimization will be done in new redundant internal coordinates
Making redundant internal coordinates   ...  (new redundants) done
Evaluating the initial hessian          ...  (Almloef) done
Evaluating the coordinates              ...  done
Calculating the B-matrix                .... done
Calculating the G-matrix                .... done
Diagonalizing the G-matrix              .... done
Small eigenvalue found = 2.000e-04
Small eigenvalue found = 8.391e-04
Small eigenvalue found = 1.733e-03
Small eigenvalue found = 2.087e-03
Small eigenvalue found = 4.072e-03
Small eigenvalue found = 4.218e-03
Small eigenvalue found = 5.700e-03
Small eigenvalue found = 6.481e-03
Small eigenvalue found = 8.279e-03
Small eigenvalue found = 8.794e-03
Small eigenvalue found = 1.055e-02
Small eigenvalue found = 1.219e-02
Small eigenvalue found = 1.356e-02
Small eigenvalue found = 1.478e-02
Small eigenvalue found = 1.627e-02
Small eigenvalue found = 1.982e-02
Small eigenvalue found = 2.196e-02
Small eigenvalue found = 2.331e-02
Small eigenvalue found = 2.944e-02
The first mode is                       ....  325
The number of degrees of freedom        ....  339

    -----------------------------------------------------------------
                    Redundant Internal Coordinates


    -----------------------------------------------------------------
         Definition                    Initial Value    Approx d2E/dq
    -----------------------------------------------------------------
      1. B(C   1,O   0)                  1.2448         0.953960   
      2. B(C   2,C   1)                  1.5341         0.368025   
      3. B(C   3,C   2)                  1.5514         0.345280   
      4. B(C   4,C   3)                  1.5354         0.366246   
      5. B(C   5,C   4)                  1.5282         0.376058   
      6. B(N   6,C   5)                  1.4695         0.417832   
      7. B(N   6,C   2)                  1.4569         0.437730   
      8. B(C   7,N   6)                  1.3680         0.606797   
      9. B(O   8,C   7)                  1.2322         0.998992   
     10. B(N   9,C   1)                  1.3471         0.655228   
     11. B(C  10,N   9)                  1.4696         0.417710   
     12. B(C  11,C  10)                  1.5559         0.339709   
     13. B(N  12,C  11)                  1.3593         0.626292   
     14. B(C  13,N  12)                  1.4669         0.421818   
     15. B(C  14,C  13)                  1.5418         0.357786   
     16. B(N  15,C  14)                  1.3708         0.600508   
     17. B(C  16,N  15)                  1.4531         0.443789   
     18. B(C  17,C  16)                  1.5327         0.369906   
     19. B(C  18,C  17)                  1.5390         0.361374   
     20. B(C  19,C  18)                  1.5415         0.358085   
     21. B(N  20,C  19)                  1.3647         0.614025   
     22. B(C  21,N  20)                  1.4683         0.419751   
     23. B(C  22,C  21)                  1.5375         0.363399   
     24. B(N  23,C  22)                  1.3666         0.609938   
     25. B(C  24,N  23)                  1.4651         0.424648   
     26. B(C  24,C   7)                  1.5397         0.360534   
     27. B(C  25,C  24)                  1.5266         0.378321   
     28. B(O  26,C  22)                  1.2312         1.002703   
     29. B(C  27,C  21)                  1.5492         0.348117   
     30. B(C  28,C  27)                  1.5454         0.352994   
     31. B(C  29,C  28)                  1.5343         0.367725   
     32. B(C  30,C  28)                  1.5347         0.367180   
     33. B(O  31,C  19)                  1.2301         1.006912   
     34. B(C  32,C  18)                  1.5454         0.353011   
     35. B(C  33,C  32)                  1.5147         0.395164   
     36. B(C  34,C  33)                  1.5249         0.380656   
     37. B(C  35,C  34)                  1.5300         0.373582   
     38. B(C  36,C  35)                  1.5302         0.373343   
     39. B(C  37,C  36)                  1.5302         0.373352   
     40. B(C  38,C  37)                  1.5303         0.373162   
     41. B(C  39,C  38)                  1.5302         0.373355   
     42. B(C  40,C  39)                  1.5310         0.372229   
     43. B(C  41,C  40)                  1.5298         0.373804   
     44. B(O  42,C  32)                  1.2180         1.052847   
     45. B(O  43,C  17)                  1.4405         0.464758   
     46. B(O  44,C  14)                  1.2272         1.017851   
     47. B(C  45,C  13)                  1.5425         0.356744   
     48. B(C  46,C  45)                  1.5277         0.376762   
     49. B(O  47,C  11)                  1.2295         1.009101   
     50. B(C  48,C  10)                  1.5302         0.373347   
     51. B(C  49,C  48)                  1.5329         0.369606   
     52. B(C  50,C  48)                  1.5330         0.369515   
     53. B(H  51,C   2)                  1.1018         0.344764   
     54. B(H  52,C   3)                  1.0992         0.348153   
     55. B(H  53,C   3)                  1.0977         0.350095   
     56. B(H  54,C   4)                  1.1004         0.346592   
     57. B(H  55,C   4)                  1.0969         0.351071   
     58. B(H  56,C   5)                  1.0936         0.355322   
     59. B(H  57,C   5)                  1.1042         0.341815   
     60. B(H  58,N   9)                  1.0170         0.421710   
     61. B(H  59,C  10)                  1.1014         0.345391   
     62. B(H  60,N  12)                  1.0183         0.419698   
     63. B(H  61,C  13)                  1.0993         0.347990   
     64. B(H  62,O   8)                  4.9832         0.000000   
     65. B(H  62,N  15)                  1.0200         0.417044   
     66. B(H  63,C  16)                  1.1020         0.344545   
     67. B(H  64,C  16)                  1.0984         0.349107   
     68. B(H  65,C  17)                  1.1028         0.343608   
     69. B(H  66,C  18)                  1.1026         0.343856   
     70. B(H  67,N  20)                  1.0165         0.422471   
     71. B(H  68,C  21)                  1.0987         0.348789   
     72. B(H  69,N  23)                  1.0266         0.407165   
     73. B(H  70,C  24)                  1.1046         0.341356   
     74. B(H  71,C  25)                  1.0964         0.351689   
     75. B(H  72,C  25)                  1.0971         0.350839   
     76. B(H  73,C  25)                  1.0970         0.350935   
     77. B(H  74,C  27)                  1.1040         0.342000   
     78. B(H  75,C  27)                  1.0977         0.350077   
     79. B(H  76,C  28)                  1.1042         0.341758   
     80. B(H  77,C  29)                  1.1004         0.346656   
     81. B(H  78,C  29)                  1.0996         0.347623   
     82. B(H  79,C  29)                  1.0993         0.347955   
     83. B(H  80,H  56)                  2.3322         0.000719   
     84. B(H  80,C  30)                  1.1008         0.346065   
     85. B(H  81,C  30)                  1.0979         0.349773   
     86. B(H  82,C  30)                  1.1002         0.346889   
     87. B(H  83,C  33)                  1.1053         0.340444   
     88. B(H  84,C  33)                  1.1045         0.341379   
     89. B(H  85,C  34)                  1.1019         0.344692   
     90. B(H  86,C  34)                  1.1010         0.345838   
     91. B(H  87,C  35)                  1.1045         0.341441   
     92. B(H  88,C  35)                  1.1044         0.341548   
     93. B(H  89,C  36)                  1.1042         0.341806   
     94. B(H  90,C  36)                  1.1041         0.341865   
     95. B(H  91,C  37)                  1.1044         0.341600   
     96. B(H  92,C  37)                  1.1044         0.341585   
     97. B(H  93,C  38)                  1.1044         0.341565   
     98. B(H  94,C  38)                  1.1044         0.341577   
     99. B(H  95,C  39)                  1.1046         0.341343   
    100. B(H  96,C  39)                  1.1046         0.341331   
    101. B(H  97,C  40)                  1.1034         0.342768   
    102. B(H  98,C  40)                  1.1034         0.342773   
    103. B(H  99,C  41)                  1.0995         0.347789   
    104. B(H 100,C  41)                  1.1008         0.346150   
    105. B(H 101,C  41)                  1.1007         0.346156   
    106. B(H 102,O   0)                  1.7779         0.025771   
    107. B(H 102,O  43)                  0.9847         0.474873   
    108. B(H 103,H  54)                  2.4151         0.000530   
    109. B(H 103,C  45)                  1.1030         0.343312   
    110. B(H 104,C  45)                  1.0980         0.349662   
    111. B(H 105,C  46)                  1.0986         0.348956   
    112. B(H 106,C  46)                  1.0991         0.348248   
    113. B(H 107,C  46)                  1.0994         0.347935   
    114. B(H 108,C  48)                  1.1042         0.341744   
    115. B(H 109,C  49)                  1.0988         0.348677   
    116. B(H 110,C  49)                  1.0987         0.348752   
    117. B(H 111,C  49)                  1.1008         0.346095   
    118. B(H 112,C  50)                  1.0972         0.350702   
    119. B(H 113,C  50)                  1.1013         0.345412   
    120. B(H 114,C  50)                  1.0985         0.349015   
    121. A(O   0,C   1,N   9)          122.0655         0.467891   
    122. A(C   2,C   1,N   9)          114.8216         0.396948   
    123. A(O   0,C   1,C   2)          122.9181         0.424275   
    124. A(C   1,C   2,H  51)          107.8316         0.321224   
    125. A(N   6,C   2,H  51)          110.4290         0.328535   
    126. A(C   1,C   2,N   6)          111.7453         0.370078   
    127. A(C   1,C   2,C   3)          111.1213         0.357593   
    128. A(C   3,C   2,H  51)          111.9883         0.317895   
    129. A(C   3,C   2,N   6)          103.7582         0.366048   
    130. A(C   4,C   3,H  53)          113.3977         0.321777   
    131. A(C   4,C   3,H  52)          110.3949         0.321484   
    132. A(C   2,C   3,C   4)          103.8581         0.357298   
    133. A(C   2,C   3,H  53)          112.2247         0.318691   
    134. A(C   2,C   3,H  52)          109.1731         0.318402   
    135. A(H  52,C   3,H  53)          107.7381         0.288031   
    136. A(H  54,C   4,H  55)          107.8716         0.287954   
    137. A(C   3,C   4,H  55)          112.9324         0.321923   
    138. A(C   3,C   4,C   5)          102.9864         0.362534   
    139. A(C   3,C   4,H  54)          110.5183         0.321247   
    140. A(C   5,C   4,H  55)          112.7626         0.323321   
    141. A(C   5,C   4,H  54)          109.7283         0.322641   
    142. A(H  56,C   5,H  57)          108.0413         0.287871   
    143. A(C   4,C   5,N   6)          102.6796         0.368496   
    144. A(C   4,C   5,H  56)          113.3792         0.323961   
    145. A(N   6,C   5,H  57)          110.6444         0.325565   
    146. A(N   6,C   5,H  56)          110.8437         0.327650   
    147. A(C   4,C   5,H  57)          111.2233         0.321909   
    148. A(C   5,N   6,C   7)          128.6781         0.397900   
    149. A(C   2,N   6,C   7)          118.5565         0.401170   
    150. A(C   2,N   6,C   5)          112.6810         0.375889   
    151. A(O   8,C   7,C  24)          122.2286         0.426221   
    152. A(N   6,C   7,O   8)          120.4035         0.465270   
    153. A(N   6,C   7,C  24)          117.3679         0.390237   
    154. A(C   1,N   9,C  10)          123.4179         0.403295   
    155. A(C  10,N   9,H  58)          117.1110         0.334177   
    156. A(C   1,N   9,H  58)          118.3203         0.360476   
    157. A(C  48,C  10,H  59)          109.5356         0.322076   
    158. A(C  11,C  10,H  59)          109.9289         0.317148   
    159. A(N   9,C  10,C  11)          106.1341         0.362121   
    160. A(N   9,C  10,C  48)          111.4852         0.368020   
    161. A(N   9,C  10,H  59)          106.6156         0.326108   
    162. A(C  11,C  10,C  48)          112.9128         0.357476   
    163. A(N  12,C  11,O  47)          125.5648         0.468838   
    164. A(C  10,C  11,O  47)          122.4519         0.422469   
    165. A(C  10,C  11,N  12)          111.8425         0.388342   
    166. A(C  13,N  12,H  60)          116.4074         0.334454   
    167. A(C  11,N  12,C  13)          126.3563         0.400788   
    168. A(C  11,N  12,H  60)          114.8384         0.357425   
    169. A(C  14,C  13,C  45)          110.6353         0.357863   
    170. A(N  12,C  13,H  61)          109.8623         0.327037   
    171. A(C  14,C  13,H  61)          106.0342         0.320233   
    172. A(N  12,C  13,C  14)          108.3515         0.365957   
    173. A(C  45,C  13,H  61)          109.4257         0.320080   
    174. A(N  12,C  13,C  45)          112.3340         0.365775   
    175. A(C  13,C  14,N  15)          114.1623         0.389007   
    176. A(N  15,C  14,O  44)          123.7550         0.465976   
    177. A(C  13,C  14,O  44)          122.0551         0.427065   
    178. A(C  14,N  15,H  62)          119.1924         0.354501   
    179. A(C  16,N  15,H  62)          117.3788         0.336935   
    180. A(C  14,N  15,C  16)          122.9360         0.401405   
    181. A(H  63,C  16,H  64)          108.1195         0.287435   
    182. A(C  17,C  16,H  64)          110.5420         0.322152   
    183. A(N  15,C  16,H  63)          110.1408         0.329247   
    184. A(C  17,C  16,H  63)          109.6201         0.321459   
    185. A(N  15,C  16,C  17)          111.6609         0.371279   
    186. A(N  15,C  16,H  64)          106.6621         0.329963   
    187. A(O  43,C  17,H  65)          108.5518         0.331621   
    188. A(C  18,C  17,H  65)          107.0869         0.320092   
    189. A(C  16,C  17,H  65)          109.5654         0.321316   
    190. A(C  16,C  17,C  18)          111.1158         0.360690   
    191. A(C  18,C  17,O  43)          109.2344         0.372742   
    192. A(C  16,C  17,O  43)          111.1672         0.374244   
    193. A(C  19,C  18,H  66)          104.0966         0.319652   
    194. A(C  17,C  18,H  66)          107.4866         0.320129   
    195. A(C  17,C  18,C  32)          111.9769         0.357830   
    196. A(C  17,C  18,C  19)          113.1884         0.358700   
    197. A(C  19,C  18,C  32)          114.3092         0.357274   
    198. A(C  32,C  18,H  66)          104.8524         0.318908   
    199. A(C  18,C  19,N  20)          112.6524         0.390579   
    200. A(N  20,C  19,O  31)          125.0853         0.466955   
    201. A(C  18,C  19,O  31)          122.2501         0.426303   
    202. A(C  19,N  20,H  67)          113.9998         0.356624   
    203. A(C  19,N  20,C  21)          127.2695         0.399050   
    204. A(C  21,N  20,H  67)          115.7172         0.334547   
    205. A(C  27,C  21,H  68)          109.4189         0.318923   
    206. A(C  22,C  21,H  68)          106.0564         0.321169   
    207. A(N  20,C  21,H  68)          110.0844         0.326896   
    208. A(N  20,C  21,C  22)          108.6685         0.366626   
    209. A(C  22,C  21,C  27)          111.4218         0.357321   
    210. A(N  20,C  21,C  27)          111.0678         0.363939   
    211. A(C  21,C  22,N  23)          115.4863         0.391130   
    212. A(C  21,C  22,O  26)          121.6276         0.427109   
    213. A(N  23,C  22,O  26)          122.8385         0.466027   
    214. A(C  22,N  23,C  24)          120.9903         0.399396   
    215. A(C  24,N  23,H  69)          118.5407         0.333145   
    216. A(C  22,N  23,H  69)          120.3732         0.353997   
    217. A(C  25,C  24,H  70)          108.9730         0.322154   
    218. A(N  23,C  24,H  70)          106.5045         0.326361   
    219. A(C   7,C  24,H  70)          108.6229         0.319627   
    220. A(N  23,C  24,C  25)          111.9438         0.369903   
    221. A(C   7,C  24,N  23)          109.7923         0.366858   
    222. A(C   7,C  24,C  25)          110.8541         0.361933   
    223. A(H  71,C  25,H  73)          109.8876         0.288595   
    224. A(C  24,C  25,H  73)          110.3445         0.323619   
    225. A(H  71,C  25,H  72)          109.1424         0.288582   
    226. A(C  24,C  25,H  72)          110.4378         0.323605   
    227. A(C  24,C  25,H  71)          109.0446         0.323733   
    228. A(H  72,C  25,H  73)          107.9662         0.288485   
    229. A(C  28,C  27,H  75)          108.4343         0.319840   
    230. A(C  21,C  27,C  28)          117.8447         0.355563   
    231. A(H  74,C  27,H  75)          106.5799         0.287227   
    232. A(C  21,C  27,H  75)          105.4697         0.319115   
    233. A(C  28,C  27,H  74)          109.8118         0.318624   
    234. A(C  21,C  27,H  74)          108.0901         0.317902   
    235. A(C  29,C  28,C  30)          111.2779         0.361307   
    236. A(C  27,C  28,C  30)          113.9473         0.358799   
    237. A(C  27,C  28,C  29)          112.6212         0.358889   
    238. A(C  30,C  28,H  76)          106.6076         0.320644   
    239. A(C  29,C  28,H  76)          107.2099         0.320722   
    240. A(C  27,C  28,H  76)          104.5267         0.318587   
    241. A(C  28,C  29,H  79)          110.9948         0.321666   
    242. A(H  78,C  29,H  79)          107.7187         0.287686   
    243. A(H  77,C  29,H  79)          108.4941         0.287561   
    244. A(H  77,C  29,H  78)          107.7283         0.287518   
    245. A(C  28,C  29,H  78)          110.3720         0.321616   
    246. A(C  28,C  29,H  77)          111.3961         0.321469   
    247. A(H  81,C  30,H  82)          107.4989         0.287825   
    248. A(H  80,C  30,H  82)          107.3653         0.287346   
    249. A(C  28,C  30,H  82)          110.3441         0.321426   
    250. A(H  80,C  30,H  81)          108.7672         0.287718   
    251. A(C  28,C  30,H  81)          111.8278         0.321862   
    252. A(C  28,C  30,H  80)          110.8733         0.321301   
    253. A(C  33,C  32,O  42)          122.9706         0.437410   
    254. A(C  18,C  32,O  42)          121.0241         0.428627   
    255. A(C  18,C  32,C  33)          115.9499         0.363324   
    256. A(C  32,C  33,C  34)          114.4447         0.368046   
    257. A(C  34,C  33,H  84)          111.7301         0.322483   
    258. A(H  83,C  33,H  84)          104.1492         0.285898   
    259. A(C  32,C  33,H  84)          108.0375         0.324468   
    260. A(C  34,C  33,H  83)          110.7666         0.322338   
    261. A(C  32,C  33,H  83)          107.1012         0.324322   
    262. A(C  33,C  34,C  35)          112.5100         0.364521   
    263. A(H  85,C  34,H  86)          105.6303         0.287032   
    264. A(C  35,C  34,H  86)          110.0746         0.322177   
    265. A(C  33,C  34,H  86)          109.1764         0.323169   
    266. A(C  35,C  34,H  85)          109.9338         0.322002   
    267. A(C  33,C  34,H  85)          109.2798         0.322994   
    268. A(C  34,C  35,C  36)          113.2091         0.363314   
    269. A(H  87,C  35,H  88)          105.8430         0.286050   
    270. A(C  36,C  35,H  88)          109.2689         0.321486   
    271. A(C  34,C  35,H  88)          109.5466         0.321519   
    272. A(C  36,C  35,H  87)          109.2823         0.321469   
    273. A(C  34,C  35,H  87)          109.4261         0.321503   
    274. A(C  35,C  36,C  37)          113.4430         0.363276   
    275. A(H  89,C  36,H  90)          105.8954         0.286139   
    276. A(C  37,C  36,H  90)          109.3621         0.321536   
    277. A(C  35,C  36,H  90)          109.2639         0.321535   
    278. A(C  37,C  36,H  89)          109.3366         0.321527   
    279. A(C  35,C  36,H  89)          109.2633         0.321525   
    280. A(C  36,C  37,C  38)          113.5207         0.363246   
    281. A(H  91,C  37,H  92)          105.8853         0.286076   
    282. A(C  38,C  37,H  92)          109.2817         0.321466   
    283. A(C  36,C  37,H  92)          109.2919         0.321493   
    284. A(C  38,C  37,H  91)          109.2881         0.321468   
    285. A(C  36,C  37,H  91)          109.2907         0.321495   
    286. A(C  37,C  38,C  39)          113.5276         0.363246   
    287. A(H  93,C  38,H  94)          105.8857         0.286070   
    288. A(C  39,C  38,H  94)          109.2977         0.321492   
    289. A(C  37,C  38,H  94)          109.2786         0.321465   
    290. A(C  39,C  38,H  93)          109.2916         0.321490   
    291. A(C  37,C  38,H  93)          109.2767         0.321463   
    292. A(C  38,C  39,C  40)          113.5955         0.363091   
    293. A(H  95,C  39,H  96)          105.8527         0.286009   
    294. A(C  40,C  39,H  96)          109.2365         0.321295   
    295. A(C  38,C  39,H  96)          109.3130         0.321454   
    296. A(C  40,C  39,H  95)          109.2408         0.321297   
    297. A(C  38,C  39,H  95)          109.3124         0.321456   
    298. A(C  39,C  40,C  41)          113.1339         0.363166   
    299. A(H  97,C  40,H  98)          105.9312         0.286383   
    300. A(C  41,C  40,H  98)          109.6376         0.321739   
    301. A(C  39,C  40,H  98)          109.1237         0.321517   
    302. A(C  41,C  40,H  97)          109.6346         0.321738   
    303. A(C  39,C  40,H  97)          109.1244         0.321516   
    304. A(H 100,C  41,H 101)          107.4337         0.287262   
    305. A(H  99,C  41,H 101)          107.6870         0.287475   
    306. A(C  40,C  41,H 101)          111.0906         0.322257   
    307. A(H  99,C  41,H 100)          107.6856         0.287474   
    308. A(C  40,C  41,H 100)          111.0903         0.322256   
    309. A(C  40,C  41,H  99)          111.6609         0.322506   
    310. A(C  17,O  43,H 102)          110.7956         0.347013   
    311. A(C  13,C  45,C  46)          112.7096         0.361026   
    312. A(C  46,C  45,H 104)          110.7654         0.323207   
    313. A(C  13,C  45,H 104)          107.6386         0.320331   
    314. A(C  46,C  45,H 103)          110.1668         0.322238   
    315. A(C  13,C  45,H 103)          108.2462         0.319373   
    316. A(H 103,C  45,H 104)          107.1072         0.287345   
    317. A(H 106,C  46,H 107)          107.3893         0.287764   
    318. A(H 105,C  46,H 107)          107.8100         0.287856   
    319. A(C  45,C  46,H 107)          111.0035         0.322945   
    320. A(H 105,C  46,H 106)          108.0431         0.287896   
    321. A(C  45,C  46,H 106)          111.8936         0.322993   
    322. A(C  45,C  46,H 105)          110.5349         0.323100   
    323. A(C  50,C  48,H 108)          107.9249         0.320974   
    324. A(C  49,C  48,H 108)          109.8044         0.320987   
    325. A(C  10,C  48,H 108)          107.0107         0.321516   
    326. A(C  49,C  48,C  50)          110.9556         0.362013   
    327. A(C  10,C  48,C  50)          109.6179         0.362636   
    328. A(C  10,C  48,C  49)          111.3884         0.362651   
    329. A(H 110,C  49,H 111)          107.7775         0.287591   
    330. A(H 109,C  49,H 111)          107.3386         0.287581   
    331. A(C  48,C  49,H 111)          110.7366         0.321652   
    332. A(H 109,C  49,H 110)          107.7518         0.287925   
    333. A(C  48,C  49,H 110)          110.2369         0.322055   
    334. A(C  48,C  49,H 109)          112.8056         0.322044   
    335. A(H 113,C  50,H 114)          107.6035         0.287536   
    336. A(H 112,C  50,H 114)          107.9488         0.288220   
    337. A(C  48,C  50,H 114)          110.2872         0.322082   
    338. A(H 112,C  50,H 113)          108.6409         0.287753   
    339. A(C  48,C  50,H 113)          110.7160         0.321535   
    340. A(C  48,C  50,H 112)          111.5161         0.322337   
    341. D(H  51,C   2,C   1,N   9)     40.0850         0.010150   
    342. D(C   3,C   2,C   1,N   9)    -83.0010         0.010150   
    343. D(N   6,C   2,C   1,N   9)    161.6225         0.010150   
    344. D(N   6,C   2,C   1,O   0)    -23.3580         0.010150   
    345. D(C   3,C   2,C   1,O   0)     92.0185         0.010150   
    346. D(H  51,C   2,C   1,O   0)   -144.8955         0.010150   
    347. D(C   4,C   3,C   2,N   6)     23.2208         0.009627   
    348. D(H  53,C   3,C   2,H  51)    -94.8103         0.009627   
    349. D(H  53,C   3,C   2,C   1)     25.8540         0.009627   
    350. D(C   4,C   3,C   2,H  51)    142.3260         0.009627   
    351. D(H  53,C   3,C   2,N   6)    146.0845         0.009627   
    352. D(H  52,C   3,C   2,H  51)     24.5643         0.009627   
    353. D(C   4,C   3,C   2,C   1)    -97.0096         0.009627   
    354. D(H  52,C   3,C   2,C   1)    145.2286         0.009627   
    355. D(H  52,C   3,C   2,N   6)    -94.5409         0.009627   
    356. D(H  55,C   4,C   3,H  53)     79.7413         0.010737   
    357. D(H  55,C   4,C   3,H  52)    -41.2586         0.010737   
    358. D(H  54,C   4,C   3,H  52)   -162.1981         0.010737   
    359. D(H  55,C   4,C   3,C   2)   -158.1702         0.010737   
    360. D(H  54,C   4,C   3,H  53)    -41.1982         0.010737   
    361. D(C   5,C   4,C   3,C   2)    -36.2515         0.010737   
    362. D(H  54,C   4,C   3,C   2)     80.8904         0.010737   
    363. D(C   5,C   4,C   3,H  53)   -158.3400         0.010737   
    364. D(C   5,C   4,C   3,H  52)     80.6601         0.010737   
    365. D(N   6,C   5,C   4,C   3)     35.0761         0.011284   
    366. D(H  57,C   5,C   4,C   3)    -83.2861         0.011284   
    367. D(H  56,C   5,C   4,H  55)    -83.2473         0.011284   
    368. D(H  56,C   5,C   4,C   3)    154.7194         0.011284   
    369. D(H  57,C   5,C   4,H  54)    159.0141         0.011284   
    370. D(H  56,C   5,C   4,H  54)     37.0196         0.011284   
    371. D(H  57,C   5,C   4,H  55)     38.7472         0.011284   
    372. D(N   6,C   5,C   4,H  54)    -82.6237         0.011284   
    373. D(N   6,C   5,C   4,H  55)    157.1094         0.011284   
    374. D(C   5,N   6,C   2,C   3)     -0.9883         0.016337   
    375. D(C   7,N   6,C   5,H  57)    -79.4403         0.014888   
    376. D(C   7,N   6,C   5,H  56)     40.3996         0.014888   
    377. D(C   7,N   6,C   5,C   4)    161.7907         0.014888   
    378. D(C   2,N   6,C   5,H  57)     97.1261         0.014888   
    379. D(C   2,N   6,C   5,H  56)   -143.0341         0.014888   
    380. D(C   7,N   6,C   2,H  51)     55.7915         0.016337   
    381. D(C   2,N   6,C   5,C   4)    -21.6429         0.014888   
    382. D(C   7,N   6,C   2,C   3)    175.9603         0.016337   
    383. D(C   5,N   6,C   2,C   1)    118.8181         0.016337   
    384. D(C   7,N   6,C   2,C   1)    -64.2333         0.016337   
    385. D(C   5,N   6,C   2,H  51)   -121.1571         0.016337   
    386. D(C  24,C   7,N   6,C   5)     -5.1215         0.029718   
    387. D(C  24,C   7,N   6,C   2)    178.4856         0.029718   
    388. D(O   8,C   7,N   6,C   5)    174.9461         0.029718   
    389. D(O   8,C   7,N   6,C   2)     -1.4468         0.029718   
    390. D(H  58,N   9,C   1,O   0)   -174.6615         0.035086   
    391. D(C  10,N   9,C   1,C   2)    167.7730         0.035086   
    392. D(H  58,N   9,C   1,C   2)      0.4051         0.035086   
    393. D(C  10,N   9,C   1,O   0)     -7.2937         0.035086   
    394. D(H  59,C  10,N   9,C   1)     41.5161         0.014879   
    395. D(C  48,C  10,N   9,H  58)    -31.4707         0.014879   
    396. D(C  48,C  10,N   9,C   1)    161.0199         0.014879   
    397. D(C  11,C  10,N   9,C   1)    -75.6527         0.014879   
    398. D(H  59,C  10,N   9,H  58)   -150.9745         0.014879   
    399. D(C  11,C  10,N   9,H  58)     91.8567         0.014879   
    400. D(O  47,C  11,C  10,N   9)    -89.8620         0.008770   
    401. D(N  12,C  11,C  10,H  59)    -28.8845         0.008770   
    402. D(N  12,C  11,C  10,C  48)   -151.5280         0.008770   
    403. D(N  12,C  11,C  10,N   9)     86.0459         0.008770   
    404. D(O  47,C  11,C  10,H  59)    155.2076         0.008770   
    405. D(O  47,C  11,C  10,C  48)     32.5641         0.008770   
    406. D(H  60,N  12,C  11,O  47)    174.1061         0.031813   
    407. D(H  60,N  12,C  11,C  10)     -1.6487         0.031813   
    408. D(C  13,N  12,C  11,O  47)     12.4368         0.031813   
    409. D(C  13,N  12,C  11,C  10)   -163.3180         0.031813   
    410. D(H  61,C  13,N  12,C  11)    -73.5272         0.015171   
    411. D(H  61,C  13,N  12,H  60)    125.0546         0.015171   
    412. D(C  45,C  13,N  12,H  60)   -112.8920         0.015171   
    413. D(C  45,C  13,N  12,C  11)     48.5262         0.015171   
    414. D(C  14,C  13,N  12,C  11)    171.0527         0.015171   
    415. D(C  14,C  13,N  12,H  60)      9.6346         0.015171   
    416. D(O  44,C  14,C  13,C  45)   -107.3130         0.009636   
    417. D(O  44,C  14,C  13,N  12)    129.1324         0.009636   
    418. D(N  15,C  14,C  13,H  61)   -170.6042         0.009636   
    419. D(N  15,C  14,C  13,C  45)     70.8413         0.009636   
    420. D(O  44,C  14,C  13,H  61)     11.2416         0.009636   
    421. D(N  15,C  14,C  13,N  12)    -52.7133         0.009636   
    422. D(H  62,N  15,C  14,O  44)   -178.0577         0.029061   
    423. D(H  62,N  15,C  14,C  13)      3.8238         0.029061   
    424. D(C  16,N  15,C  14,O  44)     -6.3288         0.029061   
    425. D(C  16,N  15,C  14,C  13)    175.5528         0.029061   
    426. D(H  64,C  16,N  15,H  62)    177.1556         0.016796   
    427. D(H  64,C  16,N  15,C  14)      5.2860         0.016796   
    428. D(H  63,C  16,N  15,H  62)    -65.7445         0.016796   
    429. D(H  63,C  16,N  15,C  14)    122.3859         0.016796   
    430. D(C  17,C  16,N  15,C  14)   -115.5758         0.016796   
    431. D(C  17,C  16,N  15,H  62)     56.2938         0.016796   
    432. D(H  65,C  17,C  16,H  64)    -61.9575         0.010939   
    433. D(H  65,C  17,C  16,H  63)    178.9534         0.010939   
    434. D(H  65,C  17,C  16,N  15)     56.6159         0.010939   
    435. D(O  43,C  17,C  16,H  64)    178.0620         0.010939   
    436. D(O  43,C  17,C  16,H  63)     58.9729         0.010939   
    437. D(O  43,C  17,C  16,N  15)    -63.3646         0.010939   
    438. D(C  18,C  17,C  16,H  64)     56.1758         0.010939   
    439. D(C  18,C  17,C  16,H  63)    -62.9133         0.010939   
    440. D(C  18,C  17,C  16,N  15)    174.7492         0.010939   
    441. D(H  66,C  18,C  17,H  65)     68.3954         0.010472   
    442. D(H  66,C  18,C  17,O  43)   -174.2313         0.010472   
    443. D(H  66,C  18,C  17,C  16)    -51.2265         0.010472   
    444. D(C  32,C  18,C  17,O  43)     71.1267         0.010472   
    445. D(C  32,C  18,C  17,C  16)   -165.8684         0.010472   
    446. D(C  32,C  18,C  17,H  65)    -46.2465         0.010472   
    447. D(C  19,C  18,C  17,H  65)   -177.2267         0.010472   
    448. D(C  19,C  18,C  17,O  43)    -59.8535         0.010472   
    449. D(C  19,C  18,C  17,C  16)     63.1513         0.010472   
    450. D(O  31,C  19,C  18,H  66)      1.4908         0.009650   
    451. D(O  31,C  19,C  18,C  32)    115.2838         0.009650   
    452. D(O  31,C  19,C  18,C  17)   -114.9076         0.009650   
    453. D(N  20,C  19,C  18,H  66)   -179.7253         0.009650   
    454. D(N  20,C  19,C  18,C  17)     63.8763         0.009650   
    455. D(N  20,C  19,C  18,C  32)    -65.9322         0.009650   
    456. D(H  67,N  20,C  19,O  31)   -179.8295         0.030484   
    457. D(H  67,N  20,C  19,C  18)      1.4273         0.030484   
    458. D(C  21,N  20,C  19,O  31)     20.8330         0.030484   
    459. D(C  21,N  20,C  19,C  18)   -157.9101         0.030484   
    460. D(H  68,C  21,N  20,H  67)    117.6164         0.015024   
    461. D(H  68,C  21,N  20,C  19)    -83.3486         0.015024   
    462. D(C  27,C  21,N  20,H  67)   -121.0372         0.015024   
    463. D(C  27,C  21,N  20,C  19)     37.9977         0.015024   
    464. D(C  22,C  21,N  20,H  67)      1.8702         0.015024   
    465. D(C  22,C  21,N  20,C  19)    160.9052         0.015024   
    466. D(N  23,C  22,C  21,C  27)     84.4946         0.009916   
    467. D(N  23,C  22,C  21,N  20)    -38.1993         0.009916   
    468. D(O  26,C  22,C  21,H  68)     25.9198         0.009916   
    469. D(O  26,C  22,C  21,C  27)    -93.0639         0.009916   
    470. D(O  26,C  22,C  21,N  20)    144.2422         0.009916   
    471. D(N  23,C  22,C  21,H  68)   -156.5217         0.009916   
    472. D(H  69,N  23,C  22,O  26)   -179.2156         0.030049   
    473. D(H  69,N  23,C  22,C  21)      3.2587         0.030049   
    474. D(C  24,N  23,C  22,O  26)     -2.8270         0.030049   
    475. D(C  24,N  23,C  22,C  21)    179.6473         0.030049   
    476. D(H  70,C  24,N  23,H  69)   -140.2070         0.015375   
    477. D(H  70,C  24,N  23,C  22)     43.3397         0.015375   
    478. D(C  25,C  24,N  23,H  69)    100.7836         0.015375   
    479. D(C  25,C  24,N  23,C  22)    -75.6698         0.015375   
    480. D(C   7,C  24,N  23,H  69)    -22.7811         0.015375   
    481. D(C   7,C  24,N  23,C  22)    160.7656         0.015375   
    482. D(H  70,C  24,C   7,O   8)   -122.9241         0.009772   
    483. D(H  70,C  24,C   7,N   6)     57.1448         0.009772   
    484. D(C  25,C  24,C   7,O   8)     -3.2207         0.009772   
    485. D(C  25,C  24,C   7,N   6)    176.8482         0.009772   
    486. D(N  23,C  24,C   7,O   8)    120.9798         0.009772   
    487. D(N  23,C  24,C   7,N   6)    -58.9513         0.009772   
    488. D(H  73,C  25,C  24,H  70)    179.4270         0.011413   
    489. D(H  73,C  25,C  24,N  23)    -63.0317         0.011413   
    490. D(H  73,C  25,C  24,C   7)     59.9334         0.011413   
    491. D(H  72,C  25,C  24,H  70)     60.1355         0.011413   
    492. D(H  72,C  25,C  24,N  23)    177.6768         0.011413   
    493. D(H  72,C  25,C  24,C   7)    -59.3581         0.011413   
    494. D(H  71,C  25,C  24,H  70)    -59.7882         0.011413   
    495. D(H  71,C  25,C  24,N  23)     57.7530         0.011413   
    496. D(H  71,C  25,C  24,C   7)   -179.2818         0.011413   
    497. D(H  75,C  27,C  21,H  68)     68.8916         0.009772   
    498. D(H  75,C  27,C  21,C  22)   -174.1504         0.009772   
    499. D(H  75,C  27,C  21,N  20)    -52.8441         0.009772   
    500. D(H  74,C  27,C  21,H  68)   -177.4127         0.009772   
    501. D(H  74,C  27,C  21,C  22)    -60.4546         0.009772   
    502. D(H  74,C  27,C  21,N  20)     60.8517         0.009772   
    503. D(C  28,C  27,C  21,H  68)    -52.2571         0.009772   
    504. D(C  28,C  27,C  21,C  22)     64.7010         0.009772   
    505. D(C  28,C  27,C  21,N  20)   -173.9927         0.009772   
    506. D(H  76,C  28,C  27,H  75)     40.3166         0.010026   
    507. D(H  76,C  28,C  27,H  74)    -75.7740         0.010026   
    508. D(H  76,C  28,C  27,C  21)    159.9233         0.010026   
    509. D(C  30,C  28,C  27,H  75)    156.3021         0.010026   
    510. D(C  30,C  28,C  27,H  74)     40.2115         0.010026   
    511. D(C  30,C  28,C  27,C  21)    -84.0912         0.010026   
    512. D(C  29,C  28,C  27,H  75)    -75.7292         0.010026   
    513. D(C  29,C  28,C  27,H  74)    168.1802         0.010026   
    514. D(C  29,C  28,C  27,C  21)     43.8775         0.010026   
    515. D(H  79,C  29,C  28,C  30)     58.3828         0.010818   
    516. D(H  79,C  29,C  28,C  27)    -70.9757         0.010818   
    517. D(H  78,C  29,C  28,H  76)     55.2405         0.010818   
    518. D(H  78,C  29,C  28,C  30)    -60.9736         0.010818   
    519. D(H  78,C  29,C  28,C  27)    169.6679         0.010818   
    520. D(H  77,C  29,C  28,H  76)    -64.3871         0.010818   
    521. D(H  77,C  29,C  28,C  30)    179.3987         0.010818   
    522. D(H  79,C  29,C  28,H  76)    174.5969         0.010818   
    523. D(H  77,C  29,C  28,C  27)     50.0403         0.010818   
    524. D(H  82,C  30,C  28,H  76)    -59.6019         0.010788   
    525. D(H  82,C  30,C  28,C  29)     56.9811         0.010788   
    526. D(H  82,C  30,C  28,C  27)   -174.3650         0.010788   
    527. D(H  81,C  30,C  28,H  76)   -179.2039         0.010788   
    528. D(H  81,C  30,C  28,C  29)    -62.6208         0.010788   
    529. D(H  81,C  30,C  28,C  27)     66.0330         0.010788   
    530. D(H  80,C  30,C  28,H  76)     59.2188         0.010788   
    531. D(H  80,C  30,C  28,C  29)    175.8018         0.010788   
    532. D(H  80,C  30,C  28,C  27)    -55.5444         0.010788   
    533. D(O  42,C  32,C  18,H  66)   -102.1525         0.009402   
    534. D(O  42,C  32,C  18,C  19)    144.5017         0.009402   
    535. D(O  42,C  32,C  18,C  17)     14.0949         0.009402   
    536. D(C  33,C  32,C  18,H  66)     75.2191         0.009402   
    537. D(C  33,C  32,C  18,C  19)    -38.1267         0.009402   
    538. D(C  33,C  32,C  18,C  17)   -168.5335         0.009402   
    539. D(H  84,C  33,C  32,O  42)    133.2525         0.011602   
    540. D(H  84,C  33,C  32,C  18)    -44.0626         0.011602   
    541. D(H  83,C  33,C  32,O  42)   -115.0835         0.011602   
    542. D(H  83,C  33,C  32,C  18)     67.6014         0.011602   
    543. D(C  34,C  33,C  32,O  42)      8.1014         0.011602   
    544. D(C  34,C  33,C  32,C  18)   -169.2138         0.011602   
    545. D(H  86,C  34,C  33,H  84)   -179.3723         0.011546   
    546. D(H  86,C  34,C  33,H  83)     64.9973         0.011546   
    547. D(H  86,C  34,C  33,C  32)    -56.1893         0.011546   
    548. D(H  85,C  34,C  33,H  84)    -64.2939         0.011546   
    549. D(H  85,C  34,C  33,H  83)   -179.9243         0.011546   
    550. D(H  85,C  34,C  33,C  32)     58.8891         0.011546   
    551. D(C  35,C  34,C  33,H  84)     58.1138         0.011546   
    552. D(C  35,C  34,C  33,H  83)    -57.5166         0.011546   
    553. D(C  35,C  34,C  33,C  32)   -178.7031         0.011546   
    554. D(H  88,C  35,C  34,H  86)   -179.5576         0.011144   
    555. D(H  88,C  35,C  34,H  85)     64.4869         0.011144   
    556. D(H  88,C  35,C  34,C  33)    -57.5512         0.011144   
    557. D(H  87,C  35,C  34,H  86)    -63.9380         0.011144   
    558. D(H  87,C  35,C  34,H  85)   -179.8934         0.011144   
    559. D(H  87,C  35,C  34,C  33)     58.0685         0.011144   
    560. D(C  36,C  35,C  34,H  86)     58.2169         0.011144   
    561. D(C  36,C  35,C  34,H  85)    -57.7386         0.011144   
    562. D(C  36,C  35,C  34,C  33)   -179.7767         0.011144   
    563. D(H  90,C  36,C  35,H  87)     64.6073         0.011131   
    564. D(H  90,C  36,C  35,C  34)    -57.6278         0.011131   
    565. D(H  89,C  36,C  35,H  88)    -64.5740         0.011131   
    566. D(H  89,C  36,C  35,H  87)   -179.9587         0.011131   
    567. D(H  89,C  36,C  35,C  34)     57.8062         0.011131   
    568. D(C  37,C  36,C  35,H  88)     57.6924         0.011131   
    569. D(C  37,C  36,C  35,H  87)    -57.6923         0.011131   
    570. D(H  90,C  36,C  35,H  88)    179.9920         0.011131   
    571. D(C  37,C  36,C  35,C  34)   -179.9274         0.011131   
    572. D(H  92,C  37,C  36,H  90)   -179.9032         0.011131   
    573. D(H  92,C  37,C  36,H  89)     64.5677         0.011131   
    574. D(H  92,C  37,C  36,C  35)    -57.6580         0.011131   
    575. D(H  91,C  37,C  36,H  90)    -64.4506         0.011131   
    576. D(H  91,C  37,C  36,H  89)   -179.9798         0.011131   
    577. D(H  91,C  37,C  36,C  35)     57.7945         0.011131   
    578. D(C  38,C  37,C  36,H  90)     57.8268         0.011131   
    579. D(C  38,C  37,C  36,H  89)    -57.7024         0.011131   
    580. D(C  38,C  37,C  36,C  35)   -179.9281         0.011131   
    581. D(H  94,C  38,C  37,H  92)   -179.9945         0.011120   
    582. D(H  94,C  38,C  37,H  91)     64.5600         0.011120   
    583. D(H  94,C  38,C  37,C  36)    -57.7188         0.011120   
    584. D(H  93,C  38,C  37,H  92)    -64.5565         0.011120   
    585. D(H  93,C  38,C  37,H  91)    179.9980         0.011120   
    586. D(H  93,C  38,C  37,C  36)     57.7192         0.011120   
    587. D(C  39,C  38,C  37,H  92)     57.7199         0.011120   
    588. D(C  39,C  38,C  37,H  91)    -57.7256         0.011120   
    589. D(C  39,C  38,C  37,C  36)    179.9956         0.011120   
    590. D(H  95,C  39,C  38,H  94)    -64.5363         0.011131   
    591. D(H  95,C  39,C  38,H  93)   -179.9930         0.011131   
    592. D(H  95,C  39,C  38,C  37)     57.7388         0.011131   
    593. D(C  40,C  39,C  38,H  94)     57.7476         0.011131   
    594. D(C  40,C  39,C  38,H  93)    -57.7091         0.011131   
    595. D(C  40,C  39,C  38,C  37)   -179.9773         0.011131   
    596. D(H  96,C  39,C  38,H  94)   -179.9736         0.011131   
    597. D(H  96,C  39,C  38,H  93)     64.5697         0.011131   
    598. D(H  96,C  39,C  38,C  37)    -57.6984         0.011131   
    599. D(H  98,C  40,C  39,H  95)     64.6685         0.011068   
    600. D(H  98,C  40,C  39,C  38)    -57.6551         0.011068   
    601. D(H  97,C  40,C  39,H  96)    -64.6530         0.011068   
    602. D(H  97,C  40,C  39,H  95)    179.9916         0.011068   
    603. D(H  97,C  40,C  39,C  38)     57.6681         0.011068   
    604. D(C  41,C  40,C  39,H  96)     57.6837         0.011068   
    605. D(C  41,C  40,C  39,H  95)    -57.6717         0.011068   
    606. D(H  98,C  40,C  39,H  96)   -179.9762         0.011068   
    607. D(C  41,C  40,C  39,C  38)   -179.9952         0.011068   
    608. D(H 101,C  41,C  40,H  98)    -62.2835         0.011157   
    609. D(H 101,C  41,C  40,H  97)   -178.1788         0.011157   
    610. D(H 101,C  41,C  40,C  39)     59.7695         0.011157   
    611. D(H 100,C  41,C  40,H  98)    178.1843         0.011157   
    612. D(H 100,C  41,C  40,H  97)     62.2890         0.011157   
    613. D(H 100,C  41,C  40,C  39)    -59.7626         0.011157   
    614. D(H  99,C  41,C  40,H  98)     57.9514         0.011157   
    615. D(H  99,C  41,C  40,H  97)    -57.9439         0.011157   
    616. D(H  99,C  41,C  40,C  39)   -179.9955         0.011157   
    617. D(H 102,O  43,C  17,H  65)    -47.7878         0.017021   
    618. D(H 102,O  43,C  17,C  18)   -164.2333         0.017021   
    619. D(H 102,O  43,C  17,C  16)     72.7924         0.017021   
    620. D(H 104,C  45,C  13,H  61)     63.8255         0.010224   
    621. D(H 104,C  45,C  13,C  14)   -179.7021         0.010224   
    622. D(H 104,C  45,C  13,N  12)    -58.4757         0.010224   
    623. D(H 103,C  45,C  13,H  61)    179.2828         0.010224   
    624. D(H 103,C  45,C  13,C  14)    -64.2448         0.010224   
    625. D(H 103,C  45,C  13,N  12)     56.9817         0.010224   
    626. D(C  46,C  45,C  13,H  61)    -58.6113         0.010224   
    627. D(C  46,C  45,C  13,C  14)     57.8611         0.010224   
    628. D(C  46,C  45,C  13,N  12)    179.0876         0.010224   
    629. D(H 107,C  46,C  45,H 104)    -61.9273         0.011324   
    630. D(H 107,C  46,C  45,H 103)    179.7522         0.011324   
    631. D(H 107,C  46,C  45,C  13)     58.7356         0.011324   
    632. D(H 106,C  46,C  45,H 104)    178.1185         0.011324   
    633. D(H 106,C  46,C  45,H 103)     59.7980         0.011324   
    634. D(H 106,C  46,C  45,C  13)    -61.2186         0.011324   
    635. D(H 105,C  46,C  45,H 104)     57.6551         0.011324   
    636. D(H 105,C  46,C  45,H 103)    -60.6654         0.011324   
    637. D(H 105,C  46,C  45,C  13)    178.3179         0.011324   
    638. D(H 108,C  48,C  10,H  59)   -178.5355         0.011131   
    639. D(H 108,C  48,C  10,C  11)    -55.6727         0.011131   
    640. D(H 108,C  48,C  10,N   9)     63.7067         0.011131   
    641. D(C  50,C  48,C  10,H  59)    -61.7449         0.011131   
    642. D(C  50,C  48,C  10,C  11)     61.1179         0.011131   
    643. D(C  50,C  48,C  10,N   9)   -179.5027         0.011131   
    644. D(C  49,C  48,C  10,H  59)     61.4420         0.011131   
    645. D(C  49,C  48,C  10,C  11)   -175.6952         0.011131   
    646. D(C  49,C  48,C  10,N   9)    -56.3158         0.011131   
    647. D(H 111,C  49,C  48,C  50)     60.3164         0.010922   
    648. D(H 111,C  49,C  48,C  10)    -62.1032         0.010922   
    649. D(H 110,C  49,C  48,H 108)     60.3609         0.010922   
    650. D(H 110,C  49,C  48,C  50)    -58.8614         0.010922   
    651. D(H 110,C  49,C  48,C  10)    178.7189         0.010922   
    652. D(H 109,C  49,C  48,H 108)    -60.1380         0.010922   
    653. D(H 109,C  49,C  48,C  50)   -179.3604         0.010922   
    654. D(H 111,C  49,C  48,H 108)    179.5388         0.010922   
    655. D(H 109,C  49,C  48,C  10)     58.2200         0.010922   
    656. D(H 114,C  50,C  48,H 108)    -63.2838         0.010917   
    657. D(H 114,C  50,C  48,C  49)     57.0606         0.010917   
    658. D(H 114,C  50,C  48,C  10)   -179.4975         0.010917   
    659. D(H 113,C  50,C  48,H 108)    177.7354         0.010917   
    660. D(H 113,C  50,C  48,C  49)    -61.9202         0.010917   
    661. D(H 113,C  50,C  48,C  10)     61.5217         0.010917   
    662. D(H 112,C  50,C  48,H 108)     56.6428         0.010917   
    663. D(H 112,C  50,C  48,C  49)    176.9873         0.010917   
    664. D(H 112,C  50,C  48,C  10)    -59.5709         0.010917   
    -----------------------------------------------------------------

Number of atoms                         .... 115
Number of degrees of freedom            .... 664

         *************************************************************
         *                GEOMETRY OPTIMIZATION CYCLE   1            *
         *************************************************************
---------------------------------
CARTESIAN COORDINATES (ANGSTROEM)
---------------------------------
  O      3.772892   -0.994623   -0.079688
  C      4.991199   -0.752064    0.000467
  C      5.546043    0.530069    0.634240
  C      5.841712    0.325038    2.143381
  C      4.592859    0.881863    2.841767
  C      4.211317    2.073508    1.964388
  N      4.566686    1.608485    0.616440
  C      4.151821    2.095162   -0.592832
  O      4.620335    1.645393   -1.640034
  N      5.924928   -1.649140   -0.370961
  C      5.611101   -3.033312   -0.752160
  C      5.309885   -3.789263    0.573937
  N      4.009367   -3.657611    0.946966
  C      3.454211   -3.931180    2.276955
  C      1.995220   -3.433659    2.305687
  N      1.838878   -2.130523    1.910128
  C      0.538382   -1.496497    1.774960
  C      0.247659   -1.106061    0.321630
  C     -1.181680   -0.555748    0.170675
  C     -1.419159    0.743168    0.966117
  N     -0.647793    1.778626    0.524169
  C     -0.265024    2.983842    1.270344
  C      0.957904    3.617852    0.587383
  N      1.881703    2.736745    0.099826
  C      3.089904    3.209959   -0.580535
  C      2.793981    3.694266   -1.997670
  O      1.105638    4.838935    0.531948
  C      0.025514    2.650737    2.755163
  C      0.305049    3.827193    3.717530
  C     -0.665831    4.998014    3.515946
  C      1.763354    4.305305    3.709803
  O     -2.208270    0.801117    1.907968
  C     -1.620742   -0.484682   -1.309349
  C     -2.894147    0.287264   -1.586613
  C     -3.436184    0.122789   -3.002392
  C     -4.703683    0.945089   -3.243545
  C     -5.264610    0.787525   -4.658448
  C     -6.531515    1.609139   -4.906036
  C     -7.095019    1.451514   -6.320051
  C     -8.361990    2.272979   -6.567777
  C     -8.927403    2.115998   -7.981839
  C    -10.193488    2.941620   -8.217989
  O     -0.993956   -1.063511   -2.178548
  O      1.187502   -0.121696   -0.150499
  O      1.071579   -4.145997    2.686964
  C      4.276211   -3.270264    3.402550
  C      3.692790   -3.531261    4.790113
  O      6.185722   -4.358528    1.222419
  C      6.751040   -3.666245   -1.552999
  C      7.089067   -2.835785   -2.796333
  C      6.374498   -5.101497   -1.938068
  H      6.448466    0.820770    0.072820
  H      6.729076    0.911626    2.420339
  H      6.045730   -0.725515    2.387503
  H      3.781622    0.138429    2.831814
  H      4.777217    1.164983    3.885353
  H      3.149901    2.331094    2.019931
  H      4.795557    2.971083    2.233176
  H      6.902825   -1.424504   -0.204944
  H      4.703371   -2.990513   -1.374392
  H      3.444741   -3.074964    0.331601
  H      3.408369   -5.016359    2.446571
  H      2.650996   -1.610790    1.577236
  H      0.483782   -0.602067    2.416413
  H     -0.204285   -2.221173    2.135320
  H      0.321000   -1.998344   -0.322213
  H     -1.867687   -1.283804    0.634333
  H     -0.056805    1.544707   -0.269130
  H     -1.066801    3.732915    1.214153
  H      1.714217    1.725454    0.155221
  H      3.474354    4.056757    0.015423
  H      2.045663    4.494405   -1.953357
  H      3.706315    4.080632   -2.468816
  H      2.419642    2.866884   -2.613102
  H      0.863990    1.933246    2.787818
  H     -0.861494    2.112444    3.113447
  H      0.113817    3.413660    4.723387
  H     -1.711641    4.655908    3.510517
  H     -0.557146    5.729819    4.329435
  H     -0.464198    5.518280    2.568732
  H      2.450058    3.473321    3.929002
  H      2.042442    4.748835    2.745013
  H      1.918668    5.071823    4.483569
  H     -2.683876    1.350213   -1.368509
  H     -3.641595   -0.001608   -0.826438
  H     -3.638216   -0.943527   -3.193033
  H     -2.656031    0.410536   -3.724032
  H     -4.491406    2.011934   -3.052066
  H     -5.477194    0.655286   -2.510476
  H     -5.477410   -0.279032   -4.849275
  H     -4.491263    1.077418   -5.391275
  H     -6.317749    2.675694   -4.715328
  H     -7.303576    1.319531   -4.171407
  H     -7.308686    0.384877   -6.510575
  H     -6.322882    1.741040   -7.054641
  H     -8.148635    3.339893   -6.377437
  H     -9.134290    1.983934   -5.832873
  H     -9.139672    1.049650   -8.169979
  H     -8.154386    2.404767   -8.714369
  H    -10.578472    2.811037   -9.239540
  H    -10.992684    2.649762   -7.519587
  H    -10.000199    4.014849   -8.068087
  H      2.072035   -0.527112   -0.301665
  H      4.320647   -2.185729    3.206569
  H      5.302936   -3.653280    3.333605
  H      4.320821   -3.070923    5.565029
  H      2.676267   -3.125437    4.890265
  H      3.638132   -4.609363    4.998171
  H      7.628554   -3.712875   -0.884310
  H      7.374687   -1.802863   -2.553842
  H      7.923773   -3.294318   -3.344230
  H      6.226347   -2.786115   -3.478245
  H      6.182289   -5.718730   -1.051545
  H      5.476170   -5.111005   -2.575138
  H      7.189724   -5.569737   -2.506297

----------------------------
CARTESIAN COORDINATES (A.U.)
----------------------------
  NO LB      ZA    FRAG     MASS         X           Y           Z
   0 O     8.0000    0    15.999    7.129733   -1.879565   -0.150588
   1 C     6.0000    0    12.011    9.431999   -1.421195    0.000883
   2 C     6.0000    0    12.011   10.480502    1.001685    1.198540
   3 C     6.0000    0    12.011   11.039236    0.614232    4.050404
   4 C     6.0000    0    12.011    8.679245    1.666480    5.370161
   5 C     6.0000    0    12.011    7.958235    3.918361    3.712155
   6 N     7.0000    0    14.007    8.629786    3.039596    1.164902
   7 C     6.0000    0    12.011    7.845804    3.959283   -1.120291
   8 O     8.0000    0    15.999    8.731168    3.109342   -3.099216
   9 N     7.0000    0    14.007   11.196491   -3.116424   -0.701014
  10 C     6.0000    0    12.011   10.603444   -5.732129   -1.421377
  11 C     6.0000    0    12.011   10.034229   -7.160669    1.084583
  12 N     7.0000    0    14.007    7.576606   -6.911884    1.789507
  13 C     6.0000    0    12.011    6.527513   -7.428853    4.302822
  14 C     6.0000    0    12.011    3.770419   -6.488675    4.357117
  15 N     7.0000    0    14.007    3.474976   -4.026104    3.609619
  16 C     6.0000    0    12.011    1.017395   -2.827969    3.354187
  17 C     6.0000    0    12.011    0.468007   -2.090152    0.607792
  18 C     6.0000    0    12.011   -2.233051   -1.050212    0.322530
  19 C     6.0000    0    12.011   -2.681823    1.404384    1.825697
  20 N     7.0000    0    14.007   -1.224151    3.361117    0.990536
  21 C     6.0000    0    12.011   -0.500823    5.638644    2.400603
  22 C     6.0000    0    12.011    1.810177    6.836749    1.109992
  23 N     7.0000    0    14.007    3.555902    5.171699    0.188643
  24 C     6.0000    0    12.011    5.839072    6.065944   -1.097052
  25 C     6.0000    0    12.011    5.279859    6.981150   -3.775048
  26 O     8.0000    0    15.999    2.089353    9.144262    1.005236
  27 C     6.0000    0    12.011    0.048215    5.009166    5.206504
  28 C     6.0000    0    12.011    0.576459    7.232346    7.025114
  29 C     6.0000    0    12.011   -1.258238    9.444877    6.644174
  30 C     6.0000    0    12.011    3.332256    8.135848    7.010512
  31 O     8.0000    0    15.999   -4.173025    1.513892    3.605538
  32 C     6.0000    0    12.011   -3.062758   -0.915916   -2.474312
  33 C     6.0000    0    12.011   -5.469145    0.542851   -2.998265
  34 C     6.0000    0    12.011   -6.493447    0.232038   -5.673699
  35 C     6.0000    0    12.011   -8.888672    1.785959   -6.129413
  36 C     6.0000    0    12.011   -9.948671    1.488206   -8.803192
  37 C     6.0000    0    12.011  -12.342774    3.040832   -9.271064
  38 C     6.0000    0    12.011  -13.407643    2.742963  -11.943165
  39 C     6.0000    0    12.011  -15.801872    4.295307  -12.411299
  40 C     6.0000    0    12.011  -16.870348    3.998657  -15.083490
  41 C     6.0000    0    12.011  -19.262900    5.558857  -15.529748
  42 O     8.0000    0    15.999   -1.878304   -2.009745   -4.116859
  43 O     8.0000    0    15.999    2.244053   -0.229973   -0.284401
  44 O     8.0000    0    15.999    2.024991   -7.834800    5.077626
  45 C     6.0000    0    12.011    8.080867   -6.179904    6.429888
  46 C     6.0000    0    12.011    6.978363   -6.673116    9.052001
  47 O     8.0000    0    15.999   11.689321   -8.236424    2.310038
  48 C     6.0000    0    12.011   12.757616   -6.928199   -2.934743
  49 C     6.0000    0    12.011   13.396395   -5.358857   -5.284303
  50 C     6.0000    0    12.011   12.046056   -9.640433   -3.662418
  51 H     1.0000    0     1.008   12.185835    1.551031    0.137610
  52 H     1.0000    0     1.008   12.716110    1.722723    4.573779
  53 H     1.0000    0     1.008   11.424774   -1.371025    4.511726
  54 H     1.0000    0     1.008    7.146230    0.261593    5.351353
  55 H     1.0000    0     1.008    9.027632    2.201499    7.342252
  56 H     1.0000    0     1.008    5.952450    4.405129    3.817116
  57 H     1.0000    0     1.008    9.062290    5.614533    4.220090
  58 H     1.0000    0     1.008   13.044449   -2.691922   -0.387289
  59 H     1.0000    0     1.008    8.888084   -5.651250   -2.597225
  60 H     1.0000    0     1.008    6.509617   -5.810840    0.626636
  61 H     1.0000    0     1.008    6.440884   -9.479545    4.623348
  62 H     1.0000    0     1.008    5.009657   -3.043953    2.980544
  63 H     1.0000    0     1.008    0.914216   -1.137743    4.566359
  64 H     1.0000    0     1.008   -0.386042   -4.197408    4.035171
  65 H     1.0000    0     1.008    0.606602   -3.776323   -0.608895
  66 H     1.0000    0     1.008   -3.529417   -2.426038    1.198716
  67 H     1.0000    0     1.008   -0.107345    2.919073   -0.508581
  68 H     1.0000    0     1.008   -2.015961    7.054187    2.294417
  69 H     1.0000    0     1.008    3.239401    3.260635    0.293325
  70 H     1.0000    0     1.008    6.565577    7.666159    0.029146
  71 H     1.0000    0     1.008    3.865742    8.493194   -3.691309
  72 H     1.0000    0     1.008    7.003921    7.711277   -4.665386
  73 H     1.0000    0     1.008    4.572460    5.417626   -4.938047
  74 H     1.0000    0     1.008    1.632704    3.653305    5.268213
  75 H     1.0000    0     1.008   -1.627987    3.991941    5.883562
  76 H     1.0000    0     1.008    0.215083    6.450883    8.925907
  77 H     1.0000    0     1.008   -3.234533    8.798390    6.633916
  78 H     1.0000    0     1.008   -1.052854   10.827790    8.181447
  79 H     1.0000    0     1.008   -0.877207   10.428038    4.854200
  80 H     1.0000    0     1.008    4.629938    6.563625    7.424738
  81 H     1.0000    0     1.008    3.859656    8.973998    5.187323
  82 H     1.0000    0     1.008    3.625756    9.584356    8.472717
  83 H     1.0000    0     1.008   -5.071791    2.551532   -2.586108
  84 H     1.0000    0     1.008   -6.881618   -0.003039   -1.561742
  85 H     1.0000    0     1.008   -6.875232   -1.783008   -6.033958
  86 H     1.0000    0     1.008   -5.019170    0.775801   -7.037401
  87 H     1.0000    0     1.008   -8.487527    3.802004   -5.767569
  88 H     1.0000    0     1.008  -10.350396    1.238310   -4.744113
  89 H     1.0000    0     1.008  -10.350804   -0.527294   -9.163801
  90 H     1.0000    0     1.008   -8.487257    2.036025  -10.188033
  91 H     1.0000    0     1.008  -11.938815    5.056328   -8.910679
  92 H     1.0000    0     1.008  -13.801759    2.493552   -7.882817
  93 H     1.0000    0     1.008  -13.811415    0.727313  -12.303203
  94 H     1.0000    0     1.008  -11.948516    3.290089  -13.331340
  95 H     1.0000    0     1.008  -15.398689    6.311482  -12.051609
  96 H     1.0000    0     1.008  -17.261306    3.749091  -11.022532
  97 H     1.0000    0     1.008  -17.271477    1.983551  -15.439023
  98 H     1.0000    0     1.008  -15.409556    4.544351  -16.467771
  99 H     1.0000    0     1.008  -19.990414    5.312090  -17.460200
 100 H     1.0000    0     1.008  -20.773162    5.007325  -14.209959
 101 H     1.0000    0     1.008  -18.897638    7.586965  -15.246475
 102 H     1.0000    0     1.008    3.915578   -0.996098   -0.570064
 103 H     1.0000    0     1.008    8.164840   -4.130430    6.059536
 104 H     1.0000    0     1.008   10.021097   -6.903699    6.299600
 105 H     1.0000    0     1.008    8.165168   -5.803204   10.516381
 106 H     1.0000    0     1.008    5.057412   -5.906221    9.241262
 107 H     1.0000    0     1.008    6.875073   -8.710434    9.445174
 108 H     1.0000    0     1.008   14.415878   -7.016316   -1.671105
 109 H     1.0000    0     1.008   13.936138   -3.406918   -4.826063
 110 H     1.0000    0     1.008   14.973760   -6.225359   -6.319680
 111 H     1.0000    0     1.008   11.766091   -5.264995   -6.572930
 112 H     1.0000    0     1.008   11.682833  -10.806834   -1.987131
 113 H     1.0000    0     1.008   10.348462   -9.658399   -4.866305
 114 H     1.0000    0     1.008   13.586609  -10.525278   -4.736216

--------------------------------
INTERNAL COORDINATES (ANGSTROEM)
--------------------------------
 O      0   0   0     0.000000000000     0.00000000     0.00000000
 C      1   0   0     1.244801620651     0.00000000     0.00000000
 C      2   1   0     1.534074067124   122.91814660     0.00000000
 C      3   2   1     1.551439835062   111.12128868    92.01848690
 C      4   3   2     1.535393140080   103.85809565   262.99035153
 C      5   4   3     1.528196696475   102.98640529   323.74853313
 N      3   2   1     1.456859230773   111.74533759   336.64202334
 C      7   3   2     1.367957206832   118.55653671   295.76671689
 O      8   7   3     1.232245982959   120.40347271   358.55318195
 N      2   1   3     1.347054226670   122.06552485   174.66487631
 C     10   2   1     1.469602576635   123.41788829   352.70632614
 C     11  10   2     1.555867919301   106.13405960   284.34726917
 N     12  11  10     1.359349108055   111.84252149    86.04592584
 C     13  12  11     1.466938465618   126.35626283   196.68201771
 C     14  13  12     1.541754942759   108.35152286   171.05272265
 N     15  14  13     1.370793275405   114.16228477   307.28669886
 C     16  15  14     1.453116845623   122.93596293   175.55275357
 C     17  16  15     1.532686632391   111.66085825   244.42420514
 C     18  17  16     1.539038686979   111.11581761   174.74922066
 C     19  18  17     1.541527691289   113.18837112    63.15133677
 N     20  19  18     1.364733770663   112.65236408    63.87634407
 C     21  20  19     1.468275721529   127.26950391   202.08985759
 C     22  21  20     1.537517242387   108.66849624   160.90521644
 N     23  22  21     1.366551567308   115.48630701   321.80068296
 C     24  23  22     1.465118323817   120.99028212   179.64733218
 C     25  24  23     1.526562999289   111.94377750   284.33019826
 O     23  22  21     1.231236542331   121.62759171   144.24219875
 C     22  21  20     1.549212243039   111.06777854    37.99774070
 C     28  22  21     1.545425155297   117.84473955   186.00728125
 C     29  28  22     1.534296163197   112.62116621    43.87751440
 C     29  28  22     1.534700252787   113.94727114   275.90882991
 O     20  19  18     1.230096321457   122.25006635   245.09241677
 C     19  18  17     1.545412117411   111.97688619   194.13159301
 C     33  19  18     1.514706588729   115.94993222   191.46652586
 C     34  33  19     1.524888737321   114.44468181   190.78622318
 C     35  34  33     1.529994857621   112.50999351   181.29685592
 C     36  35  34     1.530168656215   113.20908387   180.22333446
 C     37  36  35     1.530162618988   113.44298169   180.07261819
 C     38  37  36     1.530300886993   113.52071900   180.07193033
 C     39  38  37     1.530159865288   113.52762364   179.99555094
 C     40  39  38     1.530982592587   113.59549748   180.02274024
 C     41  40  39     1.529832820476   113.13386708   180.00477907
 O     33  19  18     1.217953225353   121.02405091    14.09493847
 O     18  17  16     1.440549586300   111.16716998   296.63542258
 O     15  14  13     1.227155073090   122.05511012   129.13243522
 C     14  13  12     1.542548621130   112.33402429    48.52618242
 C     46  14  13     1.527687107290   112.70964252   179.08758389
 O     12  11  10     1.229505325462   122.45190083   270.13802638
 C     11  10   2     1.530166295324   111.48519131   161.01988541
 C     49  11  10     1.532907445411   111.38841847   303.68417018
 C     49  11  10     1.532974066798   109.61793397   180.49733484
 H      3   2   1     1.101847226172   107.83162992   215.10451493
 H      4   3   2     1.099184134041   109.17310208   145.22864539
 H      4   3   2     1.097670427066   112.22471237    25.85399596
 H      5   4   3     1.100407869191   110.51831757    80.89039364
 H      5   4   3     1.096912040183   112.93240617   201.82981810
 H      6   5   4     1.093635909829   113.37922230   154.71942435
 H      6   5   4     1.104185429095   111.22330751   276.71385929
 H     10   2   1     1.017008414258   118.32029286   185.33846325
 H     11  10   2     1.101352514260   106.61559567    41.51607490
 H     13  12  11     1.018309693093   114.83836831   358.35133599
 H     14  13  12     1.099311465281   109.86233868   286.47278020
 H     16  15  14     1.020036836139   119.19240402     3.82384843
 H     17  16  15     1.102019819681   110.14076715   122.38589746
 H     17  16  15     1.098439557145   106.66212328     5.28600983
 H     18  17  16     1.102761288045   109.56540859    56.61593339
 H     19  18  17     1.102565055321   107.48662108   308.77352880
 H     21  20  19     1.016517569830   113.99980914     1.42732985
 H     22  21  20     1.098687135609   110.08439898   276.65140960
 H     24  23  22     1.026562548015   120.37321024     3.25869619
 H     25  24  23     1.104551524101   106.50448314    43.33966376
 H     26  25  24     1.096433648403   109.04461398    57.75304842
 H     26  25  24     1.097092615193   110.43779374   177.67675244
 H     26  25  24     1.097017578627   110.34446430   296.96825885
 H     28  22  21     1.104038404526   108.09007384    60.85167814
 H     28  22  21     1.097683747074   105.46970290   307.15590712
 H     29  28  22     1.104231039287   104.52667614   159.92332983
 H     30  29  28     1.100357106228   111.39613777    50.04026289
 H     30  29  28     1.099598974075   110.37201314   169.66793963
 H     30  29  28     1.099339203240   110.99482208   289.02432913
 H     31  29  28     1.100821502880   110.87326444   304.45564208
 H     31  29  28     1.097920338157   111.82784562    66.03302405
 H     31  29  28     1.100174489444   110.34407549   185.63499971
 H     34  33  19     1.105279493412   107.10115780    67.60135395
 H     34  33  19     1.104532861340   108.03754012   315.93735575
 H     35  34  33     1.101903726871   109.27978346    58.88914192
 H     35  34  33     1.101000763072   109.17643891   303.81073461
 H     36  35  34     1.104483337592   109.42609814    58.06846101
 H     36  35  34     1.104398469761   109.54660994   302.44880652
 H     37  36  35     1.104193019130   109.26332474    57.80621974
 H     37  36  35     1.104145530531   109.26394244   302.37223890
 H     38  37  36     1.104356798111   109.29066194    57.79452781
 H     38  37  36     1.104368752828   109.29186522   302.34201793
 H     39  38  37     1.104384903671   109.27672724    57.71919764
 H     39  38  37     1.104374834357   109.27863985   302.28122471
 H     40  39  38     1.104561226735   109.31239134    57.73882056
 H     40  39  38     1.104570989593   109.31296091   302.30156180
 H     41  40  39     1.103427573616   109.12436103    57.66807958
 H     41  40  39     1.103423850437   109.12373401   302.34494227
 H     42  41  40     1.099468689223   111.66090292   180.00447504
 H     42  41  40     1.100755152897   111.09027554   300.23739354
 H     42  41  40     1.100749971919   111.09057078    59.76953706
 H     44  18  17     0.984688647355   110.79560840    72.79241200
 H     46  14  13     1.102995653014   108.24617075    56.98167037
 H     46  14  13     1.098007195686   107.63864738   301.52433234
 H     47  46  14     1.098557105310   110.53487047   178.31794562
 H     47  46  14     1.099109849844   111.89364579   298.78140711
 H     47  46  14     1.099354427081   111.00347957    58.73560089
 H     49  11  10     1.104242132357   107.01067629    63.70666996
 H     50  49  11     1.098775160369   112.80556464    58.22000931
 H     50  49  11     1.098716425811   110.23688322   178.71893155
 H     50  49  11     1.100798166682   110.73659772   297.89681291
 H     51  49  11     1.097198431534   111.51613126   300.42913394
 H     51  49  11     1.101336097664   110.71597693    61.52168309
 H     51  49  11     1.098511308648   110.28721241   180.50250274

---------------------------
INTERNAL COORDINATES (A.U.)
---------------------------
 O      0   0   0     0.000000000000     0.00000000     0.00000000
 C      1   0   0     2.352334154092     0.00000000     0.00000000
 C      2   1   0     2.898979856015   122.91814660     0.00000000
 C      3   2   1     2.931796401523   111.12128868    92.01848690
 C      4   3   2     2.901472542652   103.85809565   262.99035153
 C      5   4   3     2.887873235101   102.98640529   323.74853313
 N      3   2   1     2.753064961836   111.74533759   336.64202334
 C      7   3   2     2.585064483836   118.55653671   295.76671689
 O      8   7   3     2.328607437416   120.40347271   358.55318195
 N      2   1   3     2.545563575948   122.06552485   174.66487631
 C     10   2   1     2.777146395545   123.41788829   352.70632614
 C     11  10   2     2.940164268034   106.13405960   284.34726917
 N     12  11  10     2.568797534614   111.84252149    86.04592584
 C     13  12  11     2.772111955332   126.35626283   196.68201771
 C     14  13  12     2.913494607434   108.35152286   171.05272265
 N     15  14  13     2.590423876737   114.16228477   307.28669886
 C     16  15  14     2.745992878815   122.93596293   175.55275357
 C     17  16  15     2.896357984340   111.66085825   244.42420514
 C     18  17  16     2.908361627900   111.11581761   174.74922066
 C     19  18  17     2.913065164391   113.18837112    63.15133677
 N     20  19  18     2.578973072266   112.65236408    63.87634407
 C     21  20  19     2.774639002776   127.26950391   202.08985759
 C     22  21  20     2.905486514292   108.66849624   160.90521644
 N     23  22  21     2.582408210093   115.48630701   321.80068296
 C     24  23  22     2.768672385804   120.99028212   179.64733218
 C     25  24  23     2.884785994834   111.94377750   284.33019826
 O     23  22  21     2.326699871082   121.62759171   144.24219875
 C     22  21  20     2.927586862661   111.06777854    37.99774070
 C     28  22  21     2.920430303984   117.84473955   186.00728125
 C     29  28  22     2.899399556769   112.62116621    43.87751440
 C     29  28  22     2.900163175428   113.94727114   275.90882991
 O     20  19  18     2.324545165897   122.25006635   245.09241677
 C     19  18  17     2.920405665951   111.97688619   194.13159301
 C     33  19  18     2.862380625944   115.94993222   191.46652586
 C     34  33  19     2.881622098237   114.44468181   190.78622318
 C     35  34  33     2.891271267212   112.50999351   181.29685592
 C     36  35  34     2.891599698957   113.20908387   180.22333446
 C     37  36  35     2.891588290251   113.44298169   180.07261819
 C     38  37  36     2.891849578914   113.52071900   180.07193033
 C     39  38  37     2.891583086512   113.52762364   179.99555094
 C     40  39  38     2.893137815790   113.59549748   180.02274024
 C     41  40  39     2.890965061384   113.13386708   180.00477907
 O     33  19  18     2.301598039843   121.02405091    14.09493847
 O     18  17  16     2.722244200440   111.16716998   296.63542258
 O     15  14  13     2.318987011992   122.05511012   129.13243522
 C     14  13  12     2.914994442194   112.33402429    48.52618242
 C     46  14  13     2.886910251101   112.70964252   179.08758389
 O     12  11  10     2.323428345320   122.45190083   270.13802638
 C     11  10   2     2.891595237518   111.48519131   161.01988541
 C     49  11  10     2.896775260476   111.38841847   303.68417018
 C     49  11  10     2.896901156652   109.61793397   180.49733484
 H      3   2   1     2.082189498885   107.83162992   215.10451493
 H      4   3   2     2.077156984089   109.17310208   145.22864539
 H      4   3   2     2.074296492460   112.22471237    25.85399596
 H      5   4   3     2.079469508383   110.51831757    80.89039364
 H      5   4   3     2.072863348946   112.93240617   201.82981810
 H      6   5   4     2.066672359799   113.37922230   154.71942435
 H      6   5   4     2.086608062056   111.22330751   276.71385929
 H     10   2   1     1.921867378842   118.32029286   185.33846325
[...]
freq.      76.18  E(vib)   ...       0.49 
freq.      80.51  E(vib)   ...       0.48 
freq.      90.21  E(vib)   ...       0.47 
freq.      93.32  E(vib)   ...       0.47 
freq.      97.47  E(vib)   ...       0.46 
freq.     103.83  E(vib)   ...       0.46 
freq.     110.54  E(vib)   ...       0.45 
freq.     114.43  E(vib)   ...       0.44 
freq.     116.58  E(vib)   ...       0.44 
freq.     119.91  E(vib)   ...       0.44 
freq.     125.87  E(vib)   ...       0.43 
freq.     132.58  E(vib)   ...       0.42 
freq.     136.75  E(vib)   ...       0.42 
freq.     139.71  E(vib)   ...       0.42 
freq.     149.00  E(vib)   ...       0.40 
freq.     152.01  E(vib)   ...       0.40 
freq.     154.96  E(vib)   ...       0.40 
freq.     162.60  E(vib)   ...       0.39 
freq.     166.19  E(vib)   ...       0.39 
freq.     175.02  E(vib)   ...       0.38 
freq.     182.42  E(vib)   ...       0.37 
freq.     195.45  E(vib)   ...       0.36 
freq.     199.14  E(vib)   ...       0.35 
freq.     203.98  E(vib)   ...       0.35 
freq.     213.84  E(vib)   ...       0.34 
freq.     216.49  E(vib)   ...       0.34 
freq.     224.18  E(vib)   ...       0.33 
freq.     225.04  E(vib)   ...       0.33 
freq.     232.53  E(vib)   ...       0.32 
freq.     237.24  E(vib)   ...       0.32 
freq.     240.73  E(vib)   ...       0.31 
freq.     246.63  E(vib)   ...       0.31 
freq.     254.02  E(vib)   ...       0.30 
freq.     256.18  E(vib)   ...       0.30 
freq.     266.52  E(vib)   ...       0.29 
freq.     267.98  E(vib)   ...       0.29 
freq.     272.86  E(vib)   ...       0.29 
freq.     278.25  E(vib)   ...       0.28 
freq.     282.33  E(vib)   ...       0.28 
freq.     286.40  E(vib)   ...       0.27 
freq.     299.84  E(vib)   ...       0.26 
freq.     305.78  E(vib)   ...       0.26 
freq.     310.42  E(vib)   ...       0.26 
freq.     316.26  E(vib)   ...       0.25 
freq.     318.24  E(vib)   ...       0.25 
freq.     325.34  E(vib)   ...       0.24 
freq.     328.36  E(vib)   ...       0.24 
freq.     344.53  E(vib)   ...       0.23 
freq.     353.27  E(vib)   ...       0.22 
freq.     360.92  E(vib)   ...       0.22 
freq.     372.21  E(vib)   ...       0.21 
freq.     378.02  E(vib)   ...       0.21 
freq.     382.26  E(vib)   ...       0.21 
freq.     396.92  E(vib)   ...       0.20 
freq.     403.31  E(vib)   ...       0.19 
freq.     407.33  E(vib)   ...       0.19 
freq.     426.40  E(vib)   ...       0.18 
freq.     440.96  E(vib)   ...       0.17 
freq.     454.52  E(vib)   ...       0.16 
freq.     460.50  E(vib)   ...       0.16 
freq.     477.68  E(vib)   ...       0.15 
freq.     481.20  E(vib)   ...       0.15 
freq.     484.29  E(vib)   ...       0.15 
freq.     506.72  E(vib)   ...       0.14 
freq.     509.97  E(vib)   ...       0.14 
freq.     516.84  E(vib)   ...       0.13 
freq.     525.71  E(vib)   ...       0.13 
freq.     538.08  E(vib)   ...       0.12 
freq.     547.04  E(vib)   ...       0.12 
freq.     551.03  E(vib)   ...       0.12 
freq.     562.85  E(vib)   ...       0.11 
freq.     565.17  E(vib)   ...       0.11 
freq.     575.93  E(vib)   ...       0.11 
freq.     594.86  E(vib)   ...       0.10 
freq.     625.31  E(vib)   ...       0.09 
freq.     638.70  E(vib)   ...       0.09 
freq.     664.09  E(vib)   ...       0.08 
freq.     667.53  E(vib)   ...       0.08 
freq.     671.87  E(vib)   ...       0.08 
freq.     697.56  E(vib)   ...       0.07 
freq.     704.33  E(vib)   ...       0.07 
freq.     711.25  E(vib)   ...       0.07 
freq.     711.69  E(vib)   ...       0.07 
freq.     716.17  E(vib)   ...       0.07 
freq.     724.13  E(vib)   ...       0.06 
freq.     732.16  E(vib)   ...       0.06 
freq.     735.07  E(vib)   ...       0.06 
freq.     738.75  E(vib)   ...       0.06 
freq.     750.71  E(vib)   ...       0.06 
freq.     763.10  E(vib)   ...       0.06 
freq.     765.85  E(vib)   ...       0.06 
freq.     774.62  E(vib)   ...       0.05 
freq.     784.38  E(vib)   ...       0.05 
freq.     789.03  E(vib)   ...       0.05 
freq.     807.21  E(vib)   ...       0.05 
freq.     812.59  E(vib)   ...       0.05 
freq.     815.65  E(vib)   ...       0.05 
freq.     826.91  E(vib)   ...       0.04 
freq.     840.47  E(vib)   ...       0.04 
freq.     857.00  E(vib)   ...       0.04 
freq.     861.54  E(vib)   ...       0.04 
freq.     867.74  E(vib)   ...       0.04 
freq.     873.02  E(vib)   ...       0.04 
freq.     876.26  E(vib)   ...       0.04 
freq.     877.77  E(vib)   ...       0.04 
freq.     886.64  E(vib)   ...       0.04 
freq.     891.16  E(vib)   ...       0.04 
freq.     901.48  E(vib)   ...       0.03 
freq.     907.01  E(vib)   ...       0.03 
freq.     909.01  E(vib)   ...       0.03 
freq.     910.72  E(vib)   ...       0.03 
freq.     924.89  E(vib)   ...       0.03 
freq.     934.13  E(vib)   ...       0.03 
freq.     935.01  E(vib)   ...       0.03 
freq.     936.97  E(vib)   ...       0.03 
freq.     944.29  E(vib)   ...       0.03 
freq.     953.02  E(vib)   ...       0.03 
freq.     958.81  E(vib)   ...       0.03 
freq.     962.29  E(vib)   ...       0.03 
freq.     971.79  E(vib)   ...       0.03 
freq.     975.00  E(vib)   ...       0.03 
freq.     978.72  E(vib)   ...       0.03 
freq.     983.06  E(vib)   ...       0.02 
freq.     984.62  E(vib)   ...       0.02 
freq.     998.92  E(vib)   ...       0.02 
freq.    1003.11  E(vib)   ...       0.02 
freq.    1005.17  E(vib)   ...       0.02 
freq.    1015.44  E(vib)   ...       0.02 
freq.    1022.44  E(vib)   ...       0.02 
freq.    1025.10  E(vib)   ...       0.02 
freq.    1031.76  E(vib)   ...       0.02 
freq.    1034.54  E(vib)   ...       0.02 
freq.    1042.06  E(vib)   ...       0.02 
freq.    1043.85  E(vib)   ...       0.02 
freq.    1046.07  E(vib)   ...       0.02 
freq.    1050.67  E(vib)   ...       0.02 
freq.    1051.94  E(vib)   ...       0.02 
freq.    1062.26  E(vib)   ...       0.02 
freq.    1070.71  E(vib)   ...       0.02 
freq.    1074.97  E(vib)   ...       0.02 
freq.    1075.93  E(vib)   ...       0.02 
freq.    1083.99  E(vib)   ...       0.02 
freq.    1087.26  E(vib)   ...       0.02 
freq.    1096.27  E(vib)   ...       0.02 
freq.    1100.27  E(vib)   ...       0.02 
freq.    1108.20  E(vib)   ...       0.02 
freq.    1110.31  E(vib)   ...       0.02 
freq.    1114.16  E(vib)   ...       0.01 
freq.    1115.32  E(vib)   ...       0.01 
freq.    1116.61  E(vib)   ...       0.01 
freq.    1124.31  E(vib)   ...       0.01 
freq.    1141.48  E(vib)   ...       0.01 
freq.    1144.17  E(vib)   ...       0.01 
freq.    1159.82  E(vib)   ...       0.01 
freq.    1164.80  E(vib)   ...       0.01 
freq.    1166.79  E(vib)   ...       0.01 
freq.    1174.27  E(vib)   ...       0.01 
freq.    1175.28  E(vib)   ...       0.01 
freq.    1181.05  E(vib)   ...       0.01 
freq.    1193.25  E(vib)   ...       0.01 
freq.    1202.46  E(vib)   ...       0.01 
freq.    1203.95  E(vib)   ...       0.01 
freq.    1206.64  E(vib)   ...       0.01 
freq.    1210.70  E(vib)   ...       0.01 
freq.    1212.21  E(vib)   ...       0.01 
freq.    1217.95  E(vib)   ...       0.01 
freq.    1223.01  E(vib)   ...       0.01 
freq.    1231.70  E(vib)   ...       0.01 
freq.    1235.89  E(vib)   ...       0.01 
freq.    1238.01  E(vib)   ...       0.01 
freq.    1239.24  E(vib)   ...       0.01 
freq.    1244.92  E(vib)   ...       0.01 
freq.    1248.79  E(vib)   ...       0.01 
freq.    1250.74  E(vib)   ...       0.01 
freq.    1257.74  E(vib)   ...       0.01 
freq.    1261.85  E(vib)   ...       0.01 
freq.    1263.38  E(vib)   ...       0.01 
freq.    1270.29  E(vib)   ...       0.01 
freq.    1273.58  E(vib)   ...       0.01 
freq.    1275.70  E(vib)   ...       0.01 
freq.    1282.94  E(vib)   ...       0.01 
freq.    1285.67  E(vib)   ...       0.01 
freq.    1286.55  E(vib)   ...       0.01 
freq.    1289.19  E(vib)   ...       0.01 
freq.    1292.89  E(vib)   ...       0.01 
freq.    1294.66  E(vib)   ...       0.01 
freq.    1295.47  E(vib)   ...       0.01 
freq.    1296.24  E(vib)   ...       0.01 
freq.    1298.15  E(vib)   ...       0.01 
freq.    1305.38  E(vib)   ...       0.01 
freq.    1306.32  E(vib)   ...       0.01 
freq.    1307.95  E(vib)   ...       0.01 
freq.    1309.41  E(vib)   ...       0.01 
freq.    1314.18  E(vib)   ...       0.01 
freq.    1319.34  E(vib)   ...       0.01 
freq.    1325.92  E(vib)   ...       0.01 
freq.    1327.78  E(vib)   ...       0.01 
freq.    1330.70  E(vib)   ...       0.01 
freq.    1336.34  E(vib)   ...       0.01 
freq.    1337.90  E(vib)   ...       0.01 
freq.    1340.80  E(vib)   ...       0.01 
freq.    1344.18  E(vib)   ...       0.01 
freq.    1347.35  E(vib)   ...       0.01 
freq.    1348.08  E(vib)   ...       0.01 
freq.    1351.31  E(vib)   ...       0.01 
freq.    1351.77  E(vib)   ...       0.01 
freq.    1353.35  E(vib)   ...       0.01 
freq.    1354.74  E(vib)   ...       0.01 
freq.    1356.67  E(vib)   ...       0.01 
freq.    1363.79  E(vib)   ...       0.01 
freq.    1371.20  E(vib)   ...       0.01 
freq.    1372.08  E(vib)   ...       0.01 
freq.    1377.28  E(vib)   ...       0.01 
freq.    1382.13  E(vib)   ...       0.01 
freq.    1384.89  E(vib)   ...       0.00 
freq.    1395.69  E(vib)   ...       0.00 
freq.    1423.29  E(vib)   ...       0.00 
freq.    1433.39  E(vib)   ...       0.00 
freq.    1433.81  E(vib)   ...       0.00 
freq.    1436.98  E(vib)   ...       0.00 
freq.    1437.22  E(vib)   ...       0.00 
freq.    1437.25  E(vib)   ...       0.00 
freq.    1437.63  E(vib)   ...       0.00 
freq.    1439.35  E(vib)   ...       0.00 
freq.    1441.60  E(vib)   ...       0.00 
freq.    1441.90  E(vib)   ...       0.00 
freq.    1443.85  E(vib)   ...       0.00 
freq.    1444.99  E(vib)   ...       0.00 
freq.    1445.87  E(vib)   ...       0.00 
freq.    1445.99  E(vib)   ...       0.00 
freq.    1450.71  E(vib)   ...       0.00 
freq.    1450.98  E(vib)   ...       0.00 
freq.    1451.73  E(vib)   ...       0.00 
freq.    1453.41  E(vib)   ...       0.00 
freq.    1457.31  E(vib)   ...       0.00 
freq.    1457.68  E(vib)   ...       0.00 
freq.    1458.59  E(vib)   ...       0.00 
freq.    1459.42  E(vib)   ...       0.00 
freq.    1460.39  E(vib)   ...       0.00 
freq.    1464.92  E(vib)   ...       0.00 
freq.    1465.01  E(vib)   ...       0.00 
freq.    1469.59  E(vib)   ...       0.00 
freq.    1476.76  E(vib)   ...       0.00 
freq.    1489.09  E(vib)   ...       0.00 
freq.    1496.28  E(vib)   ...       0.00 
freq.    1500.82  E(vib)   ...       0.00 
freq.    1515.89  E(vib)   ...       0.00 
freq.    1541.78  E(vib)   ...       0.00 
freq.    1634.87  E(vib)   ...       0.00 
freq.    1658.79  E(vib)   ...       0.00 
freq.    1677.30  E(vib)   ...       0.00 
freq.    1685.65  E(vib)   ...       0.00 
freq.    1697.13  E(vib)   ...       0.00 
freq.    1699.73  E(vib)   ...       0.00 
freq.    1720.37  E(vib)   ...       0.00 
freq.    2924.85  E(vib)   ...       0.00 
freq.    2926.15  E(vib)   ...       0.00 
freq.    2927.18  E(vib)   ...       0.00 
freq.    2927.72  E(vib)   ...       0.00 
freq.    2932.49  E(vib)   ...       0.00 
freq.    2933.30  E(vib)   ...       0.00 
freq.    2939.99  E(vib)   ...       0.00 
freq.    2942.03  E(vib)   ...       0.00 
freq.    2942.39  E(vib)   ...       0.00 
freq.    2942.82  E(vib)   ...       0.00 
freq.    2944.56  E(vib)   ...       0.00 
freq.    2944.75  E(vib)   ...       0.00 
freq.    2944.99  E(vib)   ...       0.00 
freq.    2946.57  E(vib)   ...       0.00 
freq.    2954.11  E(vib)   ...       0.00 
freq.    2954.53  E(vib)   ...       0.00 
freq.    2955.61  E(vib)   ...       0.00 
freq.    2956.68  E(vib)   ...       0.00 
freq.    2957.37  E(vib)   ...       0.00 
freq.    2960.96  E(vib)   ...       0.00 
freq.    2963.10  E(vib)   ...       0.00 
freq.    2963.77  E(vib)   ...       0.00 
freq.    2964.62  E(vib)   ...       0.00 
freq.    2966.49  E(vib)   ...       0.00 
freq.    2967.27  E(vib)   ...       0.00 
freq.    2967.87  E(vib)   ...       0.00 
freq.    2970.71  E(vib)   ...       0.00 
freq.    2970.95  E(vib)   ...       0.00 
freq.    2978.84  E(vib)   ...       0.00 
freq.    2980.14  E(vib)   ...       0.00 
freq.    2981.14  E(vib)   ...       0.00 
freq.    2982.20  E(vib)   ...       0.00 
freq.    2988.01  E(vib)   ...       0.00 
freq.    2990.33  E(vib)   ...       0.00 
freq.    2992.37  E(vib)   ...       0.00 
freq.    3002.13  E(vib)   ...       0.00 
freq.    3005.31  E(vib)   ...       0.00 
freq.    3006.80  E(vib)   ...       0.00 
freq.    3016.85  E(vib)   ...       0.00 
freq.    3020.08  E(vib)   ...       0.00 
freq.    3022.03  E(vib)   ...       0.00 
freq.    3025.73  E(vib)   ...       0.00 
freq.    3027.32  E(vib)   ...       0.00 
freq.    3028.11  E(vib)   ...       0.00 
freq.    3028.61  E(vib)   ...       0.00 
freq.    3032.70  E(vib)   ...       0.00 
freq.    3035.76  E(vib)   ...       0.00 
freq.    3037.49  E(vib)   ...       0.00 
freq.    3037.86  E(vib)   ...       0.00 
freq.    3040.07  E(vib)   ...       0.00 
freq.    3040.27  E(vib)   ...       0.00 
freq.    3044.80  E(vib)   ...       0.00 
freq.    3046.94  E(vib)   ...       0.00 
freq.    3048.22  E(vib)   ...       0.00 
freq.    3056.81  E(vib)   ...       0.00 
freq.    3065.39  E(vib)   ...       0.00 
freq.    3069.99  E(vib)   ...       0.00 
freq.    3074.76  E(vib)   ...       0.00 
freq.    3312.25  E(vib)   ...       0.00 
freq.    3428.78  E(vib)   ...       0.00 
freq.    3457.82  E(vib)   ...       0.00 
freq.    3465.21  E(vib)   ...       0.00 
freq.    3479.31  E(vib)   ...       0.00 
freq.    3497.65  E(vib)   ...       0.00 

------------
INNER ENERGY
------------

The inner energy is: U= E(el) + E(ZPE) + E(vib) + E(rot) + E(trans)
    E(el)   - is the total energy from the electronic structure calculation
              = E(kin-el) + E(nuc-el) + E(el-el) + E(nuc-nuc)
    E(ZPE)  - the the zero temperature vibrational energy from the frequency calculation
    E(vib)  - the the finite temperature correction to E(ZPE) due to population
              of excited vibrational states
    E(rot)  - is the rotational thermal energy
    E(trans)- is the translational thermal energy

Summary of contributions to the inner energy U:
Electronic energy                ...  -2380.06170785 Eh
Zero point energy                ...      0.97673173 Eh     612.91 kcal/mol
Thermal vibrational correction   ...      0.05533237 Eh      34.72 kcal/mol
Thermal rotational correction    ...      0.00141627 Eh       0.89 kcal/mol
Thermal translational correction ...      0.00141627 Eh       0.89 kcal/mol
-----------------------------------------------------------------------
Total thermal energy                  -2379.02681121 Eh


Summary of corrections to the electronic energy:
(perhaps to be used in another calculation)
Total thermal correction                  0.05816491 Eh      36.50 kcal/mol
Non-thermal (ZPE) correction              0.97673173 Eh     612.91 kcal/mol
-----------------------------------------------------------------------
Total correction                          1.03489664 Eh     649.41 kcal/mol


--------
ENTHALPY
--------

The enthalpy is H = U + kB*T
                kB is Boltzmann's constant
Total free energy                 ...  -2379.02681121 Eh 
Thermal Enthalpy correction       ...      0.00094421 Eh       0.59 kcal/mol
-----------------------------------------------------------------------
Total Enthalpy                    ...  -2379.02586700 Eh


Note: Only C1 symmetry has been detected, increase convergence thresholds 
      if your molecule has a higher symmetry. Symmetry factor of 1.0 is   
      used for the rotational entropy correction. 
 

Note: Rotational entropy computed according to Herzberg 
Infrared and Raman Spectra, Chapter V,1, Van Nostrand Reinhold, 1945 
Point Group:  C1, Symmetry Number:   1  
Rotational constants in cm-1:     0.002243     0.000829     0.000748 

Vibrational entropy computed according to the QRRHO of S. Grimme
Chem.Eur.J. 2012 18 9955


-------
ENTROPY
-------

The entropy contributions are T*S = T*(S(el)+S(vib)+S(rot)+S(trans))
     S(el)   - electronic entropy
     S(vib)  - vibrational entropy
     S(rot)  - rotational entropy
     S(trans)- translational entropy
The entropies will be listed as mutliplied by the temperature to get
units of energy

Electronic entropy                ...      0.00000000 Eh      0.00 kcal/mol
Vibrational entropy               ...      0.10188277 Eh     63.93 kcal/mol
Rotational entropy                ...      0.01913867 Eh     12.01 kcal/mol
Translational entropy             ...      0.02166895 Eh     13.60 kcal/mol
-----------------------------------------------------------------------
Final entropy term                ...      0.14269040 Eh     89.54 kcal/mol

In case the symmetry of your molecule has not been determined correctly
or in case you have a reason to use a different symmetry number we print 
out the resulting rotational entropy values for sn=1,12 :
 --------------------------------------------------------
|  sn= 1 | S(rot)=       0.01913867 Eh     12.01 kcal/mol|
|  sn= 2 | S(rot)=       0.01848422 Eh     11.60 kcal/mol|
|  sn= 3 | S(rot)=       0.01810138 Eh     11.36 kcal/mol|
|  sn= 4 | S(rot)=       0.01782976 Eh     11.19 kcal/mol|
|  sn= 5 | S(rot)=       0.01761907 Eh     11.06 kcal/mol|
|  sn= 6 | S(rot)=       0.01744693 Eh     10.95 kcal/mol|
|  sn= 7 | S(rot)=       0.01730138 Eh     10.86 kcal/mol|
|  sn= 8 | S(rot)=       0.01717530 Eh     10.78 kcal/mol|
|  sn= 9 | S(rot)=       0.01706410 Eh     10.71 kcal/mol|
|  sn=10 | S(rot)=       0.01696462 Eh     10.65 kcal/mol|
|  sn=11 | S(rot)=       0.01687463 Eh     10.59 kcal/mol|
|  sn=12 | S(rot)=       0.01679247 Eh     10.54 kcal/mol|
 --------------------------------------------------------


-------------------
GIBBS FREE ENERGY
-------------------

The Gibbs free energy is G = H - T*S

Total enthalpy                    ...  -2379.02586700 Eh 
Total entropy correction          ...     -0.14269040 Eh    -89.54 kcal/mol
-----------------------------------------------------------------------
Final Gibbs free energy         ...  -2379.16855740 Eh

For completeness - the Gibbs free energy minus the electronic energy
G-E(el)                           ...      0.89315046 Eh    560.46 kcal/mol

--------------------------------------------------------------------------
WARNING: No preset parameters were found for the device that Open MPI
detected:

  Local host:            eu-g1-045-1
  Device name:           mlx5_0
  Device vendor ID:      0x02c9
  Device vendor part ID: 4123

Default device parameters will be used, which may result in lower
performance.  You can edit any of the files specified by the
btl_openib_device_param_files MCA parameter to set values for your
device.

NOTE: You can turn off this warning by setting the MCA parameter
      btl_openib_warn_no_device_params_found to 0.
--------------------------------------------------------------------------
--------------------------------------------------------------------------
WARNING: There was an error initializing an OpenFabrics device.

  Local host:   eu-g1-045-1
  Local device: mlx5_0
--------------------------------------------------------------------------

Timings for individual modules:

Sum of individual times         ...    32044.791 sec (= 534.080 min)
GTO integral calculation        ...       45.840 sec (=   0.764 min)   0.1 %
SCF iterations                  ...     1289.351 sec (=  21.489 min)   4.0 %
SCF Gradient evaluation         ...      454.901 sec (=   7.582 min)   1.4 %
Geometry relaxation             ...       18.649 sec (=   0.311 min)   0.1 %
Analytical frequency calculation...    30236.052 sec (= 503.934 min)  94.4 %
                             ****ORCA TERMINATED NORMALLY****
TOTAL RUN TIME: 0 days 8 hours 54 minutes 32 seconds 678 msec
