
                                 *****************
                                 * O   R   C   A *
                                 *****************

           --- An Ab Initio, DFT and Semiempirical electronic structure package ---

                  #######################################################
                  #                        -***-                        #
                  #          Department of theory and spectroscopy      #
                  #               Directorship: Frank Neese             #
                  #        Max Planck Institute fuer Kohlenforschung    #
                  #                Kaiser Wilhelm Platz 1               #
                  #                 D-45470 Muelheim/Ruhr               #
                  #                      Germany                        #
                  #                                                     #
                  #                  All rights reserved                #
                  #                        -***-                        #
                  #######################################################


                         Program Version 4.2.0 -  RELEASE  -


 With contributions from (in alphabetic order):
   Daniel Aravena         : Magnetic Suceptibility
   Michael Atanasov       : Ab Initio Ligand Field Theory (pilot matlab implementation)
   Alexander A. Auer      : GIAO ZORA, VPT2
   Ute Becker             : Parallelization
   Giovanni Bistoni       : ED, misc. LED, open-shell LED, HFLED
   Martin Brehm           : Molecular dynamics
   Dmytro Bykov           : SCF Hessian
   Vijay G. Chilkuri      : MRCI spin determinant printing, contributions to CSF-ICE
   Dipayan Datta          : RHF DLPNO-CCSD density
   Achintya Kumar Dutta   : EOM-CC, STEOM-CC
   Dmitry Ganyushin       : Spin-Orbit,Spin-Spin,Magnetic field MRCI
   Miquel Garcia          : C-PCM Hessian, Gaussian charge scheme
   Yang Guo               : DLPNO-NEVPT2, CIM, IAO-localization
   Andreas Hansen         : Spin unrestricted coupled pair/coupled cluster methods
   Benjamin Helmich-Paris : CASSCF linear response (MC-RPA)
   Lee Huntington         : MR-EOM, pCC
   Robert Izsak           : Overlap fitted RIJCOSX, COSX-SCS-MP3, EOM
   Christian Kollmar      : KDIIS, OOCD, Brueckner-CCSD(T), CCSD density
   Simone Kossmann        : Meta GGA functionals, TD-DFT gradient, OOMP2, MP2 Hessian
   Martin Krupicka        : AUTO-CI
   Lucas Lang             : DCDCAS
   Dagmar Lenk            : GEPOL surface, SMD
   Dimitrios Liakos       : Extrapolation schemes; Compound Job, initial MDCI parallelization
   Dimitrios Manganas     : Further ROCIS development; embedding schemes
   Dimitrios Pantazis     : SARC Basis sets
   Taras Petrenko         : DFT Hessian,TD-DFT gradient, ASA, ECA, R-Raman, ABS, FL, XAS/XES, NRVS
   Peter Pinski           : DLPNO-MP2, DLPNO-MP2 Gradient
   Christoph Reimann      : Effective Core Potentials
   Marius Retegan         : Local ZFS, SOC
   Christoph Riplinger    : Optimizer, TS searches, QM/MM, DLPNO-CCSD(T), (RO)-DLPNO pert. Triples
   Tobias Risthaus        : Range-separated hybrids, TD-DFT gradient, RPA, STAB
   Michael Roemelt        : Original ROCIS implementation
   Masaaki Saitow         : Open-shell DLPNO-CCSD energy and density
   Barbara Sandhoefer     : DKH picture change effects
   Avijit Sen             : IP-ROCIS
   Kantharuban Sivalingam : CASSCF convergence, NEVPT2, FIC-MRCI
   Bernardo de Souza      : ESD, SOC TD-DFT
   Georgi Stoychev        : AutoAux, RI-MP2 NMR
   Willem Van den Heuvel  : Paramagnetic NMR
   Boris Wezisla          : Elementary symmetry handling
   Frank Wennmohs         : Technical directorship


 We gratefully acknowledge several colleagues who have allowed us to
 interface, adapt or use parts of their codes:
   Stefan Grimme, W. Hujo, H. Kruse,             : VdW corrections, initial TS optimization,
                  C. Bannwarth                     DFT functionals, gCP, sTDA/sTD-DF
   Ed Valeev, F. Pavosevic, A. Kumar             : LibInt (2-el integral package), F12 methods
   Garnet Chan, S. Sharma, J. Yang, R. Olivares  : DMRG
   Ulf Ekstrom                                   : XCFun DFT Library
   Mihaly Kallay                                 : mrcc  (arbitrary order and MRCC methods)
   Andreas Klamt, Michael Diedenhofen            : otool_cosmo (COSMO solvation model)
   Jiri Pittner, Ondrej Demel                    : Mk-CCSD
   Frank Weinhold                                : gennbo (NPA and NBO analysis)
   Christopher J. Cramer and Donald G. Truhlar   : smd solvation model
   Lars Goerigk                                  : TD-DFT with DH, B97 family of functionals
   V. Asgeirsson, H. Jonsson                     : NEB implementation
   FAccTs GmbH                                   : IRC, NEB, NEB-TS, Multilevel, MM, QM/MM, CI optimization
   S Lehtola, MJT Oliveira, MAL Marques          : LibXC Library


 Your calculation uses the libint2 library for the computation of 2-el integrals
 For citations please refer to: http://libint.valeyev.net

 Your ORCA version has been built with support for libXC version: 4.2.3
 For citations please refer to: https://tddft.org/programs/libxc/

 This ORCA versions uses:
   CBLAS   interface :  Fast vector & matrix operations
   LAPACKE interface :  Fast linear algebra routines
   SCALAPACK package :  Parallel linear algebra routines




***************************************
The coordinates will be read from file: 63.xyz
***************************************


Your calculation utilizes the atom-pairwise dispersion correction
with the Becke-Johnson damping scheme (D3BJ)
Cite in your paper:
S.Grimme, S.Ehrlich, L.Goerigk, J Comput Chem, (2011), 32, 1456–1465 
S.Grimme, J.Antony, S.Ehrlich and H.Krieg, J.Chem.Phys., 132, (2010), 154104 
   

----- Orbital basis set information -----
Your calculation utilizes the basis: def2-TZVP
   F. Weigend and R. Ahlrichs, Phys. Chem. Chem. Phys. 7, 3297 (2005).

----- AuxJ basis set information -----
Your calculation utilizes the auxiliary basis: def2/J
   F. Weigend, Phys. Chem. Chem. Phys. 8, 1057 (2006).

================================================================================
                                        WARNINGS
                       Please study these warnings very carefully!
================================================================================


WARNING: Geometry Optimization
  ===> : Switching off AutoStart
         For restart on a previous wavefunction, please use MOREAD

INFO   : the flag for use of LIBINT has been found!

================================================================================
                                       INPUT FILE
================================================================================
NAME = 63.inp
|  1> !RI BP86 def2-tzvp def2/J D3BJ TIGHTSCF TightOpt Grid5 FinalGrid6 freq
|  2> %maxcore 4000
|  3> %pal nprocs 24
|  4> end
|  5> * xyzfile 0 1 63.xyz 
|  6> 
|  7>                          ****END OF INPUT****
================================================================================

                       *****************************
                       * Geometry Optimization Run *
                       *****************************

Geometry optimization settings:
Update method            Update   .... BFGS
Choice of coordinates    CoordSys .... Z-matrix Internals
Initial Hessian          InHess   .... Almoef's Model

Convergence Tolerances:
Energy Change            TolE     ....  1.0000e-06 Eh
Max. Gradient            TolMAXG  ....  1.0000e-04 Eh/bohr
RMS Gradient             TolRMSG  ....  3.0000e-05 Eh/bohr
Max. Displacement        TolMAXD  ....  1.0000e-03 bohr
RMS Displacement         TolRMSD  ....  6.0000e-04 bohr
Strict Convergence                ....  False
------------------------------------------------------------------------------
                        ORCA OPTIMIZATION COORDINATE SETUP
------------------------------------------------------------------------------

The optimization will be done in new redundant internal coordinates
Making redundant internal coordinates   ...  (new redundants) done
Evaluating the initial hessian          ...  (Almloef) done
Evaluating the coordinates              ...  done
Calculating the B-matrix                .... done
Calculating the G-matrix                .... done
Diagonalizing the G-matrix              .... done
Small eigenvalue found = 3.761e-04
Small eigenvalue found = 2.719e-03
Small eigenvalue found = 2.863e-03
Small eigenvalue found = 3.755e-03
Small eigenvalue found = 4.775e-03
Small eigenvalue found = 7.168e-03
Small eigenvalue found = 7.841e-03
Small eigenvalue found = 1.047e-02
Small eigenvalue found = 1.099e-02
Small eigenvalue found = 1.130e-02
Small eigenvalue found = 1.254e-02
Small eigenvalue found = 1.470e-02
Small eigenvalue found = 1.734e-02
Small eigenvalue found = 1.892e-02
Small eigenvalue found = 2.237e-02
Small eigenvalue found = 2.264e-02
Small eigenvalue found = 2.474e-02
The first mode is                       ....  328
The number of degrees of freedom        ....  339

    -----------------------------------------------------------------
                    Redundant Internal Coordinates


    -----------------------------------------------------------------
         Definition                    Initial Value    Approx d2E/dq
    -----------------------------------------------------------------
      1. B(C   1,O   0)                  1.2272         1.017771   
      2. B(C   2,C   1)                  1.5326         0.370013   
      3. B(C   3,C   2)                  1.5396         0.360576   
      4. B(C   4,C   3)                  1.5340         0.368157   
      5. B(C   5,C   4)                  1.5329         0.369667   
      6. B(N   6,C   2)                  1.4767         0.406967   
      7. B(N   6,C   5)                  1.4764         0.407451   
      8. B(C   7,N   6)                  1.3546         0.637207   
      9. B(O   8,C   7)                  1.2436         0.958119   
     10. B(N   9,C   1)                  1.3701         0.602034   
     11. B(C  10,N   9)                  1.4581         0.435775   
     12. B(C  11,C  10)                  1.5383         0.362342   
     13. B(N  12,C  11)                  1.3628         0.618329   
     14. B(C  13,N  12)                  1.4661         0.423192   
     15. B(C  14,C  13)                  1.5312         0.371927   
     16. B(N  15,C  14)                  1.3633         0.617262   
     17. B(C  16,N  15)                  1.4498         0.449309   
     18. B(C  17,C  16)                  1.5559         0.339670   
     19. B(C  18,C  17)                  1.5552         0.340595   
     20. B(C  19,C  18)                  1.5383         0.362420   
     21. B(N  20,C  19)                  1.3609         0.622777   
     22. B(C  21,N  20)                  1.4586         0.434901   
     23. B(C  22,C  21)                  1.5437         0.355217   
     24. B(N  23,C  22)                  1.3627         0.618736   
     25. B(C  24,C   7)                  1.5231         0.383196   
     26. B(C  24,N  23)                  1.4520         0.445660   
     27. B(C  25,C  24)                  1.5447         0.353889   
     28. B(O  26,C  22)                  1.2333         0.994952   
     29. B(C  27,C  21)                  1.5397         0.360492   
     30. B(C  28,C  27)                  1.5359         0.365536   
     31. B(C  29,C  28)                  1.5319         0.371015   
     32. B(C  30,C  28)                  1.5335         0.368853   
     33. B(O  31,C  19)                  1.2348         0.989646   
     34. B(C  32,C  18)                  1.5415         0.358079   
     35. B(C  33,C  32)                  1.5182         0.390163   
     36. B(C  34,C  33)                  1.5390         0.361445   
     37. B(C  35,C  34)                  1.5294         0.374347   
     38. B(C  36,C  35)                  1.5291         0.374832   
     39. B(C  37,C  36)                  1.5324         0.370231   
     40. B(C  38,C  37)                  1.5346         0.367339   
     41. B(C  39,C  38)                  1.5319         0.370928   
     42. B(C  40,C  39)                  1.5341         0.367984   
     43. B(C  41,C  40)                  1.5313         0.371781   
     44. B(O  42,C  32)                  1.2199         1.045325   
     45. B(O  43,C  17)                  1.4243         0.493392   
     46. B(O  44,C  14)                  1.2351         0.988533   
     47. B(C  45,C  13)                  1.5311         0.372030   
     48. B(C  46,C  45)                  1.5285         0.375616   
     49. B(O  47,C  11)                  1.2318         1.000744   
     50. B(C  48,C  10)                  1.5495         0.347722   
     51. B(C  49,C  48)                  1.5292         0.374610   
     52. B(C  50,C  48)                  1.5323         0.370447   
     53. B(H  51,C   2)                  1.0995         0.347777   
     54. B(H  52,C   3)                  1.0952         0.353241   
     55. B(H  53,C   3)                  1.1010         0.345876   
     56. B(H  54,C   4)                  1.0970         0.350987   
     57. B(H  55,C   4)                  1.1001         0.346977   
     58. B(H  56,C   5)                  1.1026         0.343770   
     59. B(H  57,C   5)                  1.0957         0.352628   
     60. B(H  58,N   9)                  1.0168         0.421968   
     61. B(H  59,C  10)                  1.1020         0.344573   
     62. B(H  60,N  12)                  1.0189         0.418739   
     63. B(H  61,C  13)                  1.1031         0.343163   
     64. B(H  62,N  15)                  1.0170         0.421708   
     65. B(H  63,C  16)                  1.0973         0.350534   
     66. B(H  64,C  16)                  1.0974         0.350379   
     67. B(H  65,C  17)                  1.1047         0.341144   
     68. B(H  66,C  18)                  1.1026         0.343848   
     69. B(H  67,N  20)                  1.0277         0.405527   
     70. B(H  68,C  21)                  1.0988         0.348682   
     71. B(H  69,H  60)                  3.3052         0.000020   
     72. B(H  69,N  23)                  1.0221         0.413823   
     73. B(H  70,C  24)                  1.1007         0.346245   
     74. B(H  71,C  25)                  1.0955         0.352962   
     75. B(H  72,C  25)                  1.0995         0.347686   
     76. B(H  73,C  25)                  1.0977         0.350060   
     77. B(H  74,C  27)                  1.1013         0.345464   
     78. B(H  75,C  27)                  1.1038         0.342330   
     79. B(H  76,C  28)                  1.1009         0.346010   
     80. B(H  77,C  29)                  1.0982         0.349445   
     81. B(H  78,C  29)                  1.1024         0.344026   
     82. B(H  79,C  29)                  1.0998         0.347340   
     83. B(H  80,C  30)                  1.1004         0.346607   
     84. B(H  81,C  30)                  1.0997         0.347432   
     85. B(H  82,C  30)                  1.1022         0.344366   
     86. B(H  83,H  73)                  2.4730         0.000429   
     87. B(H  83,C  33)                  1.0975         0.350293   
     88. B(H  84,C  33)                  1.1007         0.346175   
     89. B(H  85,C  34)                  1.1007         0.346157   
     90. B(H  86,O   0)                  4.0375         0.000006   
     91. B(H  86,C  34)                  1.1033         0.342955   
     92. B(H  87,C  35)                  1.1027         0.343673   
     93. B(H  88,C  35)                  1.1041         0.341878   
     94. B(H  89,C  36)                  1.1041         0.341894   
     95. B(H  90,C  36)                  1.1030         0.343275   
     96. B(H  91,C  37)                  1.1066         0.338846   
     97. B(H  92,C  37)                  1.1028         0.343542   
     98. B(H  93,C  38)                  1.1034         0.342781   
     99. B(H  94,C  38)                  1.1027         0.343683   
    100. B(H  95,C  39)                  1.1025         0.343939   
    101. B(H  96,H  52)                  2.3060         0.000792   
    102. B(H  96,C  39)                  1.1056         0.339984   
    103. B(H  97,C  40)                  1.1028         0.343595   
    104. B(H  98,C  40)                  1.1040         0.342107   
    105. B(H  99,C  41)                  1.0995         0.347803   
    106. B(H 100,C  41)                  1.1004         0.346656   
    107. B(H 101,C  41)                  1.0993         0.347966   
    108. B(H 102,O   8)                  1.7436         0.029231   
    109. B(H 102,O  43)                  0.9874         0.470197   
    110. B(H 103,C  45)                  1.1001         0.346983   
    111. B(H 104,C  45)                  1.0998         0.347403   
    112. B(H 105,C  46)                  1.0984         0.349131   
    113. B(H 106,H  74)                  3.8590         0.000003   
    114. B(H 106,C  46)                  1.0983         0.349333   
    115. B(H 107,C  46)                  1.1005         0.346526   
    116. B(H 108,C  48)                  1.1000         0.347112   
    117. B(H 109,C  49)                  1.0983         0.349300   
    118. B(H 110,H  97)                  4.3387         0.000000   
    119. B(H 110,C  49)                  1.1002         0.346819   
    120. B(H 111,C  49)                  1.0994         0.347916   
    121. B(H 112,C  50)                  1.0995         0.347761   
    122. B(H 113,C  50)                  1.0986         0.348934   
    123. B(H 114,C  50)                  1.1026         0.343768   
    124. A(O   0,C   1,N   9)          123.5902         0.466186   
    125. A(C   2,C   1,N   9)          115.8748         0.391471   
    126. A(O   0,C   1,C   2)          120.4203         0.429640   
    127. A(C   1,C   2,H  51)          105.6163         0.321966   
    128. A(N   6,C   2,H  51)          109.1614         0.325081   
    129. A(C   1,C   2,N   6)          115.3125         0.365817   
    130. A(C   1,C   2,C   3)          112.4067         0.360572   
    131. A(C   3,C   2,H  51)          111.3018         0.320608   
    132. A(C   3,C   2,N   6)          103.1379         0.364203   
    133. A(C   4,C   3,H  53)          110.1768         0.321412   
    134. A(C   4,C   3,H  52)          114.0006         0.322523   
    135. A(C   2,C   3,C   4)          103.3923         0.360263   
    136. A(C   2,C   3,H  53)          109.9927         0.320320   
    137. A(C   2,C   3,H  52)          111.2723         0.321426   
    138. A(H  52,C   3,H  53)          107.9548         0.288138   
    139. A(H  54,C   4,H  55)          108.1420         0.287993   
    140. A(C   3,C   4,H  55)          110.1234         0.321580   
    141. A(C   3,C   4,C   5)          103.1549         0.361796   
    142. A(C   3,C   4,H  54)          113.2513         0.322185   
    143. A(C   5,C   4,H  55)          109.7443         0.321795   
    144. A(C   5,C   4,H  54)          112.3551         0.322401   
    145. A(H  56,C   5,H  57)          108.1443         0.287785   
    146. A(C   4,C   5,N   6)          102.7807         0.365833   
    147. A(C   4,C   5,H  56)          111.3526         0.321306   
    148. A(N   6,C   5,H  57)          111.1514         0.325886   
    149. A(N   6,C   5,H  56)          110.3470         0.324526   
    150. A(C   4,C   5,H  57)          113.0280         0.322648   
    151. A(C   5,N   6,C   7)          127.7973         0.399564   
    152. A(C   2,N   6,C   7)          117.6844         0.399481   
    153. A(C   2,N   6,C   5)          112.3871         0.369594   
    154. A(O   8,C   7,C  24)          121.7872         0.427688   
    155. A(N   6,C   7,O   8)          119.0966         0.465878   
    156. A(N   6,C   7,C  24)          119.0045         0.397821   
    157. A(C   1,N   9,C  10)          121.4343         0.400298   
    158. A(C  10,N   9,H  58)          118.0173         0.336572   
    159. A(C   1,N   9,H  58)          117.1742         0.355360   
    160. A(C  48,C  10,H  59)          108.4482         0.318232   
    161. A(C  11,C  10,H  59)          106.8978         0.320379   
    162. A(N   9,C  10,C  11)          113.7530         0.368806   
    163. A(N   9,C  10,C  48)          112.5865         0.366210   
    164. A(N   9,C  10,H  59)          105.0907         0.328262   
    165. A(C  11,C  10,C  48)          109.6817         0.357076   
    166. A(N  12,C  11,O  47)          122.4002         0.467027   
    167. A(C  10,C  11,O  47)          120.4721         0.426737   
    168. A(C  10,C  11,N  12)          117.1271         0.391866   
    169. A(C  13,N  12,H  60)          119.7019         0.334508   
    170. A(C  11,N  12,C  13)          119.8501         0.400115   
    171. A(C  11,N  12,H  60)          120.2282         0.356510   
    172. A(C  14,C  13,C  45)          112.2344         0.362820   
    173. A(N  12,C  13,H  61)          106.2435         0.326460   
    174. A(C  14,C  13,H  61)          109.8179         0.321534   
    175. A(N  12,C  13,C  14)          107.6322         0.368604   
    176. A(C  45,C  13,H  61)          108.7829         0.321549   
    177. A(N  12,C  13,C  45)          111.9488         0.368621   
    178. A(C  13,C  14,N  15)          115.3819         0.393542   
    179. A(N  15,C  14,O  44)          122.5338         0.465831   
    180. A(C  13,C  14,O  44)          122.0748         0.427795   
    181. A(C  14,N  15,H  62)          116.6795         0.356833   
    182. A(C  16,N  15,H  62)          118.1647         0.338257   
    183. A(C  14,N  15,C  16)          118.8669         0.404238   
    184. A(H  63,C  16,H  64)          107.5390         0.288374   
    185. A(C  17,C  16,H  64)          108.9764         0.317883   
    186. A(N  15,C  16,H  63)          107.0239         0.330861   
    187. A(C  17,C  16,H  63)          110.6903         0.317906   
    188. A(N  15,C  16,C  17)          112.6057         0.366659   
    189. A(N  15,C  16,H  64)          109.8735         0.330837   
    190. A(O  43,C  17,H  65)          108.9982         0.334526   
    191. A(C  18,C  17,H  65)          107.9595         0.316644   
    192. A(C  16,C  17,H  65)          107.8389         0.316504   
    193. A(C  16,C  17,C  18)          110.2430         0.351948   
    194. A(C  18,C  17,O  43)          113.6451         0.372778   
    195. A(C  16,C  17,O  43)          108.0030         0.372604   
    196. A(C  19,C  18,H  66)          107.6674         0.320280   
    197. A(C  17,C  18,H  66)          107.8245         0.317051   
    198. A(C  17,C  18,C  32)          108.9868         0.355108   
    199. A(C  17,C  18,C  19)          117.2755         0.355835   
    200. A(C  19,C  18,C  32)          109.4114         0.358875   
    201. A(C  32,C  18,H  66)          104.9638         0.319650   
    202. A(C  18,C  19,N  20)          118.8125         0.392372   
    203. A(N  20,C  19,O  31)          122.7323         0.466686   
    204. A(C  18,C  19,O  31)          118.4552         0.425902   
    205. A(C  19,N  20,H  67)          121.6411         0.355007   
    206. A(C  19,N  20,C  21)          120.9167         0.402551   
    207. A(C  21,N  20,H  67)          115.7616         0.334243   
    208. A(C  27,C  21,H  68)          110.4583         0.320732   
    209. A(C  22,C  21,H  68)          104.8686         0.319960   
    210. A(N  20,C  21,H  68)          107.5049         0.328796   
    211. A(N  20,C  21,C  22)          112.2258         0.367424   
    212. A(C  22,C  21,C  27)          112.2805         0.358061   
    213. A(N  20,C  21,C  27)          109.3247         0.368355   
    214. A(C  21,C  22,N  23)          115.7765         0.390552   
    215. A(C  21,C  22,O  26)          121.5151         0.424780   
    216. A(N  23,C  22,O  26)          122.7078         0.466587   
    217. A(C  22,N  23,C  24)          121.3904         0.403826   
    218. A(C  24,N  23,H  69)          118.7223         0.336736   
    219. A(C  22,N  23,H  69)          119.2454         0.355835   
    220. A(C  25,C  24,H  70)          109.0578         0.319398   
    221. A(N  23,C  24,H  70)          108.5648         0.329744   
    222. A(C   7,C  24,H  70)          111.0726         0.323585   
    223. A(N  23,C  24,C  25)          111.9299         0.368731   
    224. A(C   7,C  24,N  23)          108.6012         0.373814   
    225. A(C   7,C  24,C  25)          107.6328         0.361575   
    226. A(H  71,C  25,H  73)          109.3549         0.288645   
    227. A(C  24,C  25,H  73)          109.7109         0.319970   
    228. A(H  71,C  25,H  72)          108.9631         0.288338   
    229. A(C  24,C  25,H  72)          111.3136         0.319615   
    230. A(C  24,C  25,H  71)          108.7978         0.320402   
    231. A(H  72,C  25,H  73)          108.6746         0.287966   
    232. A(C  28,C  27,H  75)          108.7470         0.320496   
    233. A(C  21,C  27,C  28)          116.6296         0.359810   
    234. A(H  74,C  27,H  75)          106.1275         0.286676   
    235. A(C  21,C  27,H  75)          106.5075         0.319769   
    236. A(C  28,C  27,H  74)          109.6925         0.320974   
    237. A(C  21,C  27,H  74)          108.6038         0.320246   
    238. A(C  29,C  28,C  30)          110.9626         0.362137   
    239. A(C  27,C  28,C  30)          109.0417         0.361219   
    240. A(C  27,C  28,C  29)          112.2400         0.361579   
    241. A(C  30,C  28,H  76)          108.5793         0.321532   
    242. A(C  29,C  28,H  76)          107.7182         0.321840   
    243. A(C  27,C  28,H  76)          108.1894         0.321057   
    244. A(C  28,C  29,H  79)          110.6934         0.322042   
    245. A(H  78,C  29,H  79)          107.6641         0.287140   
    246. A(H  77,C  29,H  79)          107.3996         0.287842   
    247. A(H  77,C  29,H  78)          108.3950         0.287411   
    248. A(C  28,C  29,H  78)          110.9884         0.321537   
    249. A(C  28,C  29,H  77)          111.5406         0.322361   
    250. A(H  81,C  30,H  82)          107.6590         0.287196   
    251. A(H  80,C  30,H  82)          107.6344         0.287089   
    252. A(C  28,C  30,H  82)          110.9339         0.321282   
    253. A(H  80,C  30,H  81)          107.9739         0.287487   
    254. A(C  28,C  30,H  81)          111.0529         0.321748   
    255. A(C  28,C  30,H  80)          111.4215         0.321623   
    256. A(C  33,C  32,O  42)          121.3527         0.435844   
    257. A(C  18,C  32,O  42)          119.5690         0.429172   
    258. A(C  18,C  32,C  33)          118.8052         0.363419   
    259. A(C  32,C  33,C  34)          111.8209         0.364000   
    260. A(C  34,C  33,H  84)          109.5095         0.320492   
    261. A(H  83,C  33,H  84)          107.1361         0.287800   
    262. A(C  32,C  33,H  84)          106.8034         0.324533   
    263. A(C  34,C  33,H  83)          110.1697         0.321112   
    264. A(C  32,C  33,H  83)          111.2244         0.325164   
    265. A(C  33,C  34,C  35)          111.8528         0.361437   
    266. A(H  85,C  34,H  86)          106.6068         0.286847   
    267. A(C  35,C  34,H  86)          108.7177         0.321844   
    268. A(C  33,C  34,H  86)          109.9984         0.320003   
    269. A(C  35,C  34,H  85)          110.4052         0.322334   
    270. A(C  33,C  34,H  85)          109.1228         0.320489   
    271. A(C  34,C  35,C  36)          113.5226         0.363689   
    272. A(H  87,C  35,H  88)          106.3032         0.286384   
    273. A(C  36,C  35,H  88)          109.9252         0.321746   
    274. A(C  34,C  35,H  88)          109.1029         0.321678   
    275. A(C  36,C  35,H  87)          108.8293         0.322022   
    276. A(C  34,C  35,H  87)          108.8999         0.321954   
    277. A(C  35,C  36,C  37)          112.7424         0.363002   
    278. A(H  89,C  36,H  90)          105.9167         0.286334   
    279. A(C  37,C  36,H  90)          110.4789         0.321311   
    280. A(C  35,C  36,H  90)          108.9736         0.321961   
    281. A(C  37,C  36,H  89)          108.8458         0.321099   
    282. A(C  35,C  36,H  89)          109.6552         0.321749   
    283. A(C  36,C  37,C  38)          114.1884         0.361753   
    284. A(H  91,C  37,H  92)          105.6720         0.285969   
    285. A(C  38,C  37,H  92)          109.5399         0.320940   
    286. A(C  36,C  37,H  92)          108.6109         0.321352   
    287. A(C  38,C  37,H  91)          109.1331         0.320218   
    288. A(C  36,C  37,H  91)          109.3498         0.320629   
    289. A(C  37,C  38,C  39)          113.3503         0.361869   
    290. A(H  93,C  38,H  94)          106.1322         0.286503   
    291. A(C  39,C  38,H  94)          110.0436         0.321472   
    292. A(C  37,C  38,H  94)          108.7704         0.320961   
    293. A(C  39,C  38,H  93)          108.7278         0.321334   
    294. A(C  37,C  38,H  93)          109.5651         0.320823   
    295. A(C  38,C  39,C  40)          114.6182         0.361977   
    296. A(H  95,C  39,H  96)          106.5886         0.286171   
    297. A(C  40,C  39,H  96)          108.9362         0.320486   
    298. A(C  38,C  39,H  96)          107.7093         0.320903   
    299. A(C  40,C  39,H  95)          108.5443         0.321092   
    300. A(C  38,C  39,H  95)          110.1395         0.321511   
    301. A(C  39,C  40,C  41)          113.5123         0.362119   
    302. A(H  97,C  40,H  98)          106.1070         0.286404   
    303. A(C  41,C  40,H  98)          109.8076         0.321351   
    304. A(C  39,C  40,H  98)          109.5280         0.320812   
    305. A(C  41,C  40,H  97)          108.8355         0.321580   
    306. A(C  39,C  40,H  97)          108.7761         0.321040   
    307. A(H 100,C  41,H 101)          107.6192         0.287562   
    308. A(H  99,C  41,H 101)          107.3950         0.287711   
    309. A(C  40,C  41,H 101)          111.7479         0.322246   
    310. A(H  99,C  41,H 100)          107.9393         0.287541   
    311. A(C  40,C  41,H 100)          110.6408         0.322047   
    312. A(C  40,C  41,H  99)          111.3179         0.322221   
    313. A(C  17,O  43,H 102)          113.2140         0.349943   
    314. A(C  13,C  45,C  46)          112.6241         0.363433   
    315. A(C  46,C  45,H 104)          110.1762         0.322703   
    316. A(C  13,C  45,H 104)          107.0162         0.322196   
    317. A(C  46,C  45,H 103)          110.4723         0.322639   
    318. A(C  13,C  45,H 103)          108.4166         0.322132   
    319. A(H 103,C  45,H 104)          107.9655         0.287532   
    320. A(H 106,C  46,H 107)          108.4018         0.287722   
    321. A(H 105,C  46,H 107)          107.6295         0.287696   
    322. A(C  45,C  46,H 107)          111.0078         0.322569   
    323. A(H 105,C  46,H 106)          107.7064         0.288059   
    324. A(C  45,C  46,H 106)          111.1805         0.322996   
    325. A(C  45,C  46,H 105)          110.7727         0.322965   
    326. A(C  50,C  48,H 108)          107.9980         0.321927   
    327. A(C  49,C  48,H 108)          109.1036         0.322517   
    328. A(C  10,C  48,H 108)          104.6531         0.318613   
    329. A(C  49,C  48,C  50)          111.6907         0.363001   
    330. A(C  10,C  48,C  50)          111.5865         0.358421   
    331. A(C  10,C  48,C  49)          111.4817         0.359103   
    332. A(H 110,C  49,H 111)          107.3976         0.287577   
    333. A(H 109,C  49,H 111)          108.3494         0.287897   
    334. A(C  48,C  49,H 111)          110.3416         0.322639   
    335. A(H 109,C  49,H 110)          107.3714         0.287755   
    336. A(C  48,C  49,H 110)          111.6150         0.322472   
    337. A(C  48,C  49,H 109)          111.5933         0.322849   
    338. A(H 113,C  50,H 114)          106.7795         0.287311   
    339. A(H 112,C  50,H 114)          108.5125         0.287160   
    340. A(C  48,C  50,H 114)          111.5581         0.321417   
    341. A(H 112,C  50,H 113)          107.5934         0.287830   
    342. A(C  48,C  50,H 113)          110.5087         0.322203   
    343. A(C  48,C  50,H 112)          111.6813         0.322025   
    344. D(H  51,C   2,C   1,N   9)   -155.0429         0.010252   
    345. D(C   3,C   2,C   1,N   9)     83.4063         0.010252   
    346. D(N   6,C   2,C   1,N   9)    -34.4319         0.010252   
    347. D(N   6,C   2,C   1,O   0)    149.3240         0.010252   
    348. D(C   3,C   2,C   1,O   0)    -92.8378         0.010252   
    349. D(H  51,C   2,C   1,O   0)     28.7130         0.010252   
    350. D(C   4,C   3,C   2,N   6)    -29.3848         0.010429   
    351. D(H  53,C   3,C   2,H  51)   -154.8224         0.010429   
    352. D(H  53,C   3,C   2,C   1)    -36.5739         0.010429   
    353. D(C   4,C   3,C   2,H  51)     87.5372         0.010429   
    354. D(H  53,C   3,C   2,N   6)     88.2556         0.010429   
    355. D(H  52,C   3,C   2,H  51)    -35.2406         0.010429   
    356. D(C   4,C   3,C   2,C   1)   -154.2143         0.010429   
    357. D(H  52,C   3,C   2,C   1)     83.0079         0.010429   
    358. D(H  52,C   3,C   2,N   6)   -152.1626         0.010429   
    359. D(H  55,C   4,C   3,H  53)    164.6074         0.010842   
    360. D(H  55,C   4,C   3,H  52)     43.0659         0.010842   
    361. D(H  54,C   4,C   3,H  52)    -78.1567         0.010842   
    362. D(H  55,C   4,C   3,C   2)    -77.8811         0.010842   
    363. D(H  54,C   4,C   3,H  53)     43.3848         0.010842   
    364. D(C   5,C   4,C   3,C   2)     39.1915         0.010842   
    365. D(H  54,C   4,C   3,C   2)    160.8963         0.010842   
    366. D(C   5,C   4,C   3,H  53)    -78.3200         0.010842   
    367. D(C   5,C   4,C   3,H  52)    160.1385         0.010842   
    368. D(N   6,C   5,C   4,C   3)    -33.2447         0.010925   
    369. D(H  57,C   5,C   4,C   3)   -153.1426         0.010925   
    370. D(H  56,C   5,C   4,H  55)   -157.7731         0.010925   
    371. D(H  56,C   5,C   4,C   3)     84.8868         0.010925   
    372. D(H  57,C   5,C   4,H  54)     84.5497         0.010925   
    373. D(H  56,C   5,C   4,H  54)    -37.4208         0.010925   
    374. D(H  57,C   5,C   4,H  55)    -35.8025         0.010925   
    375. D(N   6,C   5,C   4,H  54)   -155.5524         0.010925   
    376. D(N   6,C   5,C   4,H  55)     84.0954         0.010925   
    377. D(C   5,N   6,C   2,C   3)      8.7787         0.014132   
    378. D(C   7,N   6,C   5,H  57)    -26.2317         0.014165   
    379. D(C   7,N   6,C   5,H  56)     93.7422         0.014165   
    380. D(C   7,N   6,C   5,C   4)   -147.4204         0.014165   
    381. D(C   2,N   6,C   5,H  57)    136.5857         0.014165   
    382. D(C   2,N   6,C   5,H  56)   -103.4404         0.014165   
    383. D(C   7,N   6,C   2,H  51)     55.0677         0.014132   
    384. D(C   2,N   6,C   5,C   4)     15.3969         0.014165   
    385. D(C   7,N   6,C   2,C   3)    173.4941         0.014132   
    386. D(C   5,N   6,C   2,C   1)    131.6932         0.014132   
    387. D(C   7,N   6,C   2,C   1)    -63.5914         0.014132   
    388. D(C   5,N   6,C   2,H  51)   -109.6477         0.014132   
    389. D(C  24,C   7,N   6,C   5)     -6.4128         0.033024   
    390. D(C  24,C   7,N   6,C   2)   -168.4459         0.033024   
    391. D(O   8,C   7,N   6,C   5)    169.8143         0.033024   
    392. D(O   8,C   7,N   6,C   2)      7.7812         0.033024   
    393. D(H  58,N   9,C   1,O   0)    173.2161         0.029219   
    394. D(C  10,N   9,C   1,C   2)   -161.7429         0.029219   
    395. D(H  58,N   9,C   1,C   2)     -2.8956         0.029219   
    396. D(C  10,N   9,C   1,O   0)     14.3688         0.029219   
    397. D(H  59,C  10,N   9,C   1)    -21.5426         0.016191   
    398. D(C  48,C  10,N   9,H  58)    -62.3695         0.016191   
    399. D(C  48,C  10,N   9,C   1)     96.3065         0.016191   
    400. D(C  11,C  10,N   9,C   1)   -138.1307         0.016191   
    401. D(H  59,C  10,N   9,H  58)    179.7814         0.016191   
    402. D(C  11,C  10,N   9,H  58)     63.1933         0.016191   
    403. D(O  47,C  11,C  10,N   9)   -165.0832         0.009863   
    404. D(N  12,C  11,C  10,H  59)   -100.8915         0.009863   
    405. D(N  12,C  11,C  10,C  48)    141.7274         0.009863   
    406. D(N  12,C  11,C  10,N   9)     14.6372         0.009863   
    407. D(O  47,C  11,C  10,H  59)     79.3881         0.009863   
    408. D(O  47,C  11,C  10,C  48)    -37.9930         0.009863   
    409. D(H  60,N  12,C  11,O  47)   -171.6142         0.030946   
    410. D(H  60,N  12,C  11,C  10)      8.6712         0.030946   
    411. D(C  13,N  12,C  11,O  47)      2.9846         0.030946   
    412. D(C  13,N  12,C  11,C  10)   -176.7300         0.030946   
    413. D(H  61,C  13,N  12,C  11)    -32.2516         0.015270   
    414. D(H  61,C  13,N  12,H  60)    142.3759         0.015270   
    415. D(C  45,C  13,N  12,H  60)    -99.0047         0.015270   
    416. D(C  45,C  13,N  12,C  11)     86.3678         0.015270   
    417. D(C  14,C  13,N  12,C  11)   -149.8413         0.015270   
    418. D(C  14,C  13,N  12,H  60)     24.7861         0.015270   
    419. D(O  44,C  14,C  13,C  45)     19.8594         0.010351   
    420. D(O  44,C  14,C  13,N  12)   -103.7576         0.010351   
    421. D(N  15,C  14,C  13,H  61)    -40.0946         0.010351   
    422. D(N  15,C  14,C  13,C  45)   -161.2303         0.010351   
    423. D(O  44,C  14,C  13,H  61)    140.9951         0.010351   
    424. D(N  15,C  14,C  13,N  12)     75.1527         0.010351   
    425. D(H  62,N  15,C  14,O  44)    169.6552         0.030831   
    426. D(H  62,N  15,C  14,C  13)     -9.2495         0.030831   
    427. D(C  16,N  15,C  14,O  44)     17.9867         0.030831   
    428. D(C  16,N  15,C  14,C  13)   -160.9180         0.030831   
    429. D(H  64,C  16,N  15,H  62)     49.5223         0.017221   
    430. D(H  64,C  16,N  15,C  14)   -159.2283         0.017221   
    431. D(H  63,C  16,N  15,H  62)    165.9969         0.017221   
    432. D(H  63,C  16,N  15,C  14)    -42.7537         0.017221   
    433. D(C  17,C  16,N  15,C  14)     79.0997         0.017221   
    434. D(C  17,C  16,N  15,H  62)    -72.1497         0.017221   
    435. D(H  65,C  17,C  16,H  64)    -33.8835         0.009343   
    436. D(H  65,C  17,C  16,H  63)   -151.9512         0.009343   
    437. D(H  65,C  17,C  16,N  15)     88.2963         0.009343   
    438. D(O  43,C  17,C  16,H  64)   -151.5399         0.009343   
    439. D(O  43,C  17,C  16,H  63)     90.3924         0.009343   
    440. D(O  43,C  17,C  16,N  15)    -29.3601         0.009343   
    441. D(C  18,C  17,C  16,H  64)     83.7569         0.009343   
    442. D(C  18,C  17,C  16,H  63)    -34.3107         0.009343   
    443. D(C  18,C  17,C  16,N  15)   -154.0633         0.009343   
    444. D(H  66,C  18,C  17,H  65)     83.7930         0.009390   
    445. D(H  66,C  18,C  17,O  43)   -155.1767         0.009390   
    446. D(H  66,C  18,C  17,C  16)    -33.7730         0.009390   
    447. D(C  32,C  18,C  17,O  43)     91.4036         0.009390   
    448. D(C  32,C  18,C  17,C  16)   -147.1927         0.009390   
    449. D(C  32,C  18,C  17,H  65)    -29.6268         0.009390   
    450. D(C  19,C  18,C  17,H  65)   -154.5753         0.009390   
    451. D(C  19,C  18,C  17,O  43)    -33.5450         0.009390   
    452. D(C  19,C  18,C  17,C  16)     87.8588         0.009390   
    453. D(O  31,C  19,C  18,H  66)    -88.2557         0.009866   
    454. D(O  31,C  19,C  18,C  32)     25.2950         0.009866   
    455. D(O  31,C  19,C  18,C  17)    150.0311         0.009866   
    456. D(N  20,C  19,C  18,H  66)     91.7766         0.009866   
    457. D(N  20,C  19,C  18,C  17)    -29.9366         0.009866   
    458. D(N  20,C  19,C  18,C  32)   -154.6727         0.009866   
    459. D(H  67,N  20,C  19,O  31)   -175.5754         0.031428   
    460. D(H  67,N  20,C  19,C  18)      4.3908         0.031428   
    461. D(C  21,N  20,C  19,O  31)    -10.9757         0.031428   
    462. D(C  21,N  20,C  19,C  18)    168.9906         0.031428   
    463. D(H  68,C  21,N  20,H  67)   -158.1394         0.016126   
    464. D(H  68,C  21,N  20,C  19)     36.3994         0.016126   
    465. D(C  27,C  21,N  20,H  67)    -38.2068         0.016126   
    466. D(C  27,C  21,N  20,C  19)    156.3320         0.016126   
    467. D(C  22,C  21,N  20,H  67)     87.0555         0.016126   
    468. D(C  22,C  21,N  20,C  19)    -78.4057         0.016126   
    469. D(N  23,C  22,C  21,C  27)    114.0900         0.009509   
    470. D(N  23,C  22,C  21,N  20)     -9.5346         0.009509   
    471. D(O  26,C  22,C  21,H  68)     53.8029         0.009509   
    472. D(O  26,C  22,C  21,C  27)    -66.1702         0.009509   
    473. D(O  26,C  22,C  21,N  20)    170.2051         0.009509   
    474. D(N  23,C  22,C  21,H  68)   -125.9369         0.009509   
    475. D(H  69,N  23,C  22,O  26)   -178.5004         0.030990   
    476. D(H  69,N  23,C  22,C  21)      1.2359         0.030990   
    477. D(C  24,N  23,C  22,O  26)     -7.8022         0.030990   
    478. D(C  24,N  23,C  22,C  21)    171.9342         0.030990   
    479. D(H  70,C  24,N  23,H  69)   -132.8454         0.016939   
    480. D(H  70,C  24,N  23,C  22)     56.4091         0.016939   
    481. D(C  25,C  24,N  23,H  69)    106.7218         0.016939   
    482. D(C  25,C  24,N  23,C  22)    -64.0238         0.016939   
    483. D(C   7,C  24,N  23,H  69)    -11.9664         0.016939   
    484. D(C   7,C  24,N  23,C  22)    177.2880         0.016939   
    485. D(H  70,C  24,C   7,O   8)    155.8228         0.010946   
    486. D(H  70,C  24,C   7,N   6)    -28.0559         0.010946   
    487. D(C  25,C  24,C   7,O   8)    -84.8598         0.010946   
    488. D(C  25,C  24,C   7,N   6)     91.2615         0.010946   
    489. D(N  23,C  24,C   7,O   8)     36.5031         0.010946   
    490. D(N  23,C  24,C   7,N   6)   -147.3756         0.010946   
    491. D(H  73,C  25,C  24,H  70)    179.9080         0.010073   
    492. D(H  73,C  25,C  24,N  23)    -59.9467         0.010073   
    493. D(H  73,C  25,C  24,C   7)     59.3137         0.010073   
    494. D(H  72,C  25,C  24,H  70)     59.5851         0.010073   
    495. D(H  72,C  25,C  24,N  23)    179.7304         0.010073   
    496. D(H  72,C  25,C  24,C   7)    -61.0092         0.010073   
    497. D(H  71,C  25,C  24,H  70)    -60.4993         0.010073   
    498. D(H  71,C  25,C  24,N  23)     59.6461         0.010073   
    499. D(H  71,C  25,C  24,C   7)    178.9064         0.010073   
    500. D(H  75,C  27,C  21,H  68)     66.6095         0.010424   
    501. D(H  75,C  27,C  21,C  22)   -176.7221         0.010424   
    502. D(H  75,C  27,C  21,N  20)    -51.4915         0.010424   
    503. D(H  74,C  27,C  21,H  68)   -179.4714         0.010424   
    504. D(H  74,C  27,C  21,C  22)    -62.8029         0.010424   
    505. D(H  74,C  27,C  21,N  20)     62.4277         0.010424   
    506. D(C  28,C  27,C  21,H  68)    -54.9633         0.010424   
    507. D(C  28,C  27,C  21,C  22)     61.7052         0.010424   
    508. D(C  28,C  27,C  21,N  20)   -173.0642         0.010424   
    509. D(H  76,C  28,C  27,H  75)    178.9005         0.010698   
    510. D(H  76,C  28,C  27,H  74)     63.2403         0.010698   
    511. D(H  76,C  28,C  27,C  21)    -60.7121         0.010698   
    512. D(C  30,C  28,C  27,H  75)     60.9833         0.010698   
    513. D(C  30,C  28,C  27,H  74)    -54.6768         0.010698   
    514. D(C  30,C  28,C  27,C  21)   -178.6293         0.010698   
    515. D(C  29,C  28,C  27,H  75)    -62.3848         0.010698   
    516. D(C  29,C  28,C  27,H  74)   -178.0450         0.010698   
    517. D(C  29,C  28,C  27,C  21)     58.0026         0.010698   
    518. D(H  79,C  29,C  28,C  30)     53.3951         0.011000   
    519. D(H  79,C  29,C  28,C  27)    175.6793         0.011000   
    520. D(H  78,C  29,C  28,H  76)    175.1776         0.011000   
    521. D(H  78,C  29,C  28,C  30)    -66.0983         0.011000   
    522. D(H  78,C  29,C  28,C  27)     56.1859         0.011000   
    523. D(H  77,C  29,C  28,H  76)     54.1934         0.011000   
    524. D(H  77,C  29,C  28,C  30)    172.9175         0.011000   
    525. D(H  79,C  29,C  28,H  76)    -65.3289         0.011000   
    526. D(H  77,C  29,C  28,C  27)    -64.7983         0.011000   
    527. D(H  82,C  30,C  28,H  76)    179.3567         0.010880   
    528. D(H  82,C  30,C  28,C  29)     61.1533         0.010880   
    529. D(H  82,C  30,C  28,C  27)    -62.9720         0.010880   
    530. D(H  81,C  30,C  28,H  76)     59.6693         0.010880   
    531. D(H  81,C  30,C  28,C  29)    -58.5342         0.010880   
    532. D(H  81,C  30,C  28,C  27)    177.3406         0.010880   
    533. D(H  80,C  30,C  28,H  76)    -60.7423         0.010880   
    534. D(H  80,C  30,C  28,C  29)   -178.9458         0.010880   
    535. D(H  80,C  30,C  28,C  27)     56.9290         0.010880   
    536. D(O  42,C  32,C  18,H  66)    -17.3831         0.009650   
    537. D(O  42,C  32,C  18,C  19)   -132.6768         0.009650   
    538. D(O  42,C  32,C  18,C  17)     97.8966         0.009650   
    539. D(C  33,C  32,C  18,H  66)    168.5380         0.009650   
    540. D(C  33,C  32,C  18,C  19)     53.2443         0.009650   
    541. D(C  33,C  32,C  18,C  17)    -76.1823         0.009650   
    542. D(H  84,C  33,C  32,O  42)     56.0318         0.011325   
    543. D(H  84,C  33,C  32,C  18)   -129.9992         0.011325   
    544. D(H  83,C  33,C  32,O  42)    172.6125         0.011325   
    545. D(H  83,C  33,C  32,C  18)    -13.4184         0.011325   
    546. D(C  34,C  33,C  32,O  42)    -63.7498         0.011325   
    547. D(C  34,C  33,C  32,C  18)    110.2192         0.011325   
    548. D(H  86,C  34,C  33,H  84)    176.9880         0.010475   
    549. D(H  86,C  34,C  33,H  83)     59.3970         0.010475   
    550. D(H  86,C  34,C  33,C  32)    -64.8329         0.010475   
    551. D(H  85,C  34,C  33,H  84)    -66.3907         0.010475   
    552. D(H  85,C  34,C  33,H  83)    176.0183         0.010475   
    553. D(H  85,C  34,C  33,C  32)     51.7884         0.010475   
    554. D(C  35,C  34,C  33,H  84)     56.0647         0.010475   
    555. D(C  35,C  34,C  33,H  83)    -61.5263         0.010475   
    556. D(C  35,C  34,C  33,C  32)    174.2438         0.010475   
    557. D(H  88,C  35,C  34,H  86)    171.2364         0.011187   
    558. D(H  88,C  35,C  34,H  85)     54.6204         0.011187   
    559. D(H  88,C  35,C  34,C  33)    -67.1000         0.011187   
    560. D(H  87,C  35,C  34,H  86)    -73.1317         0.011187   
    561. D(H  87,C  35,C  34,H  85)    170.2523         0.011187   
    562. D(H  87,C  35,C  34,C  33)     48.5318         0.011187   
    563. D(C  36,C  35,C  34,H  86)     48.2737         0.011187   
    564. D(C  36,C  35,C  34,H  85)    -68.3423         0.011187   
    565. D(C  36,C  35,C  34,C  33)    169.9372         0.011187   
    566. D(H  90,C  36,C  35,H  87)     60.3875         0.011214   
    567. D(H  90,C  36,C  35,C  34)    -61.0573         0.011214   
    568. D(H  89,C  36,C  35,H  88)    -68.0524         0.011214   
    569. D(H  89,C  36,C  35,H  87)    175.9019         0.011214   
    570. D(H  89,C  36,C  35,C  34)     54.4571         0.011214   
    571. D(C  37,C  36,C  35,H  88)     53.3900         0.011214   
    572. D(C  37,C  36,C  35,H  87)    -62.6557         0.011214   
    573. D(H  90,C  36,C  35,H  88)    176.4332         0.011214   
    574. D(C  37,C  36,C  35,C  34)    175.8995         0.011214   
    575. D(H  92,C  37,C  36,H  90)    176.6498         0.010957   
    576. D(H  92,C  37,C  36,H  89)     60.7503         0.010957   
    577. D(H  92,C  37,C  36,C  35)    -61.1503         0.010957   
    578. D(H  91,C  37,C  36,H  90)    -68.4931         0.010957   
    579. D(H  91,C  37,C  36,H  89)    175.6074         0.010957   
    580. D(H  91,C  37,C  36,C  35)     53.7068         0.010957   
    581. D(C  38,C  37,C  36,H  90)     54.0924         0.010957   
    582. D(C  38,C  37,C  36,H  89)    -61.8071         0.010957   
    583. D(C  38,C  37,C  36,C  35)    176.2923         0.010957   
    584. D(H  94,C  38,C  37,H  92)    -73.8067         0.010797   
    585. D(H  94,C  38,C  37,H  91)    170.9462         0.010797   
    586. D(H  94,C  38,C  37,C  36)     48.2426         0.010797   
    587. D(H  93,C  38,C  37,H  92)     41.8023         0.010797   
    588. D(H  93,C  38,C  37,H  91)    -73.4448         0.010797   
    589. D(H  93,C  38,C  37,C  36)    163.8516         0.010797   
    590. D(C  39,C  38,C  37,H  92)    163.4418         0.010797   
    591. D(C  39,C  38,C  37,H  91)     48.1947         0.010797   
    592. D(C  39,C  38,C  37,C  36)    -74.5089         0.010797   
    593. D(H  95,C  39,C  38,H  94)    -66.5268         0.010995   
    594. D(H  95,C  39,C  38,H  93)    177.6248         0.010995   
    595. D(H  95,C  39,C  38,C  37)     55.5178         0.010995   
    596. D(C  40,C  39,C  38,H  94)     56.2019         0.010995   
    597. D(C  40,C  39,C  38,H  93)    -59.6464         0.010995   
    598. D(C  40,C  39,C  38,C  37)    178.2466         0.010995   
    599. D(H  96,C  39,C  38,H  94)    177.6038         0.010995   
    600. D(H  96,C  39,C  38,H  93)     61.7554         0.010995   
    601. D(H  96,C  39,C  38,C  37)    -60.3516         0.010995   
    602. D(H  98,C  40,C  39,H  95)    178.4229         0.010832   
    603. D(H  98,C  40,C  39,C  38)     54.8370         0.010832   
    604. D(H  97,C  40,C  39,H  96)     49.6715         0.010832   
    605. D(H  97,C  40,C  39,H  95)    -66.0153         0.010832   
    606. D(H  97,C  40,C  39,C  38)    170.3988         0.010832   
    607. D(C  41,C  40,C  39,H  96)    170.9890         0.010832   
    608. D(C  41,C  40,C  39,H  95)     55.3022         0.010832   
    609. D(H  98,C  40,C  39,H  96)    -65.8903         0.010832   
    610. D(C  41,C  40,C  39,C  38)    -68.2837         0.010832   
    611. D(H 101,C  41,C  40,H  98)    -59.8168         0.011043   
    612. D(H 101,C  41,C  40,H  97)   -175.5655         0.011043   
    613. D(H 101,C  41,C  40,C  39)     63.1502         0.011043   
    614. D(H 100,C  41,C  40,H  98)   -179.7180         0.011043   
    615. D(H 100,C  41,C  40,H  97)     64.5333         0.011043   
    616. D(H 100,C  41,C  40,C  39)    -56.7510         0.011043   
    617. D(H  99,C  41,C  40,H  98)     60.2614         0.011043   
    618. D(H  99,C  41,C  40,H  97)    -55.4873         0.011043   
    619. D(H  99,C  41,C  40,C  39)   -176.7715         0.011043   
    620. D(H 102,O  43,C  17,H  65)     48.6362         0.019230   
    621. D(H 102,O  43,C  17,C  18)    -71.8104         0.019230   
    622. D(H 102,O  43,C  17,C  16)    165.5440         0.019230   
    623. D(H 104,C  45,C  13,H  61)     68.1590         0.011057   
    624. D(H 104,C  45,C  13,C  14)   -170.1122         0.011057   
    625. D(H 104,C  45,C  13,N  12)    -48.9443         0.011057   
    626. D(H 103,C  45,C  13,H  61)   -175.6169         0.011057   
    627. D(H 103,C  45,C  13,C  14)    -53.8882         0.011057   
    628. D(H 103,C  45,C  13,N  12)     67.2797         0.011057   
    629. D(C  46,C  45,C  13,H  61)    -53.0601         0.011057   
    630. D(C  46,C  45,C  13,C  14)     68.6686         0.011057   
    631. D(C  46,C  45,C  13,N  12)   -170.1634         0.011057   
    632. D(H 107,C  46,C  45,H 104)    -60.8147         0.011259   
    633. D(H 107,C  46,C  45,H 103)    179.9796         0.011259   
    634. D(H 107,C  46,C  45,C  13)     58.5853         0.011259   
    635. D(H 106,C  46,C  45,H 104)    178.4245         0.011259   
    636. D(H 106,C  46,C  45,H 103)     59.2188         0.011259   
    637. D(H 106,C  46,C  45,C  13)    -62.1755         0.011259   
    638. D(H 105,C  46,C  45,H 104)     58.6999         0.011259   
    639. D(H 105,C  46,C  45,H 103)    -60.5058         0.011259   
    640. D(H 105,C  46,C  45,C  13)    178.1000         0.011259   
    641. D(H 108,C  48,C  10,H  59)    -68.9445         0.009752   
    642. D(H 108,C  48,C  10,C  11)     47.4627         0.009752   
    643. D(H 108,C  48,C  10,N   9)    175.2054         0.009752   
    644. D(C  50,C  48,C  10,H  59)    174.5098         0.009752   
    645. D(C  50,C  48,C  10,C  11)    -69.0830         0.009752   
    646. D(C  50,C  48,C  10,N   9)     58.6597         0.009752   
    647. D(C  49,C  48,C  10,H  59)     48.8584         0.009752   
    648. D(C  49,C  48,C  10,C  11)    165.2656         0.009752   
    649. D(C  49,C  48,C  10,N   9)    -66.9917         0.009752   
    650. D(H 111,C  49,C  48,C  50)     57.8180         0.011202   
    651. D(H 111,C  49,C  48,C  10)   -176.5883         0.011202   
    652. D(H 110,C  49,C  48,H 108)    179.1646         0.011202   
    653. D(H 110,C  49,C  48,C  50)    -61.5164         0.011202   
    654. D(H 110,C  49,C  48,C  10)     64.0774         0.011202   
    655. D(H 109,C  49,C  48,H 108)     59.0181         0.011202   
    656. D(H 109,C  49,C  48,C  50)    178.3372         0.011202   
    657. D(H 111,C  49,C  48,H 108)    -61.5011         0.011202   
    658. D(H 109,C  49,C  48,C  10)    -56.0691         0.011202   
    659. D(H 114,C  50,C  48,H 108)    178.4833         0.010969   
    660. D(H 114,C  50,C  48,C  49)     58.5122         0.010969   
    661. D(H 114,C  50,C  48,C  10)    -67.0236         0.010969   
    662. D(H 113,C  50,C  48,H 108)     59.8506         0.010969   
    663. D(H 113,C  50,C  48,C  49)    -60.1205         0.010969   
    664. D(H 113,C  50,C  48,C  10)    174.3437         0.010969   
    665. D(H 112,C  50,C  48,H 108)    -59.8850         0.010969   
    666. D(H 112,C  50,C  48,C  49)   -179.8560         0.010969   
    667. D(H 112,C  50,C  48,C  10)     54.6081         0.010969   
    -----------------------------------------------------------------

Number of atoms                         .... 115
Number of degrees of freedom            .... 667

         *************************************************************
         *                GEOMETRY OPTIMIZATION CYCLE   1            *
         *************************************************************
---------------------------------
CARTESIAN COORDINATES (ANGSTROEM)
---------------------------------
  O      1.012242   -2.723449   -2.241703
  C      1.810258   -1.905214   -1.794910
  C      2.243641   -0.702472   -2.640178
  C      3.528329   -0.980894   -3.441769
  C      4.130425    0.415380   -3.644210
  C      3.865819    1.107309   -2.302240
  N      2.581256    0.516253   -1.877713
  C      1.593397    1.104157   -1.161076
  O      0.497780    0.525660   -1.053619
  N      2.425748   -2.033370   -0.577565
  C      2.418304   -3.297533    0.148951
  C      2.173331   -3.142531    1.659699
  N      1.696732   -1.941127    2.091895
  C      1.509795   -1.703605    3.526451
  C      0.348530   -0.718419    3.685999
  N     -0.893944   -1.242029    3.484292
  C     -1.994845   -0.342556    3.200138
  C     -2.010954    0.133785    1.719036
  C     -2.723395    1.511408    1.604583
  C     -1.859257    2.769818    1.794026
  N     -0.772272    2.702270    2.610053
  C      0.209665    3.780425    2.641129
  C      1.176087    3.724891    1.438630
  N      1.102841    2.601456    0.670935
  C      1.827092    2.493709   -0.582888
  C      1.334137    3.522770   -1.624156
  O      1.957023    4.648150    1.195975
  C      0.953059    3.753843    3.989219
  C      1.913219    4.919545    4.269017
  C      1.207257    6.277967    4.214825
  C      2.580337    4.701978    5.632514
  O     -2.182591    3.800970    1.196596
  C     -3.450560    1.588780    0.247540
  C     -2.632952    1.836859   -1.007380
  C     -2.580305    0.592317   -1.911160
  C     -1.878070    0.882027   -3.238606
  C     -1.586566   -0.373341   -4.061515
  C     -0.974468   -0.055724   -5.430036
  C     -0.585535   -1.294700   -6.247722
  C      0.682010   -1.986439   -5.736201
  C      1.073944   -3.253569   -6.507075
  C      0.096631   -4.415758   -6.309374
  O     -4.644108    1.343392    0.189279
  O     -0.667796    0.144199    1.245351
  O      0.531353    0.472395    3.958095
  C      2.792135   -1.200856    4.195180
  C      2.689398   -1.176350    5.720043
  O      2.409245   -4.074625    2.429635
  C      3.704681   -4.128077   -0.088637
  C      3.797286   -4.615672   -1.535106
  C      4.959926   -3.355415    0.330003
  H      1.395718   -0.488024   -3.306429
  H      3.307640   -1.510416   -4.374745
  H      4.213090   -1.607524   -2.849676
  H      5.197064    0.394165   -3.899537
  H      3.596485    0.945029   -4.447088
  H      4.655566    0.875612   -1.568471
  H      3.790067    2.196915   -2.389395
  H      3.147949   -1.355145   -0.348648
  H      1.561298   -3.857676   -0.258702
  H      1.392784   -1.238064    1.419926
  H      1.237442   -2.677331    3.967519
  H     -0.936116   -2.186095    3.108436
  H     -1.895437    0.512080    3.881201
  H     -2.948267   -0.836672    3.426483
  H     -2.593026   -0.600395    1.133733
  H     -3.526207    1.539969    2.359791
  H     -0.479739    1.819000    3.046337
  H     -0.335084    4.727130    2.521557
  H      0.419680    1.878802    0.907257
  H      2.896254    2.665707   -0.385896
  H      1.475566    4.530578   -1.218778
  H      1.892250    3.435516   -2.567504
  H      0.268311    3.359693   -1.829975
  H      1.494717    2.798624    4.072965
  H      0.177727    3.736539    4.774636
  H      2.693356    4.916179    3.492306
  H      0.833833    6.498343    3.205875
  H      0.356427    6.309022    4.915166
  H      1.898609    7.086640    4.493547
  H      3.105743    3.735978    5.673299
  H      3.311575    5.495273    5.845633
  H      1.832821    4.709942    6.442401
  H     -1.616302    2.168294   -0.760165
  H     -3.121069    2.662728   -1.547101
  H     -3.605217    0.232673   -2.089659
  H     -2.044490   -0.224256   -1.397998
  H     -0.927466    1.401997   -3.033780
  H     -2.494356    1.583512   -3.827863
  H     -2.519860   -0.943791   -4.211966
  H     -0.918208   -1.033725   -3.483712
  H     -0.081542    0.583301   -5.292905
  H     -1.692163    0.554342   -6.003560
  H     -0.431851   -1.008230   -7.302162
  H     -1.430791   -2.002845   -6.242685
  H      0.569512   -2.245116   -4.670399
  H      1.511232   -1.257752   -5.798345
  H      2.077361   -3.572464   -6.179102
  H      1.163346   -3.018710   -7.582045
  H      0.441089   -5.320671   -6.830227
  H     -0.006693   -4.658217   -5.241046
  H     -0.904704   -4.175927   -6.694519
  H     -0.602228    0.213176    0.262565
  H      3.014636   -0.195342    3.808325
  H      3.603952   -1.872713    3.880443
  H      3.635129   -0.843732    6.168917
  H      1.901101   -0.488247    6.053635
  H      2.466515   -2.178392    6.116585
  H      3.602128   -4.996833    0.578255
  H      2.909665   -5.194280   -1.824207
  H      3.886445   -3.776315   -2.240822
  H      4.683714   -5.252267   -1.667793
  H      4.894261   -3.007108    1.370797
  H      5.849970   -3.994285    0.249176
  H      5.134372   -2.482666   -0.320904

----------------------------
CARTESIAN COORDINATES (A.U.)
----------------------------
  NO LB      ZA    FRAG     MASS         X           Y           Z
   0 O     8.0000    0    15.999    1.912861   -5.146573   -4.236206
   1 C     6.0000    0    12.011    3.420891   -3.600332   -3.391888
   2 C     6.0000    0    12.011    4.239867   -1.327480   -4.989214
   3 C     6.0000    0    12.011    6.667576   -1.853622   -6.504002
   4 C     6.0000    0    12.011    7.805373    0.784954   -6.886559
   5 C     6.0000    0    12.011    7.305339    2.092512   -4.350603
   6 N     7.0000    0    14.007    4.877868    0.975577   -3.548364
   7 C     6.0000    0    12.011    3.011084    2.086554   -2.194115
   8 O     8.0000    0    15.999    0.940667    0.993353   -1.991050
   9 N     7.0000    0    14.007    4.583999   -3.842512   -1.091440
  10 C     6.0000    0    12.011    4.569932   -6.231435    0.281476
  11 C     6.0000    0    12.011    4.107001   -5.938523    3.136377
  12 N     7.0000    0    14.007    3.206359   -3.668198    3.953108
  13 C     6.0000    0    12.011    2.853098   -3.219347    6.664026
  14 C     6.0000    0    12.011    0.658626   -1.357615    6.965530
  15 N     7.0000    0    14.007   -1.689309   -2.347094    6.584358
  16 C     6.0000    0    12.011   -3.769711   -0.647336    6.047384
  17 C     6.0000    0    12.011   -3.800152    0.252816    3.248508
  18 C     6.0000    0    12.011   -5.146470    2.856148    3.032222
  19 C     6.0000    0    12.011   -3.513486    5.234198    3.390218
  20 N     7.0000    0    14.007   -1.459383    5.106551    4.932285
  21 C     6.0000    0    12.011    0.396209    7.143968    4.991010
  22 C     6.0000    0    12.011    2.222482    7.039023    2.718616
  23 N     7.0000    0    14.007    2.084067    4.916040    1.267884
  24 C     6.0000    0    12.011    3.452703    4.712426   -1.101499
  25 C     6.0000    0    12.011    2.521153    6.657070   -3.069210
  26 O     8.0000    0    15.999    3.698238    8.783730    2.260064
  27 C     6.0000    0    12.011    1.801021    7.093736    7.538531
  28 C     6.0000    0    12.011    3.615460    9.296592    8.067272
  29 C     6.0000    0    12.011    2.281385   11.863639    7.964865
  30 C     6.0000    0    12.011    4.876130    8.885450   10.643909
  31 O     8.0000    0    15.999   -4.124498    7.182793    2.261239
  32 C     6.0000    0    12.011   -6.520613    3.002359    0.467782
  33 C     6.0000    0    12.011   -4.975557    3.471160   -1.903673
  34 C     6.0000    0    12.011   -4.876071    1.119316   -3.611570
  35 C     6.0000    0    12.011   -3.549037    1.666790   -6.120078
  36 C     6.0000    0    12.011   -2.998175   -0.705513   -7.675150
  37 C     6.0000    0    12.011   -1.841477   -0.105304  -10.261280
  38 C     6.0000    0    12.011   -1.106501   -2.446629  -11.806483
  39 C     6.0000    0    12.011    1.288812   -3.753826  -10.839849
  40 C     6.0000    0    12.011    2.029461   -6.148354  -12.296589
  41 C     6.0000    0    12.011    0.182605   -8.344573  -11.922988
  42 O     8.0000    0    15.999   -8.776092    2.538643    0.357685
  43 O     8.0000    0    15.999   -1.261952    0.272496    2.353372
  44 O     8.0000    0    15.999    1.004112    0.892698    7.479715
  45 C     6.0000    0    12.011    5.276371   -2.269289    7.927741
  46 C     6.0000    0    12.011    5.082226   -2.222979   10.809315
  47 O     8.0000    0    15.999    4.552813   -7.699925    4.591345
  48 C     6.0000    0    12.011    7.000832   -7.800936   -0.167500
  49 C     6.0000    0    12.011    7.175831   -8.722355   -2.900929
  50 C     6.0000    0    12.011    9.372902   -6.340816    0.623616
  51 H     1.0000    0     1.008    2.637524   -0.922232   -6.248246
  52 H     1.0000    0     1.008    6.250533   -2.854272   -8.267070
  53 H     1.0000    0     1.008    7.961585   -3.037781   -5.385107
  54 H     1.0000    0     1.008    9.821028    0.744864   -7.369056
  55 H     1.0000    0     1.008    6.796371    1.785845   -8.403778
  56 H     1.0000    0     1.008    8.797744    1.654668   -2.963981
  57 H     1.0000    0     1.008    7.162188    4.151568   -4.515301
  58 H     1.0000    0     1.008    5.948762   -2.560853   -0.658848
  59 H     1.0000    0     1.008    2.950426   -7.289951   -0.488876
  60 H     1.0000    0     1.008    2.631981   -2.339602    2.683272
  61 H     1.0000    0     1.008    2.338427   -5.059423    7.497525
  62 H     1.0000    0     1.008   -1.769002   -4.131122    5.874092
  63 H     1.0000    0     1.008   -3.581858    0.967691    7.334407
  64 H     1.0000    0     1.008   -5.571417   -1.581080    6.475115
  65 H     1.0000    0     1.008   -4.900109   -1.134582    2.142445
  66 H     1.0000    0     1.008   -6.663566    2.910119    4.459359
  67 H     1.0000    0     1.008   -0.906574    3.437412    5.756742
  68 H     1.0000    0     1.008   -0.633216    8.932981    4.765052
  69 H     1.0000    0     1.008    0.793080    3.550421    1.714467
  70 H     1.0000    0     1.008    5.473126    5.037457   -0.729237
  71 H     1.0000    0     1.008    2.788415    8.561552   -2.303157
  72 H     1.0000    0     1.008    3.575835    6.492184   -4.851879
  73 H     1.0000    0     1.008    0.507035    6.348900   -3.458151
  74 H     1.0000    0     1.008    2.824607    5.288633    7.696789
  75 H     1.0000    0     1.008    0.335855    7.061035    9.022754
  76 H     1.0000    0     1.008    5.089705    9.290232    6.599502
  77 H     1.0000    0     1.008    1.575717   12.280088    6.058226
  78 H     1.0000    0     1.008    0.673550   11.922325    9.288317
  79 H     1.0000    0     1.008    3.587852   13.391809    8.491573
  80 H     1.0000    0     1.008    5.869004    7.059974   10.720981
  81 H     1.0000    0     1.008    6.257970   10.384562   11.046646
  82 H     1.0000    0     1.008    3.463529    8.900501   12.174373
  83 H     1.0000    0     1.008   -3.054368    4.097482   -1.436504
  84 H     1.0000    0     1.008   -5.897966    5.031827   -2.923597
  85 H     1.0000    0     1.008   -6.812873    0.439688   -3.948883
  86 H     1.0000    0     1.008   -3.863526   -0.423782   -2.641833
  87 H     1.0000    0     1.008   -1.752657    2.649390   -5.733013
  88 H     1.0000    0     1.008   -4.713650    2.992403   -7.233613
  89 H     1.0000    0     1.008   -4.761845   -1.783506   -7.959463
  90 H     1.0000    0     1.008   -1.735162   -1.953458   -6.583262
  91 H     1.0000    0     1.008   -0.154092    1.102280  -10.002142
  92 H     1.0000    0     1.008   -3.197725    1.047555  -11.345085
  93 H     1.0000    0     1.008   -0.816080   -1.905278  -13.799087
  94 H     1.0000    0     1.008   -2.703804   -3.784828  -11.796964
  95 H     1.0000    0     1.008    1.076221   -4.242655   -8.825775
  96 H     1.0000    0     1.008    2.855815   -2.376806  -10.957284
  97 H     1.0000    0     1.008    3.925643   -6.750978  -11.676811
  98 H     1.0000    0     1.008    2.198406   -5.704536  -14.327989
  99 H     1.0000    0     1.008    0.833537  -10.054611  -12.907258
 100 H     1.0000    0     1.008   -0.012648   -8.802755   -9.904141
 101 H     1.0000    0     1.008   -1.709643   -7.891359  -12.650807
 102 H     1.0000    0     1.008   -1.138046    0.402845    0.496177
 103 H     1.0000    0     1.008    5.696837   -0.369143    7.196691
 104 H     1.0000    0     1.008    6.810482   -3.538914    7.332975
 105 H     1.0000    0     1.008    6.869397   -1.594423   11.657563
 106 H     1.0000    0     1.008    3.592561   -0.922652   11.439712
 107 H     1.0000    0     1.008    4.661037   -4.116564   11.558671
 108 H     1.0000    0     1.008    6.807035   -9.442646    1.092744
 109 H     1.0000    0     1.008    5.498471   -9.815767   -3.447251
 110 H     1.0000    0     1.008    7.344316   -7.136200   -4.234539
 111 H     1.0000    0     1.008    8.850936   -9.925347   -3.151672
 112 H     1.0000    0     1.008    9.248813   -5.682611    2.590431
 113 H     1.0000    0     1.008   11.054841   -7.548104    0.470875
 114 H     1.0000    0     1.008    9.702558   -4.691559   -0.606420

--------------------------------
INTERNAL COORDINATES (ANGSTROEM)
--------------------------------
 O      0   0   0     0.000000000000     0.00000000     0.00000000
 C      1   0   0     1.227176504230     0.00000000     0.00000000
 C      2   1   0     1.532607755706   120.42026377     0.00000000
 C      3   2   1     1.539640043543   112.40666102   267.16222088
 C      4   3   2     1.533976462627   103.39229865   205.78572805
 C      5   4   3     1.532862441522   103.15488200    39.19146158
 N      6   5   4     1.476371248359   102.78067714   326.75530410
 C      7   6   5     1.354646155509   127.79725843   212.57958217
 O      8   7   6     1.243617380987   119.09658116   169.81432181
 N      2   1   3     1.370102237455   123.59023692   184.05729017
 C     10   2   1     1.458077693397   121.43428724    14.36882232
 C     11  10   2     1.538310161423   113.75300245   221.86932969
 N     12  11  10     1.362832414794   117.12707496    14.63723734
 C     13  12  11     1.466053269479   119.85011919   183.27000336
 C     14  13  12     1.531203471844   107.63216219   210.15866754
 N     15  14  13     1.363302415317   115.38194725    75.15268957
 C     16  15  14     1.449751732127   118.86689762   199.08195046
 C     17  16  15     1.555898782664   112.60574040    79.09969689
 C     18  17  16     1.555158594670   110.24299078   205.93667812
 C     19  18  17     1.538251814584   117.27553886    87.85876775
 N     20  19  18     1.360881408010   118.81248326   330.06336659
 C     21  20  19     1.458623935147   120.91667468   168.99056859
 C     22  21  20     1.543716119189   112.22576165   281.59427208
 N     23  22  21     1.362653492642   115.77652195   350.46536395
 C     24  23  22     1.451971825836   121.39038678   171.93415946
 C     25  24  23     1.544736335390   111.92986335   295.97617261
 O     23  22  21     1.233349129473   121.51509655   170.20513459
 C     22  21  20     1.539704019952   109.32473576   156.33201739
 C     28  22  21     1.535921175940   116.62964598   186.93575687
 C     29  28  22     1.531871852992   112.23996927    58.00257998
 C     29  28  22     1.533462377661   109.04171645   181.37073135
 O     20  19  18     1.234804441612   118.45516985   150.03105815
 C     19  18  17     1.541532152897   108.98676553   212.80730019
 C     33  19  18     1.518173340586   118.80516940   283.81768162
 C     34  33  19     1.538984879633   111.82088646   110.21923379
 C     35  34  33     1.529437533316   111.85279373   174.24379436
 C     36  35  34     1.529085633592   113.52262290   169.93722754
 C     37  36  35     1.532447195804   112.74238041   175.89945970
 C     38  37  36     1.534581798427   114.18835349   176.29229107
 C     39  38  37     1.531935383499   113.35026923   285.49110699
 C     40  39  38     1.534104624260   114.61816707   178.24660982
 C     41  40  39     1.531310384960   113.51226908   291.71633975
 O     33  19  18     1.219904835677   119.56897336    97.89656137
 O     18  17  16     1.424274645872   108.00301019   330.63985655
 O     15  14  13     1.235110845554   122.07481457   256.24241081
 C     14  13  12     1.531127892925   111.94883951    86.36784172
 C     46  14  13     1.528516872667   112.62413470   189.83655691
 O     12  11  10     1.231769064060   120.47211818   194.91682669
 C     11  10   2     1.549521144440   112.58653242    96.30649168
 C     49  11  10     1.529246710919   111.48169769   293.00834815
 C     49  11  10     1.532288626752   111.58654479    58.65972512
 H      3   2   1     1.099478216354   105.61633554    28.71301561
 H      4   3   2     1.095235196651   111.27226448    83.00793708
 H      4   3   2     1.100970815337   109.99268338   323.42611954
 H      5   4   3     1.096977409992   113.25133516   160.89629461
 H      5   4   3     1.100105639526   110.12343842   282.11889343
 H      6   5   4     1.102633287482   111.35255550    84.88684295
 H      6   5   4     1.095707456338   113.02803830   206.85739897
 H     10   2   1     1.016841790543   117.17423125   173.21609641
 H     11  10   2     1.101998189152   105.09065016   338.45739332
 H     13  12  11     1.018932483040   120.22824162     8.67118160
 H     14  13  12     1.103113919429   106.24346598   327.74841978
 H     16  15  14     1.017009604146   116.67948415   350.75048819
 H     17  16  15     1.097328974384   107.02394510   317.24631567
 H     17  16  15     1.097449711431   109.87349939   200.77169284
 H     18  17  16     1.104720726379   107.83891110    88.29625758
 H     19  18  17     1.102571088829   107.82451366   326.22703708
 H     21  20  19     1.027660098426   121.64114631     4.39083657
 H     22  21  20     1.098771253222   107.50488031    36.39936155
 H     24  23  22     1.022147535650   119.24544445     1.23590764
 H     25  24  23     1.100680010216   108.56476468    56.40905653
 H     26  25  24     1.095450379389   108.79783383    59.64606756
 H     26  25  24     1.099549777260   111.31361612   179.73042456
 H     26  25  24     1.097697076018   109.71091847   300.05332637
 H     28  22  21     1.101295049659   108.60376024    62.42766724
 H     28  22  21     1.103775409135   106.50753994   308.50849815
 H     29  28  22     1.100865227236   108.18935115   299.28789919
 H     30  29  28     1.098175648335   111.54064487   295.20167652
 H     30  29  28     1.102430237394   110.98842453    56.18587158
 H     30  29  28     1.099820529322   110.69335831   175.67934188
 H     31  29  28     1.100395990703   111.42146700    56.92899199
 H     31  29  28     1.099748748978   111.05293559   177.34057340
 H     31  29  28     1.102161613169   110.93385235   297.02804062
 H     34  33  19     1.097516059204   111.22439526   346.58159601
 H     34  33  19     1.100734924078   106.80338723   230.00082948
 H     35  34  33     1.100749507757   109.12284196    51.78843955
 H     35  34  33     1.103279131662   109.99839504   295.16712227
 H     36  35  34     1.102710056258   108.89992698    48.53184665
 H     36  35  34     1.104134906797   109.10291910   292.89997083
 H     37  36  35     1.104122171883   109.65517866    54.45705923
 H     37  36  35     1.103025198751   108.97362858   298.94267997
 H     38  37  36     1.106560315497   109.34976199    53.70675323
 H     38  37  36     1.102813800654   108.61094838   298.84965304
 H     39  38  37     1.103417148156   109.56512043   163.85161905
 H     39  38  37     1.102702068517   108.77044019    48.24264884
 H     40  39  38     1.102498951173   110.13951689    55.51783463
 H     40  39  38     1.105647679828   107.70929368   299.64843497
 H     41  40  39     1.102771278980   108.77606876   170.39882068
 H     41  40  39     1.103953380082   109.52803227    54.83700172
 H     42  41  40     1.099457907269   111.31787651   183.22846313
 H     42  41  40     1.100357608691   110.64081580   303.24904972
 H     42  41  40     1.099330334656   111.74793953    63.15023158
 H     44  18  17     0.987382587284   113.21403204   165.54401654
 H     46  14  13     1.100100568078   108.41664219    67.27971995
 H     46  14  13     1.099771213420   107.01616718   311.05570551
 H     47  46  14     1.098420723944   110.77270268   178.09995081
 H     47  46  14     1.098262996302   111.18049282   297.82449738
 H     47  46  14     1.100459210251   111.00783176    58.58529712
 H     49  11  10     1.099999191379   104.65306227   175.20544656
 H     50  49  11     1.098288672545   111.59332384   303.93093416
 H     50  49  11     1.100229340114   111.61500085    64.07737567
 H     50  49  11     1.099370013631   110.34162073   183.41173063
 H     51  49  11     1.099491165667   111.68129974    54.60810048
 H     51  49  11     1.098574284462   110.50872634   174.34366900
 H     51  49  11     1.102634361118   111.55809685   292.97636040

---------------------------
INTERNAL COORDINATES (A.U.)
---------------------------
 O      0   0   0     0.000000000000     0.00000000     0.00000000
 C      1   0   0     2.319027510977     0.00000000     0.00000000
 C      2   1   0     2.896208929008   120.42026377     0.00000000
 C      3   2   1     2.909498027114   112.40666102   267.16222088
 C      4   3   2     2.898795410247   103.39229865   205.78572805
 C      5   4   3     2.896690215451   103.15488200    39.19146158
 N      6   5   4     2.789937331394   102.78067714   326.75530410
 C      7   6   5     2.559910242280   127.79725843   212.57958217
 O      8   7   6     2.350096265450   119.09658116   169.81432181
 N      2   1   3     2.589118004262   123.59023692   184.05729017
 C     10   2   1     2.755367522500   121.43428724    14.36882232
 C     11  10   2     2.906984914118   113.75300245   221.86932969
 N     12  11  10     2.575380030392   117.12707496    14.63723734
 C     13  12  11     2.770439177055   119.85011919   183.27000336
 C     14  13  12     2.893555217095   107.63216219   210.15866754
 N     15  14  13     2.576268202662   115.38194725    75.15268957
 C     16  15  14     2.739633735898   118.86689762   199.08195046
 C     17  16  15     2.940222591337   112.60574040    79.09969689
 C     18  17  16     2.938823838739   110.24299078   205.93667812
 C     19  18  17     2.906874654571   117.27553886    87.85876775
 N     20  19  18     2.571693161885   118.81248326   330.06336659
 C     21  20  19     2.756399769810   120.91667468   168.99056859
 C     22  21  20     2.917200693786   112.22576165   281.59427208
 N     23  22  21     2.575041916524   115.77652195   350.46536395
 C     24  23  22     2.743829105000   121.39038678   171.93415946
 C     25  24  23     2.919128623005   111.92986335   295.97617261
 O     23  22  21     2.330692082213   121.51509655   170.20513459
 C     22  21  20     2.909618925007   109.32473576   156.33201739
 C     28  22  21     2.902470385818   116.62964598   186.93575687
 C     29  28  22     2.894818274416   112.23996927    58.00257998
 C     29  28  22     2.897823930450   109.04171645   181.37073135
 O     20  19  18     2.333442223596   118.45516985   150.03105815
 C     19  18  17     2.913073595610   108.98676553   212.80730019
 C     33  19  18     2.868931837527   118.80516940   283.81768162
 C     34  33  19     2.908259946752   111.82088646   110.21923379
 C     35  34  33     2.890218076908   111.85279373   174.24379436
 C     36  35  34     2.889553082803   113.52262290   169.93722754
 C     37  36  35     2.895905514766   112.74238041   175.89945970
 C     38  37  36     2.899939329128   114.18835349   176.29229107
 C     39  38  37     2.894938329677   113.35026923   285.49110699
 C     40  39  38     2.899037600633   114.61816707   178.24660982
 C     41  40  39     2.893757253604   113.51226908   291.71633975
 O     33  19  18     2.305286048875   119.56897336    97.89656137
 O     18  17  16     2.691489020186   108.00301019   330.63985655
 O     15  14  13     2.334021243132   122.07481457   256.24241081
 C     14  13  12     2.893412393636   111.94883951    86.36784172
 C     46  14  13     2.888478280419   112.62413470   189.83655691
 O     12  11  10     2.327706191310   120.47211818   194.91682669
 C     11  10   2     2.928170601713   112.58653242    96.30649168
 C     49  11  10     2.889857474836   111.48169769   293.00834815
 C     49  11  10     2.895605862684   111.58654479    58.65972512
 H      3   2   1     2.077712719122   105.61633554    28.71301561
 H      4   3   2     2.069694573901   111.27226448    83.00793708
 H      4   3   2     2.080533322427   109.99268338   323.42611954
 H      5   4   3     2.072986879984   113.25133516   160.89629461
 H      5   4   3     2.078898377086   110.12343842   282.11889343
 H      6   5   4     2.083674939486   111.35255550    84.88684295
[...]
freq.      84.76  E(vib)   ...       0.48 
freq.      87.09  E(vib)   ...       0.48 
freq.      97.39  E(vib)   ...       0.46 
freq.     100.28  E(vib)   ...       0.46 
freq.     107.13  E(vib)   ...       0.45 
freq.     112.18  E(vib)   ...       0.45 
freq.     118.92  E(vib)   ...       0.44 
freq.     126.05  E(vib)   ...       0.43 
freq.     130.75  E(vib)   ...       0.43 
freq.     134.25  E(vib)   ...       0.42 
freq.     139.99  E(vib)   ...       0.41 
freq.     143.04  E(vib)   ...       0.41 
freq.     144.45  E(vib)   ...       0.41 
freq.     160.19  E(vib)   ...       0.39 
freq.     161.31  E(vib)   ...       0.39 
freq.     163.88  E(vib)   ...       0.39 
freq.     167.34  E(vib)   ...       0.39 
freq.     176.23  E(vib)   ...       0.38 
freq.     177.09  E(vib)   ...       0.37 
freq.     184.36  E(vib)   ...       0.37 
freq.     187.24  E(vib)   ...       0.36 
freq.     208.42  E(vib)   ...       0.34 
freq.     212.59  E(vib)   ...       0.34 
freq.     214.56  E(vib)   ...       0.34 
freq.     217.74  E(vib)   ...       0.33 
freq.     220.75  E(vib)   ...       0.33 
freq.     224.23  E(vib)   ...       0.33 
freq.     228.83  E(vib)   ...       0.32 
freq.     230.10  E(vib)   ...       0.32 
freq.     234.53  E(vib)   ...       0.32 
freq.     241.74  E(vib)   ...       0.31 
freq.     244.86  E(vib)   ...       0.31 
freq.     249.03  E(vib)   ...       0.31 
freq.     252.43  E(vib)   ...       0.30 
freq.     254.91  E(vib)   ...       0.30 
freq.     266.87  E(vib)   ...       0.29 
freq.     273.92  E(vib)   ...       0.28 
freq.     277.49  E(vib)   ...       0.28 
freq.     279.49  E(vib)   ...       0.28 
freq.     284.93  E(vib)   ...       0.28 
freq.     297.52  E(vib)   ...       0.27 
freq.     305.38  E(vib)   ...       0.26 
freq.     314.28  E(vib)   ...       0.25 
freq.     318.39  E(vib)   ...       0.25 
freq.     323.29  E(vib)   ...       0.25 
freq.     336.75  E(vib)   ...       0.24 
freq.     345.64  E(vib)   ...       0.23 
freq.     348.37  E(vib)   ...       0.23 
freq.     364.05  E(vib)   ...       0.22 
freq.     366.12  E(vib)   ...       0.22 
freq.     384.36  E(vib)   ...       0.20 
freq.     389.83  E(vib)   ...       0.20 
freq.     399.95  E(vib)   ...       0.19 
freq.     401.85  E(vib)   ...       0.19 
freq.     412.97  E(vib)   ...       0.19 
freq.     417.26  E(vib)   ...       0.18 
freq.     419.04  E(vib)   ...       0.18 
freq.     442.43  E(vib)   ...       0.17 
freq.     454.38  E(vib)   ...       0.16 
freq.     460.03  E(vib)   ...       0.16 
freq.     470.69  E(vib)   ...       0.15 
freq.     497.33  E(vib)   ...       0.14 
freq.     506.39  E(vib)   ...       0.14 
freq.     517.67  E(vib)   ...       0.13 
freq.     523.02  E(vib)   ...       0.13 
freq.     530.92  E(vib)   ...       0.13 
freq.     540.26  E(vib)   ...       0.12 
freq.     552.55  E(vib)   ...       0.12 
freq.     556.99  E(vib)   ...       0.12 
freq.     567.68  E(vib)   ...       0.11 
freq.     572.32  E(vib)   ...       0.11 
freq.     581.08  E(vib)   ...       0.11 
freq.     597.97  E(vib)   ...       0.10 
freq.     604.81  E(vib)   ...       0.10 
freq.     610.07  E(vib)   ...       0.10 
freq.     645.87  E(vib)   ...       0.09 
freq.     648.83  E(vib)   ...       0.08 
freq.     655.26  E(vib)   ...       0.08 
freq.     676.93  E(vib)   ...       0.08 
freq.     696.12  E(vib)   ...       0.07 
freq.     708.07  E(vib)   ...       0.07 
freq.     713.60  E(vib)   ...       0.07 
freq.     715.54  E(vib)   ...       0.07 
freq.     722.10  E(vib)   ...       0.07 
freq.     725.17  E(vib)   ...       0.06 
freq.     727.00  E(vib)   ...       0.06 
freq.     733.81  E(vib)   ...       0.06 
freq.     741.70  E(vib)   ...       0.06 
freq.     751.28  E(vib)   ...       0.06 
freq.     753.26  E(vib)   ...       0.06 
freq.     762.34  E(vib)   ...       0.06 
freq.     771.68  E(vib)   ...       0.05 
freq.     776.91  E(vib)   ...       0.05 
freq.     790.04  E(vib)   ...       0.05 
freq.     797.19  E(vib)   ...       0.05 
freq.     818.62  E(vib)   ...       0.05 
freq.     824.54  E(vib)   ...       0.04 
freq.     832.29  E(vib)   ...       0.04 
freq.     845.45  E(vib)   ...       0.04 
freq.     857.63  E(vib)   ...       0.04 
freq.     858.89  E(vib)   ...       0.04 
freq.     861.61  E(vib)   ...       0.04 
freq.     868.37  E(vib)   ...       0.04 
freq.     873.43  E(vib)   ...       0.04 
freq.     883.46  E(vib)   ...       0.04 
freq.     885.92  E(vib)   ...       0.04 
freq.     895.65  E(vib)   ...       0.03 
freq.     898.54  E(vib)   ...       0.03 
freq.     899.88  E(vib)   ...       0.03 
freq.     902.04  E(vib)   ...       0.03 
freq.     907.93  E(vib)   ...       0.03 
freq.     918.98  E(vib)   ...       0.03 
freq.     920.14  E(vib)   ...       0.03 
freq.     931.76  E(vib)   ...       0.03 
freq.     937.54  E(vib)   ...       0.03 
freq.     943.62  E(vib)   ...       0.03 
freq.     944.25  E(vib)   ...       0.03 
freq.     949.82  E(vib)   ...       0.03 
freq.     952.47  E(vib)   ...       0.03 
freq.     958.00  E(vib)   ...       0.03 
freq.     969.82  E(vib)   ...       0.03 
freq.     974.70  E(vib)   ...       0.03 
freq.     979.30  E(vib)   ...       0.03 
freq.     988.46  E(vib)   ...       0.02 
freq.     998.59  E(vib)   ...       0.02 
freq.    1009.37  E(vib)   ...       0.02 
freq.    1012.88  E(vib)   ...       0.02 
freq.    1020.90  E(vib)   ...       0.02 
freq.    1026.31  E(vib)   ...       0.02 
freq.    1032.53  E(vib)   ...       0.02 
freq.    1035.12  E(vib)   ...       0.02 
freq.    1038.65  E(vib)   ...       0.02 
freq.    1040.45  E(vib)   ...       0.02 
freq.    1041.65  E(vib)   ...       0.02 
freq.    1048.16  E(vib)   ...       0.02 
freq.    1049.25  E(vib)   ...       0.02 
freq.    1052.03  E(vib)   ...       0.02 
freq.    1059.84  E(vib)   ...       0.02 
freq.    1064.78  E(vib)   ...       0.02 
freq.    1070.71  E(vib)   ...       0.02 
freq.    1075.68  E(vib)   ...       0.02 
freq.    1081.80  E(vib)   ...       0.02 
freq.    1082.38  E(vib)   ...       0.02 
freq.    1090.18  E(vib)   ...       0.02 
freq.    1095.58  E(vib)   ...       0.02 
freq.    1111.49  E(vib)   ...       0.01 
freq.    1113.81  E(vib)   ...       0.01 
freq.    1125.07  E(vib)   ...       0.01 
freq.    1126.44  E(vib)   ...       0.01 
freq.    1131.38  E(vib)   ...       0.01 
freq.    1134.18  E(vib)   ...       0.01 
freq.    1136.42  E(vib)   ...       0.01 
freq.    1146.21  E(vib)   ...       0.01 
freq.    1155.53  E(vib)   ...       0.01 
freq.    1160.14  E(vib)   ...       0.01 
freq.    1164.90  E(vib)   ...       0.01 
freq.    1165.42  E(vib)   ...       0.01 
freq.    1175.14  E(vib)   ...       0.01 
freq.    1180.08  E(vib)   ...       0.01 
freq.    1181.34  E(vib)   ...       0.01 
freq.    1182.82  E(vib)   ...       0.01 
freq.    1193.17  E(vib)   ...       0.01 
freq.    1197.03  E(vib)   ...       0.01 
freq.    1201.48  E(vib)   ...       0.01 
freq.    1207.45  E(vib)   ...       0.01 
freq.    1214.57  E(vib)   ...       0.01 
freq.    1215.51  E(vib)   ...       0.01 
freq.    1223.55  E(vib)   ...       0.01 
freq.    1228.24  E(vib)   ...       0.01 
freq.    1229.63  E(vib)   ...       0.01 
freq.    1236.29  E(vib)   ...       0.01 
freq.    1240.98  E(vib)   ...       0.01 
freq.    1245.98  E(vib)   ...       0.01 
freq.    1247.80  E(vib)   ...       0.01 
freq.    1249.96  E(vib)   ...       0.01 
freq.    1255.33  E(vib)   ...       0.01 
freq.    1262.53  E(vib)   ...       0.01 
freq.    1266.27  E(vib)   ...       0.01 
freq.    1273.59  E(vib)   ...       0.01 
freq.    1275.42  E(vib)   ...       0.01 
freq.    1278.07  E(vib)   ...       0.01 
freq.    1283.88  E(vib)   ...       0.01 
freq.    1286.55  E(vib)   ...       0.01 
freq.    1287.90  E(vib)   ...       0.01 
freq.    1290.45  E(vib)   ...       0.01 
freq.    1293.87  E(vib)   ...       0.01 
freq.    1295.89  E(vib)   ...       0.01 
freq.    1301.08  E(vib)   ...       0.01 
freq.    1303.81  E(vib)   ...       0.01 
freq.    1305.35  E(vib)   ...       0.01 
freq.    1305.57  E(vib)   ...       0.01 
freq.    1308.25  E(vib)   ...       0.01 
freq.    1310.77  E(vib)   ...       0.01 
freq.    1314.34  E(vib)   ...       0.01 
freq.    1317.49  E(vib)   ...       0.01 
freq.    1324.12  E(vib)   ...       0.01 
freq.    1325.26  E(vib)   ...       0.01 
freq.    1330.68  E(vib)   ...       0.01 
freq.    1332.87  E(vib)   ...       0.01 
freq.    1334.53  E(vib)   ...       0.01 
freq.    1337.99  E(vib)   ...       0.01 
freq.    1339.21  E(vib)   ...       0.01 
freq.    1342.80  E(vib)   ...       0.01 
freq.    1344.08  E(vib)   ...       0.01 
freq.    1348.95  E(vib)   ...       0.01 
freq.    1351.43  E(vib)   ...       0.01 
freq.    1351.80  E(vib)   ...       0.01 
freq.    1352.23  E(vib)   ...       0.01 
freq.    1352.44  E(vib)   ...       0.01 
freq.    1363.53  E(vib)   ...       0.01 
freq.    1364.37  E(vib)   ...       0.01 
freq.    1364.81  E(vib)   ...       0.01 
freq.    1369.51  E(vib)   ...       0.01 
freq.    1372.99  E(vib)   ...       0.01 
freq.    1422.70  E(vib)   ...       0.00 
freq.    1425.36  E(vib)   ...       0.00 
freq.    1429.34  E(vib)   ...       0.00 
freq.    1431.11  E(vib)   ...       0.00 
freq.    1432.19  E(vib)   ...       0.00 
freq.    1432.87  E(vib)   ...       0.00 
freq.    1433.37  E(vib)   ...       0.00 
freq.    1435.67  E(vib)   ...       0.00 
freq.    1436.65  E(vib)   ...       0.00 
freq.    1437.34  E(vib)   ...       0.00 
freq.    1439.16  E(vib)   ...       0.00 
freq.    1442.18  E(vib)   ...       0.00 
freq.    1442.29  E(vib)   ...       0.00 
freq.    1445.53  E(vib)   ...       0.00 
freq.    1446.94  E(vib)   ...       0.00 
freq.    1448.74  E(vib)   ...       0.00 
freq.    1449.31  E(vib)   ...       0.00 
freq.    1449.79  E(vib)   ...       0.00 
freq.    1450.18  E(vib)   ...       0.00 
freq.    1452.20  E(vib)   ...       0.00 
freq.    1452.91  E(vib)   ...       0.00 
freq.    1454.85  E(vib)   ...       0.00 
freq.    1455.81  E(vib)   ...       0.00 
freq.    1459.38  E(vib)   ...       0.00 
freq.    1460.15  E(vib)   ...       0.00 
freq.    1460.65  E(vib)   ...       0.00 
freq.    1461.47  E(vib)   ...       0.00 
freq.    1462.40  E(vib)   ...       0.00 
freq.    1464.39  E(vib)   ...       0.00 
freq.    1470.47  E(vib)   ...       0.00 
freq.    1473.80  E(vib)   ...       0.00 
freq.    1487.86  E(vib)   ...       0.00 
freq.    1489.66  E(vib)   ...       0.00 
freq.    1520.50  E(vib)   ...       0.00 
freq.    1624.84  E(vib)   ...       0.00 
freq.    1651.42  E(vib)   ...       0.00 
freq.    1663.20  E(vib)   ...       0.00 
freq.    1668.40  E(vib)   ...       0.00 
freq.    1675.64  E(vib)   ...       0.00 
freq.    1692.95  E(vib)   ...       0.00 
freq.    1710.94  E(vib)   ...       0.00 
freq.    2911.64  E(vib)   ...       0.00 
freq.    2916.17  E(vib)   ...       0.00 
freq.    2923.21  E(vib)   ...       0.00 
freq.    2933.67  E(vib)   ...       0.00 
freq.    2937.20  E(vib)   ...       0.00 
freq.    2938.97  E(vib)   ...       0.00 
freq.    2940.40  E(vib)   ...       0.00 
freq.    2943.79  E(vib)   ...       0.00 
freq.    2947.98  E(vib)   ...       0.00 
freq.    2948.63  E(vib)   ...       0.00 
freq.    2949.84  E(vib)   ...       0.00 
freq.    2951.14  E(vib)   ...       0.00 
freq.    2951.40  E(vib)   ...       0.00 
freq.    2958.34  E(vib)   ...       0.00 
freq.    2960.96  E(vib)   ...       0.00 
freq.    2962.06  E(vib)   ...       0.00 
freq.    2964.97  E(vib)   ...       0.00 
freq.    2966.74  E(vib)   ...       0.00 
freq.    2967.66  E(vib)   ...       0.00 
freq.    2968.41  E(vib)   ...       0.00 
freq.    2972.34  E(vib)   ...       0.00 
freq.    2972.79  E(vib)   ...       0.00 
freq.    2974.43  E(vib)   ...       0.00 
freq.    2975.18  E(vib)   ...       0.00 
freq.    2977.71  E(vib)   ...       0.00 
freq.    2979.46  E(vib)   ...       0.00 
freq.    2979.90  E(vib)   ...       0.00 
freq.    2983.61  E(vib)   ...       0.00 
freq.    2984.08  E(vib)   ...       0.00 
freq.    2987.19  E(vib)   ...       0.00 
freq.    2988.19  E(vib)   ...       0.00 
freq.    2992.33  E(vib)   ...       0.00 
freq.    2992.90  E(vib)   ...       0.00 
freq.    2994.59  E(vib)   ...       0.00 
freq.    3002.03  E(vib)   ...       0.00 
freq.    3003.49  E(vib)   ...       0.00 
freq.    3006.86  E(vib)   ...       0.00 
freq.    3011.84  E(vib)   ...       0.00 
freq.    3016.13  E(vib)   ...       0.00 
freq.    3016.64  E(vib)   ...       0.00 
freq.    3017.59  E(vib)   ...       0.00 
freq.    3020.52  E(vib)   ...       0.00 
freq.    3025.91  E(vib)   ...       0.00 
freq.    3028.69  E(vib)   ...       0.00 
freq.    3030.95  E(vib)   ...       0.00 
freq.    3031.29  E(vib)   ...       0.00 
freq.    3036.48  E(vib)   ...       0.00 
freq.    3038.99  E(vib)   ...       0.00 
freq.    3039.96  E(vib)   ...       0.00 
freq.    3040.55  E(vib)   ...       0.00 
freq.    3044.00  E(vib)   ...       0.00 
freq.    3044.12  E(vib)   ...       0.00 
freq.    3048.44  E(vib)   ...       0.00 
freq.    3049.13  E(vib)   ...       0.00 
freq.    3049.78  E(vib)   ...       0.00 
freq.    3052.01  E(vib)   ...       0.00 
freq.    3063.88  E(vib)   ...       0.00 
freq.    3079.97  E(vib)   ...       0.00 
freq.    3298.87  E(vib)   ...       0.00 
freq.    3382.35  E(vib)   ...       0.00 
freq.    3420.60  E(vib)   ...       0.00 
freq.    3472.76  E(vib)   ...       0.00 
freq.    3493.65  E(vib)   ...       0.00 
freq.    3497.90  E(vib)   ...       0.00 

------------
INNER ENERGY
------------

The inner energy is: U= E(el) + E(ZPE) + E(vib) + E(rot) + E(trans)
    E(el)   - is the total energy from the electronic structure calculation
              = E(kin-el) + E(nuc-el) + E(el-el) + E(nuc-nuc)
    E(ZPE)  - the the zero temperature vibrational energy from the frequency calculation
    E(vib)  - the the finite temperature correction to E(ZPE) due to population
              of excited vibrational states
    E(rot)  - is the rotational thermal energy
    E(trans)- is the translational thermal energy

Summary of contributions to the inner energy U:
Electronic energy                ...  -2380.07689058 Eh
Zero point energy                ...      0.97747206 Eh     613.37 kcal/mol
Thermal vibrational correction   ...      0.05536318 Eh      34.74 kcal/mol
Thermal rotational correction    ...      0.00141627 Eh       0.89 kcal/mol
Thermal translational correction ...      0.00141627 Eh       0.89 kcal/mol
-----------------------------------------------------------------------
Total thermal energy                  -2379.04122279 Eh


Summary of corrections to the electronic energy:
(perhaps to be used in another calculation)
Total thermal correction                  0.05819572 Eh      36.52 kcal/mol
Non-thermal (ZPE) correction              0.97747206 Eh     613.37 kcal/mol
-----------------------------------------------------------------------
Total correction                          1.03566779 Eh     649.89 kcal/mol


--------
ENTHALPY
--------

The enthalpy is H = U + kB*T
                kB is Boltzmann's constant
Total free energy                 ...  -2379.04122279 Eh 
Thermal Enthalpy correction       ...      0.00094421 Eh       0.59 kcal/mol
-----------------------------------------------------------------------
Total Enthalpy                    ...  -2379.04027858 Eh


Note: Only C1 symmetry has been detected, increase convergence thresholds 
      if your molecule has a higher symmetry. Symmetry factor of 1.0 is   
      used for the rotational entropy correction. 
 

Note: Rotational entropy computed according to Herzberg 
Infrared and Raman Spectra, Chapter V,1, Van Nostrand Reinhold, 1945 
Point Group:  C1, Symmetry Number:   1  
Rotational constants in cm-1:     0.002332     0.001473     0.001237 

Vibrational entropy computed according to the QRRHO of S. Grimme
Chem.Eur.J. 2012 18 9955


-------
ENTROPY
-------

The entropy contributions are T*S = T*(S(el)+S(vib)+S(rot)+S(trans))
     S(el)   - electronic entropy
     S(vib)  - vibrational entropy
     S(rot)  - rotational entropy
     S(trans)- translational entropy
The entropies will be listed as mutliplied by the temperature to get
units of energy

Electronic entropy                ...      0.00000000 Eh      0.00 kcal/mol
Vibrational entropy               ...      0.10125006 Eh     63.54 kcal/mol
Rotational entropy                ...      0.01861109 Eh     11.68 kcal/mol
Translational entropy             ...      0.02166895 Eh     13.60 kcal/mol
-----------------------------------------------------------------------
Final entropy term                ...      0.14153010 Eh     88.81 kcal/mol

In case the symmetry of your molecule has not been determined correctly
or in case you have a reason to use a different symmetry number we print 
out the resulting rotational entropy values for sn=1,12 :
 --------------------------------------------------------
|  sn= 1 | S(rot)=       0.01861109 Eh     11.68 kcal/mol|
|  sn= 2 | S(rot)=       0.01795663 Eh     11.27 kcal/mol|
|  sn= 3 | S(rot)=       0.01757380 Eh     11.03 kcal/mol|
|  sn= 4 | S(rot)=       0.01730218 Eh     10.86 kcal/mol|
|  sn= 5 | S(rot)=       0.01709149 Eh     10.73 kcal/mol|
|  sn= 6 | S(rot)=       0.01691934 Eh     10.62 kcal/mol|
|  sn= 7 | S(rot)=       0.01677380 Eh     10.53 kcal/mol|
|  sn= 8 | S(rot)=       0.01664772 Eh     10.45 kcal/mol|
|  sn= 9 | S(rot)=       0.01653651 Eh     10.38 kcal/mol|
|  sn=10 | S(rot)=       0.01643703 Eh     10.31 kcal/mol|
|  sn=11 | S(rot)=       0.01634704 Eh     10.26 kcal/mol|
|  sn=12 | S(rot)=       0.01626489 Eh     10.21 kcal/mol|
 --------------------------------------------------------


-------------------
GIBBS FREE ENERGY
-------------------

The Gibbs free energy is G = H - T*S

Total enthalpy                    ...  -2379.04027858 Eh 
Total entropy correction          ...     -0.14153010 Eh    -88.81 kcal/mol
-----------------------------------------------------------------------
Final Gibbs free energy         ...  -2379.18180868 Eh

For completeness - the Gibbs free energy minus the electronic energy
G-E(el)                           ...      0.89508190 Eh    561.67 kcal/mol

--------------------------------------------------------------------------
WARNING: No preset parameters were found for the device that Open MPI
detected:

  Local host:            eu-g1-021-2
  Device name:           mlx5_0
  Device vendor ID:      0x02c9
  Device vendor part ID: 4123

Default device parameters will be used, which may result in lower
performance.  You can edit any of the files specified by the
btl_openib_device_param_files MCA parameter to set values for your
device.

NOTE: You can turn off this warning by setting the MCA parameter
      btl_openib_warn_no_device_params_found to 0.
--------------------------------------------------------------------------
--------------------------------------------------------------------------
WARNING: There was an error initializing an OpenFabrics device.

  Local host:   eu-g1-021-2
  Local device: mlx5_0
--------------------------------------------------------------------------

Timings for individual modules:

Sum of individual times         ...    27783.997 sec (= 463.067 min)
GTO integral calculation        ...       12.399 sec (=   0.207 min)   0.0 %
SCF iterations                  ...      358.436 sec (=   5.974 min)   1.3 %
SCF Gradient evaluation         ...       73.440 sec (=   1.224 min)   0.3 %
Geometry relaxation             ...        3.940 sec (=   0.066 min)   0.0 %
Analytical frequency calculation...    27335.782 sec (= 455.596 min)  98.4 %
                             ****ORCA TERMINATED NORMALLY****
TOTAL RUN TIME: 0 days 7 hours 43 minutes 21 seconds 499 msec
