
                                 *****************
                                 * O   R   C   A *
                                 *****************

           --- An Ab Initio, DFT and Semiempirical electronic structure package ---

                  #######################################################
                  #                        -***-                        #
                  #          Department of theory and spectroscopy      #
                  #               Directorship: Frank Neese             #
                  #        Max Planck Institute fuer Kohlenforschung    #
                  #                Kaiser Wilhelm Platz 1               #
                  #                 D-45470 Muelheim/Ruhr               #
                  #                      Germany                        #
                  #                                                     #
                  #                  All rights reserved                #
                  #                        -***-                        #
                  #######################################################


                         Program Version 4.2.0 -  RELEASE  -


 With contributions from (in alphabetic order):
   Daniel Aravena         : Magnetic Suceptibility
   Michael Atanasov       : Ab Initio Ligand Field Theory (pilot matlab implementation)
   Alexander A. Auer      : GIAO ZORA, VPT2
   Ute Becker             : Parallelization
   Giovanni Bistoni       : ED, misc. LED, open-shell LED, HFLED
   Martin Brehm           : Molecular dynamics
   Dmytro Bykov           : SCF Hessian
   Vijay G. Chilkuri      : MRCI spin determinant printing, contributions to CSF-ICE
   Dipayan Datta          : RHF DLPNO-CCSD density
   Achintya Kumar Dutta   : EOM-CC, STEOM-CC
   Dmitry Ganyushin       : Spin-Orbit,Spin-Spin,Magnetic field MRCI
   Miquel Garcia          : C-PCM Hessian, Gaussian charge scheme
   Yang Guo               : DLPNO-NEVPT2, CIM, IAO-localization
   Andreas Hansen         : Spin unrestricted coupled pair/coupled cluster methods
   Benjamin Helmich-Paris : CASSCF linear response (MC-RPA)
   Lee Huntington         : MR-EOM, pCC
   Robert Izsak           : Overlap fitted RIJCOSX, COSX-SCS-MP3, EOM
   Christian Kollmar      : KDIIS, OOCD, Brueckner-CCSD(T), CCSD density
   Simone Kossmann        : Meta GGA functionals, TD-DFT gradient, OOMP2, MP2 Hessian
   Martin Krupicka        : AUTO-CI
   Lucas Lang             : DCDCAS
   Dagmar Lenk            : GEPOL surface, SMD
   Dimitrios Liakos       : Extrapolation schemes; Compound Job, initial MDCI parallelization
   Dimitrios Manganas     : Further ROCIS development; embedding schemes
   Dimitrios Pantazis     : SARC Basis sets
   Taras Petrenko         : DFT Hessian,TD-DFT gradient, ASA, ECA, R-Raman, ABS, FL, XAS/XES, NRVS
   Peter Pinski           : DLPNO-MP2, DLPNO-MP2 Gradient
   Christoph Reimann      : Effective Core Potentials
   Marius Retegan         : Local ZFS, SOC
   Christoph Riplinger    : Optimizer, TS searches, QM/MM, DLPNO-CCSD(T), (RO)-DLPNO pert. Triples
   Tobias Risthaus        : Range-separated hybrids, TD-DFT gradient, RPA, STAB
   Michael Roemelt        : Original ROCIS implementation
   Masaaki Saitow         : Open-shell DLPNO-CCSD energy and density
   Barbara Sandhoefer     : DKH picture change effects
   Avijit Sen             : IP-ROCIS
   Kantharuban Sivalingam : CASSCF convergence, NEVPT2, FIC-MRCI
   Bernardo de Souza      : ESD, SOC TD-DFT
   Georgi Stoychev        : AutoAux, RI-MP2 NMR
   Willem Van den Heuvel  : Paramagnetic NMR
   Boris Wezisla          : Elementary symmetry handling
   Frank Wennmohs         : Technical directorship


 We gratefully acknowledge several colleagues who have allowed us to
 interface, adapt or use parts of their codes:
   Stefan Grimme, W. Hujo, H. Kruse,             : VdW corrections, initial TS optimization,
                  C. Bannwarth                     DFT functionals, gCP, sTDA/sTD-DF
   Ed Valeev, F. Pavosevic, A. Kumar             : LibInt (2-el integral package), F12 methods
   Garnet Chan, S. Sharma, J. Yang, R. Olivares  : DMRG
   Ulf Ekstrom                                   : XCFun DFT Library
   Mihaly Kallay                                 : mrcc  (arbitrary order and MRCC methods)
   Andreas Klamt, Michael Diedenhofen            : otool_cosmo (COSMO solvation model)
   Jiri Pittner, Ondrej Demel                    : Mk-CCSD
   Frank Weinhold                                : gennbo (NPA and NBO analysis)
   Christopher J. Cramer and Donald G. Truhlar   : smd solvation model
   Lars Goerigk                                  : TD-DFT with DH, B97 family of functionals
   V. Asgeirsson, H. Jonsson                     : NEB implementation
   FAccTs GmbH                                   : IRC, NEB, NEB-TS, Multilevel, MM, QM/MM, CI optimization
   S Lehtola, MJT Oliveira, MAL Marques          : LibXC Library


 Your calculation uses the libint2 library for the computation of 2-el integrals
 For citations please refer to: http://libint.valeyev.net

 Your ORCA version has been built with support for libXC version: 4.2.3
 For citations please refer to: https://tddft.org/programs/libxc/

 This ORCA versions uses:
   CBLAS   interface :  Fast vector & matrix operations
   LAPACKE interface :  Fast linear algebra routines
   SCALAPACK package :  Parallel linear algebra routines




***************************************
The coordinates will be read from file: 64.xyz
***************************************


Your calculation utilizes the atom-pairwise dispersion correction
with the Becke-Johnson damping scheme (D3BJ)
Cite in your paper:
S.Grimme, S.Ehrlich, L.Goerigk, J Comput Chem, (2011), 32, 1456–1465 
S.Grimme, J.Antony, S.Ehrlich and H.Krieg, J.Chem.Phys., 132, (2010), 154104 
   

----- Orbital basis set information -----
Your calculation utilizes the basis: def2-TZVP
   F. Weigend and R. Ahlrichs, Phys. Chem. Chem. Phys. 7, 3297 (2005).

----- AuxJ basis set information -----
Your calculation utilizes the auxiliary basis: def2/J
   F. Weigend, Phys. Chem. Chem. Phys. 8, 1057 (2006).

================================================================================
                                        WARNINGS
                       Please study these warnings very carefully!
================================================================================


WARNING: Geometry Optimization
  ===> : Switching off AutoStart
         For restart on a previous wavefunction, please use MOREAD

INFO   : the flag for use of LIBINT has been found!

================================================================================
                                       INPUT FILE
================================================================================
NAME = 64.inp
|  1> !RI BP86 def2-tzvp def2/J D3BJ VeryTightSCF VeryTightOpt Grid5 FinalGrid6 freq
|  2> %maxcore 4000
|  3> %pal nprocs 24
|  4> end
|  5> * xyzfile 0 1 64.xyz 
|  6> 
|  7>                          ****END OF INPUT****
================================================================================

                       *****************************
                       * Geometry Optimization Run *
                       *****************************

Geometry optimization settings:
Update method            Update   .... BFGS
Choice of coordinates    CoordSys .... Z-matrix Internals
Initial Hessian          InHess   .... Almoef's Model

Convergence Tolerances:
Energy Change            TolE     ....  2.0000e-07 Eh
Max. Gradient            TolMAXG  ....  3.0000e-05 Eh/bohr
RMS Gradient             TolRMSG  ....  8.0000e-06 Eh/bohr
Max. Displacement        TolMAXD  ....  2.0000e-04 bohr
RMS Displacement         TolRMSD  ....  1.0000e-04 bohr
Strict Convergence                ....  False
------------------------------------------------------------------------------
                        ORCA OPTIMIZATION COORDINATE SETUP
------------------------------------------------------------------------------

The optimization will be done in new redundant internal coordinates
Making redundant internal coordinates   ...  (new redundants) done
Evaluating the initial hessian          ...  (Almloef) done
Evaluating the coordinates              ...  done
Calculating the B-matrix                .... done
Calculating the G-matrix                .... done
Diagonalizing the G-matrix              .... done
Small eigenvalue found = 2.646e-04
Small eigenvalue found = 1.005e-03
Small eigenvalue found = 1.849e-03
Small eigenvalue found = 2.778e-03
Small eigenvalue found = 3.860e-03
Small eigenvalue found = 4.379e-03
Small eigenvalue found = 5.042e-03
Small eigenvalue found = 6.033e-03
Small eigenvalue found = 8.802e-03
Small eigenvalue found = 9.951e-03
Small eigenvalue found = 1.090e-02
Small eigenvalue found = 1.410e-02
Small eigenvalue found = 1.478e-02
Small eigenvalue found = 1.560e-02
Small eigenvalue found = 1.792e-02
Small eigenvalue found = 1.937e-02
Small eigenvalue found = 2.312e-02
Small eigenvalue found = 2.421e-02
Small eigenvalue found = 2.914e-02
The first mode is                       ....  326
The number of degrees of freedom        ....  339

    -----------------------------------------------------------------
                    Redundant Internal Coordinates


    -----------------------------------------------------------------
         Definition                    Initial Value    Approx d2E/dq
    -----------------------------------------------------------------
      1. B(C   1,O   0)                  1.2282         1.013798   
      2. B(C   2,C   1)                  1.5374         0.363545   
      3. B(C   3,C   2)                  1.5413         0.358432   
      4. B(C   4,C   3)                  1.5358         0.365705   
      5. B(C   5,C   4)                  1.5307         0.372617   
      6. B(N   6,C   5)                  1.4810         0.400553   
      7. B(N   6,C   2)                  1.4735         0.411811   
      8. B(C   7,N   6)                  1.3589         0.627413   
      9. B(O   8,C   7)                  1.2411         0.967004   
     10. B(N   9,C   1)                  1.3622         0.619665   
     11. B(C  10,N   9)                  1.4494         0.449908   
     12. B(C  11,C  10)                  1.5427         0.356608   
     13. B(N  12,C  11)                  1.3475         0.654146   
     14. B(C  13,N  12)                  1.4731         0.412393   
     15. B(C  14,C  13)                  1.5418         0.357677   
     16. B(N  15,C  14)                  1.3577         0.629999   
     17. B(C  16,N  15)                  1.4474         0.453224   
     18. B(C  17,C  16)                  1.5421         0.357325   
     19. B(C  18,C  17)                  1.5579         0.337203   
     20. B(C  19,C  18)                  1.5394         0.360860   
     21. B(N  20,C  19)                  1.3664         0.610208   
     22. B(C  21,N  20)                  1.4556         0.439732   
     23. B(C  22,C  21)                  1.5447         0.353920   
     24. B(N  23,C  22)                  1.3602         0.624241   
     25. B(C  24,N  23)                  1.4632         0.427593   
     26. B(C  24,C   7)                  1.5383         0.362312   
     27. B(C  25,C  24)                  1.5275         0.377034   
     28. B(O  26,C  22)                  1.2351         0.988580   
     29. B(C  27,C  21)                  1.5421         0.357366   
     30. B(C  28,C  27)                  1.5384         0.362196   
     31. B(C  29,C  28)                  1.5330         0.369537   
     32. B(C  30,C  28)                  1.5317         0.371314   
     33. B(O  31,C  19)                  1.2304         1.005725   
     34. B(C  32,C  18)                  1.5367         0.364473   
     35. B(C  33,C  32)                  1.4991         0.418427   
     36. B(C  34,C  33)                  1.5471         0.350778   
     37. B(C  35,C  34)                  1.5298         0.373814   
     38. B(C  36,C  35)                  1.5303         0.373105   
     39. B(C  37,C  36)                  1.5304         0.373025   
     40. B(C  38,C  37)                  1.5304         0.373042   
     41. B(C  39,C  38)                  1.5301         0.373370   
     42. B(C  40,C  39)                  1.5310         0.372155   
     43. B(C  41,C  40)                  1.5298         0.373809   
     44. B(O  42,C  32)                  1.2289         1.011243   
     45. B(O  43,C  17)                  1.4263         0.489741   
     46. B(O  44,C  14)                  1.2333         0.995168   
     47. B(C  45,C  13)                  1.5410         0.358776   
     48. B(C  46,C  45)                  1.5284         0.375841   
     49. B(O  47,C  11)                  1.2463         0.948719   
     50. B(C  48,C  10)                  1.5504         0.346566   
     51. B(C  49,C  48)                  1.5312         0.371997   
     52. B(C  50,C  48)                  1.5308         0.372525   
     53. B(H  51,C   2)                  1.0985         0.349058   
     54. B(H  52,C   3)                  1.0997         0.347486   
     55. B(H  53,C   3)                  1.0961         0.352150   
     56. B(H  54,C   4)                  1.1004         0.346597   
     57. B(H  55,C   4)                  1.0969         0.351059   
     58. B(H  56,C   5)                  1.0978         0.349948   
     59. B(H  57,C   5)                  1.1034         0.342845   
     60. B(H  58,N   9)                  1.0163         0.422739   
     61. B(H  59,C  10)                  1.1018         0.344772   
     62. B(H  60,N  12)                  1.0254         0.408933   
     63. B(H  61,C  13)                  1.0981         0.349588   
     64. B(H  62,N  15)                  1.0309         0.400711   
     65. B(H  63,C  16)                  1.0996         0.347665   
     66. B(H  64,C  16)                  1.0980         0.349613   
     67. B(H  65,C  17)                  1.1058         0.339783   
     68. B(H  66,C  18)                  1.0977         0.350018   
     69. B(H  67,H  58)                  3.6837         0.000005   
     70. B(H  67,N  20)                  1.0169         0.421946   
     71. B(H  68,C  21)                  1.1029         0.343442   
     72. B(H  69,N  23)                  1.0281         0.404810   
     73. B(H  70,C  24)                  1.0970         0.350934   
     74. B(H  71,C  25)                  1.0979         0.349846   
     75. B(H  72,C  25)                  1.0986         0.348906   
     76. B(H  73,H  60)                  3.9816         0.000002   
     77. B(H  73,C  25)                  1.0973         0.350512   
     78. B(H  74,C  27)                  1.1001         0.347040   
     79. B(H  75,C  27)                  1.1021         0.344449   
     80. B(H  76,C  28)                  1.1020         0.344592   
     81. B(H  77,C  29)                  1.0997         0.347488   
     82. B(H  78,C  29)                  1.1020         0.344556   
     83. B(H  79,C  29)                  1.0995         0.347748   
     84. B(H  80,C  30)                  1.0999         0.347184   
     85. B(H  81,C  30)                  1.0996         0.347569   
     86. B(H  82,C  30)                  1.1023         0.344212   
     87. B(H  83,C  33)                  1.1000         0.347067   
     88. B(H  84,C  33)                  1.0962         0.351993   
     89. B(H  85,H  73)                  3.1584         0.000035   
     90. B(H  85,C  34)                  1.1024         0.344107   
     91. B(H  86,C  34)                  1.1024         0.344080   
     92. B(H  87,C  35)                  1.1036         0.342500   
     93. B(H  88,C  35)                  1.1034         0.342780   
     94. B(H  89,C  36)                  1.1042         0.341826   
     95. B(H  90,C  36)                  1.1039         0.342198   
     96. B(H  91,C  37)                  1.1042         0.341785   
     97. B(H  92,C  37)                  1.1042         0.341768   
     98. B(H  93,C  38)                  1.1044         0.341553   
     99. B(H  94,C  38)                  1.1043         0.341677   
    100. B(H  95,C  39)                  1.1045         0.341402   
    101. B(H  96,C  39)                  1.1045         0.341380   
    102. B(H  97,C  40)                  1.1034         0.342759   
    103. B(H  98,C  40)                  1.1034         0.342814   
    104. B(H  99,C  41)                  1.0994         0.347830   
    105. B(H 100,C  41)                  1.1007         0.346174   
    106. B(H 101,C  41)                  1.1007         0.346193   
    107. B(H 102,O  43)                  0.9743         0.493348   
    108. B(H 103,C  45)                  1.1005         0.346412   
    109. B(H 104,C  45)                  1.0990         0.348437   
    110. B(H 105,C  46)                  1.0988         0.348689   
    111. B(H 106,C  46)                  1.1005         0.346458   
    112. B(H 107,C  46)                  1.0990         0.348333   
    113. B(H 108,C  48)                  1.1034         0.342795   
    114. B(H 109,H  69)                  3.1825         0.000032   
    115. B(H 109,C  49)                  1.1017         0.345009   
    116. B(H 110,H  65)                  2.1680         0.001314   
    117. B(H 110,C  49)                  1.1008         0.346053   
    118. B(H 111,C  49)                  1.0978         0.349875   
    119. B(H 112,C  50)                  1.0994         0.347871   
    120. B(H 113,C  50)                  1.1000         0.347116   
    121. B(H 114,C  50)                  1.0960         0.352285   
    122. A(O   0,C   1,N   9)          123.9443         0.468323   
    123. A(C   2,C   1,N   9)          115.6632         0.392241   
    124. A(O   0,C   1,C   2)          120.3831         0.427983   
    125. A(C   1,C   2,H  51)          104.9784         0.321231   
    126. A(N   6,C   2,H  51)          109.9495         0.325911   
    127. A(C   1,C   2,N   6)          114.2746         0.365454   
    128. A(C   1,C   2,C   3)          111.7981         0.359125   
    129. A(C   3,C   2,H  51)          112.6485         0.320488   
    130. A(C   3,C   2,N   6)          103.4137         0.364569   
    131. A(C   4,C   3,H  53)          114.2119         0.322007   
    132. A(C   4,C   3,H  52)          110.3225         0.321305   
    133. A(C   2,C   3,C   4)          103.4044         0.359487   
    134. A(C   2,C   3,H  53)          111.3220         0.320950   
    135. A(C   2,C   3,H  52)          109.5179         0.320251   
    136. A(H  52,C   3,H  53)          107.9802         0.288208   
    137. A(H  54,C   4,H  55)          107.9111         0.287953   
    138. A(C   3,C   4,H  55)          113.2734         0.321844   
    139. A(C   3,C   4,C   5)          103.1999         0.361874   
    140. A(C   3,C   4,H  54)          110.3160         0.321170   
    141. A(C   5,C   4,H  55)          112.1684         0.322833   
    142. A(C   5,C   4,H  54)          109.9318         0.322156   
    143. A(H  56,C   5,H  57)          108.4314         0.287321   
    144. A(C   4,C   5,N   6)          102.5130         0.365262   
    145. A(C   4,C   5,H  56)          114.0784         0.322665   
    146. A(N   6,C   5,H  57)          109.9048         0.323475   
    147. A(N   6,C   5,H  56)          111.0807         0.324565   
    148. A(C   4,C   5,H  57)          110.7229         0.321583   
    149. A(C   5,N   6,C   7)          127.7773         0.397284   
    150. A(C   2,N   6,C   7)          119.7616         0.399224   
    151. A(C   2,N   6,C   5)          112.3352         0.369261   
    152. A(O   8,C   7,C  24)          121.0050         0.424119   
    153. A(N   6,C   7,O   8)          121.3463         0.465344   
    154. A(N   6,C   7,C  24)          117.5724         0.392861   
    155. A(C   1,N   9,C  10)          122.9670         0.404610   
    156. A(C  10,N   9,H  58)          118.9552         0.338470   
    157. A(C   1,N   9,H  58)          117.6325         0.357217   
    158. A(C  48,C  10,H  59)          109.2819         0.318089   
    159. A(C  11,C  10,H  59)          104.9472         0.319575   
    160. A(N   9,C  10,C  11)          113.3208         0.369819   
    161. A(N   9,C  10,C  48)          109.6594         0.368009   
    162. A(N   9,C  10,H  59)          106.0622         0.330029   
    163. A(C  11,C  10,C  48)          113.1594         0.355908   
    164. A(N  12,C  11,O  47)          123.4437         0.467277   
    165. A(C  10,C  11,O  47)          119.0190         0.421478   
    166. A(C  10,C  11,N  12)          117.5356         0.394645   
    167. A(C  13,N  12,H  60)          114.8850         0.331770   
    168. A(C  11,N  12,C  13)          125.4003         0.402267   
    169. A(C  11,N  12,H  60)          119.1622         0.358492   
    170. A(C  14,C  13,C  45)          111.1776         0.358190   
    171. A(N  12,C  13,H  61)          104.5778         0.326068   
    172. A(C  14,C  13,H  61)          103.5253         0.320457   
    173. A(N  12,C  13,C  14)          115.3775         0.364525   
    174. A(C  45,C  13,H  61)          108.5387         0.320617   
    175. A(N  12,C  13,C  45)          112.7710         0.364717   
    176. A(C  13,C  14,N  15)          115.8015         0.392259   
    177. A(N  15,C  14,O  44)          124.0395         0.468150   
    178. A(C  13,C  14,O  44)          120.1552         0.425322   
    179. A(C  14,N  15,H  62)          116.3617         0.354982   
    180. A(C  16,N  15,H  62)          120.1279         0.335876   
    181. A(C  14,N  15,C  16)          123.5104         0.406321   
    182. A(H  63,C  16,H  64)          108.2089         0.287905   
    183. A(C  17,C  16,H  64)          112.1608         0.320409   
    184. A(N  15,C  16,H  63)          110.2908         0.330886   
    185. A(C  17,C  16,H  63)          107.0054         0.320116   
    186. A(N  15,C  16,C  17)          110.5161         0.370414   
    187. A(N  15,C  16,H  64)          108.6268         0.331193   
    188. A(O  43,C  17,H  65)          109.8642         0.333892   
    189. A(C  18,C  17,H  65)          108.9576         0.315923   
    190. A(C  16,C  17,H  65)          106.1558         0.318920   
    191. A(C  16,C  17,C  18)          115.6928         0.354379   
    192. A(C  18,C  17,O  43)          109.1643         0.371660   
    193. A(C  16,C  17,O  43)          106.8867         0.375393   
    194. A(C  19,C  18,H  66)          106.5924         0.320986   
    195. A(C  17,C  18,H  66)          106.5597         0.317453   
    196. A(C  17,C  18,C  32)          115.2874         0.355571   
    197. A(C  17,C  18,C  19)          112.8285         0.354971   
    198. A(C  19,C  18,C  32)          106.5801         0.359694   
    199. A(C  32,C  18,H  66)          108.6184         0.321509   
    200. A(C  18,C  19,N  20)          114.3497         0.390681   
    201. A(N  20,C  19,O  31)          123.7073         0.466321   
    202. A(C  18,C  19,O  31)          121.8542         0.426803   
    203. A(C  19,N  20,H  67)          117.5062         0.356171   
    204. A(C  19,N  20,C  21)          122.8049         0.401889   
    205. A(C  21,N  20,H  67)          118.0702         0.337076   
    206. A(C  27,C  21,H  68)          108.7762         0.319484   
    207. A(C  22,C  21,H  68)          105.7181         0.318979   
    208. A(N  20,C  21,H  68)          104.4233         0.328574   
    209. A(N  20,C  21,C  22)          112.1103         0.367890   
    210. A(C  22,C  21,C  27)          111.4420         0.357308   
    211. A(N  20,C  21,C  27)          113.7502         0.368503   
    212. A(C  21,C  22,N  23)          115.9120         0.390907   
    213. A(C  21,C  22,O  26)          120.5057         0.424015   
    214. A(N  23,C  22,O  26)          123.5627         0.466795   
    215. A(C  22,N  23,C  24)          123.0161         0.401517   
    216. A(C  24,N  23,H  69)          116.0927         0.333206   
    217. A(C  22,N  23,H  69)          120.4790         0.355042   
    218. A(C  25,C  24,H  70)          110.9498         0.323438   
    219. A(N  23,C  24,H  70)          106.2058         0.328226   
    220. A(C   7,C  24,H  70)          110.8269         0.321334   
    221. A(N  23,C  24,C  25)          110.3163         0.370125   
    222. A(C   7,C  24,N  23)          108.2466         0.367602   
    223. A(C   7,C  24,C  25)          110.1896         0.362026   
    224. A(H  71,C  25,H  73)          109.5848         0.288303   
    225. A(C  24,C  25,H  73)          109.9815         0.323374   
    226. A(H  71,C  25,H  72)          108.7514         0.288096   
    227. A(C  24,C  25,H  72)          110.5025         0.323131   
    228. A(C  24,C  25,H  71)          109.7140         0.323273   
    229. A(H  72,C  25,H  73)          108.2766         0.288182   
    230. A(C  28,C  27,H  75)          109.1146         0.320339   
    231. A(C  21,C  27,C  28)          113.9157         0.358716   
    232. A(H  74,C  27,H  75)          107.2731         0.287156   
    233. A(C  21,C  27,H  75)          107.7645         0.319637   
    234. A(C  28,C  27,H  74)          109.2653         0.320731   
    235. A(C  21,C  27,H  74)          109.2928         0.320028   
    236. A(C  29,C  28,C  30)          110.8601         0.362302   
    237. A(C  27,C  28,C  30)          110.0366         0.361063   
    238. A(C  27,C  28,C  29)          111.3659         0.360768   
    239. A(C  30,C  28,H  76)          108.1515         0.321666   
    240. A(C  29,C  28,H  76)          109.0982         0.321413   
    241. A(C  27,C  28,H  76)          107.2002         0.320360   
    242. A(C  28,C  29,H  79)          110.9138         0.321893   
    243. A(H  78,C  29,H  79)          107.7345         0.287261   
    244. A(H  77,C  29,H  79)          107.5926         0.287642   
    245. A(H  77,C  29,H  78)          107.3136         0.287228   
    246. A(C  28,C  29,H  78)          110.5009         0.321408   
    247. A(C  28,C  29,H  77)          112.5798         0.321854   
    248. A(H  81,C  30,H  82)          107.5551         0.287193   
    249. A(H  80,C  30,H  82)          107.9227         0.287144   
    250. A(C  28,C  30,H  82)          110.8715         0.321608   
    251. A(H  80,C  30,H  81)          107.9446         0.287579   
    252. A(C  28,C  30,H  81)          111.1841         0.322119   
    253. A(C  28,C  30,H  80)          111.2064         0.322061   
    254. A(C  33,C  32,O  42)          121.9481         0.438744   
    255. A(C  18,C  32,O  42)          120.9267         0.427985   
    256. A(C  18,C  32,C  33)          116.7912         0.368916   
    257. A(C  32,C  33,C  34)          108.4932         0.366500   
    258. A(C  34,C  33,H  84)          111.2175         0.319796   
    259. A(H  83,C  33,H  84)          108.5747         0.288133   
    260. A(C  32,C  33,H  84)          108.5760         0.329195   
    261. A(C  34,C  33,H  83)          109.8101         0.319061   
    262. A(C  32,C  33,H  83)          110.1586         0.328430   
    263. A(C  33,C  34,C  35)          112.1749         0.359509   
    264. A(H  85,C  34,H  86)          106.2165         0.286728   
    265. A(C  35,C  34,H  86)          109.7164         0.321941   
    266. A(C  33,C  34,H  86)          110.2094         0.318612   
    267. A(C  35,C  34,H  85)          109.7813         0.321945   
    268. A(C  33,C  34,H  85)          108.5597         0.318616   
    269. A(C  34,C  35,C  36)          112.6908         0.363313   
    270. A(H  87,C  35,H  88)          106.1085         0.286349   
    271. A(C  36,C  35,H  88)          109.6291         0.321642   
    272. A(C  34,C  35,H  88)          109.4310         0.321742   
    273. A(C  36,C  35,H  87)          109.5007         0.321599   
    274. A(C  34,C  35,H  87)          109.2661         0.321699   
    275. A(C  35,C  36,C  37)          113.3920         0.363182   
    276. A(H  89,C  36,H  90)          105.9369         0.286185   
    277. A(C  37,C  36,H  90)          109.3854         0.321541   
    278. A(C  35,C  36,H  90)          109.2799         0.321552   
    279. A(C  37,C  36,H  89)          109.2986         0.321484   
    280. A(C  35,C  36,H  89)          109.2780         0.321495   
    281. A(C  36,C  37,C  38)          113.3631         0.363172   
    282. A(H  91,C  37,H  92)          105.9287         0.286124   
    283. A(C  38,C  37,H  92)          109.3396         0.321477   
    284. A(C  36,C  37,H  92)          109.3410         0.321475   
    285. A(C  38,C  37,H  91)          109.3043         0.321480   
    286. A(C  36,C  37,H  91)          109.2954         0.321477   
    287. A(C  37,C  38,C  39)          113.5481         0.363229   
    288. A(H  93,C  38,H  94)          105.8942         0.286082   
    289. A(C  39,C  38,H  94)          109.2996         0.321509   
    290. A(C  37,C  38,H  94)          109.2520         0.321463   
    291. A(C  39,C  38,H  93)          109.2882         0.321490   
    292. A(C  37,C  38,H  93)          109.2750         0.321444   
    293. A(C  38,C  39,C  40)          113.5497         0.363081   
    294. A(H  95,C  39,H  96)          105.8682         0.286023   
    295. A(C  40,C  39,H  96)          109.2497         0.321292   
    296. A(C  38,C  39,H  96)          109.3332         0.321464   
    297. A(C  40,C  39,H  95)          109.2390         0.321296   
    298. A(C  38,C  39,H  95)          109.3153         0.321467   
    299. A(C  39,C  40,C  41)          113.1330         0.363154   
    300. A(H  97,C  40,H  98)          105.9375         0.286387   
    301. A(C  41,C  40,H  98)          109.6399         0.321746   
    302. A(C  39,C  40,H  98)          109.1136         0.321513   
    303. A(C  41,C  40,H  97)          109.6371         0.321738   
    304. A(C  39,C  40,H  97)          109.1247         0.321504   
    305. A(H 100,C  41,H 101)          107.4412         0.287270   
    306. A(H  99,C  41,H 101)          107.6877         0.287484   
    307. A(C  40,C  41,H 101)          111.0864         0.322263   
    308. A(H  99,C  41,H 100)          107.6904         0.287482   
    309. A(C  40,C  41,H 100)          111.0929         0.322261   
    310. A(C  40,C  41,H  99)          111.6502         0.322513   
    311. A(C  17,O  43,H 102)          108.6152         0.352354   
    312. A(C  13,C  45,C  46)          112.6295         0.361225   
    313. A(C  46,C  45,H 104)          110.5192         0.322892   
    314. A(C  13,C  45,H 104)          109.1401         0.320445   
    315. A(C  46,C  45,H 103)          110.5455         0.322583   
    316. A(C  13,C  45,H 103)          106.5107         0.320139   
    317. A(H 103,C  45,H 104)          107.2804         0.287591   
    318. A(H 106,C  46,H 107)          107.5690         0.287584   
    319. A(H 105,C  46,H 107)          107.6647         0.287873   
    320. A(C  45,C  46,H 107)          111.7361         0.322876   
    321. A(H 105,C  46,H 106)          107.9017         0.287630   
    322. A(C  45,C  46,H 106)          111.1433         0.322590   
    323. A(C  45,C  46,H 105)          110.6548         0.322930   
    324. A(C  50,C  48,H 108)          107.7944         0.321562   
    325. A(C  49,C  48,H 108)          107.9966         0.321487   
    326. A(C  10,C  48,H 108)          104.3785         0.317791   
    327. A(C  49,C  48,C  50)          111.5909         0.362914   
    328. A(C  10,C  48,C  50)          113.4248         0.358559   
    329. A(C  10,C  48,C  49)          111.2001         0.358473   
    330. A(H 110,C  49,H 111)          107.6951         0.287730   
    331. A(H 109,C  49,H 111)          107.0105         0.287594   
    332. A(C  48,C  49,H 111)          111.2723         0.322566   
    333. A(H 109,C  49,H 110)          108.5570         0.287101   
    334. A(C  48,C  49,H 110)          110.2950         0.321986   
    335. A(C  48,C  49,H 109)          111.8474         0.321827   
    336. A(H 113,C  50,H 114)          109.0275         0.288177   
    337. A(H 112,C  50,H 114)          107.7973         0.288275   
    338. A(C  48,C  50,H 114)          111.1117         0.323004   
    339. A(H 112,C  50,H 113)          107.9830         0.287610   
    340. A(C  48,C  50,H 113)          109.9275         0.322222   
    341. A(C  48,C  50,H 112)          110.9042         0.322337   
    342. D(H  51,C   2,C   1,N   9)   -132.5713         0.009923   
    343. D(C   3,C   2,C   1,N   9)    104.9954         0.009923   
    344. D(N   6,C   2,C   1,N   9)    -12.0335         0.009923   
    345. D(N   6,C   2,C   1,O   0)    169.0373         0.009923   
    346. D(C   3,C   2,C   1,O   0)    -73.9337         0.009923   
    347. D(H  51,C   2,C   1,O   0)     48.4996         0.009923   
    348. D(C   4,C   3,C   2,N   6)     28.0058         0.010314   
    349. D(H  53,C   3,C   2,H  51)    -90.2709         0.010314   
    350. D(H  53,C   3,C   2,C   1)     27.6655         0.010314   
    351. D(C   4,C   3,C   2,H  51)    146.6637         0.010314   
    352. D(H  53,C   3,C   2,N   6)    151.0713         0.010314   
    353. D(H  52,C   3,C   2,H  51)     29.0652         0.010314   
    354. D(C   4,C   3,C   2,C   1)    -95.4000         0.010314   
    355. D(H  52,C   3,C   2,C   1)    147.0016         0.010314   
    356. D(H  52,C   3,C   2,N   6)    -89.5926         0.010314   
    357. D(H  55,C   4,C   3,H  53)     78.3934         0.010707   
    358. D(H  55,C   4,C   3,H  52)    -43.4410         0.010707   
    359. D(H  54,C   4,C   3,H  52)   -164.5208         0.010707   
    360. D(H  55,C   4,C   3,C   2)   -160.4750         0.010707   
    361. D(H  54,C   4,C   3,H  53)    -42.6864         0.010707   
    362. D(C   5,C   4,C   3,C   2)    -38.9559         0.010707   
    363. D(H  54,C   4,C   3,C   2)     78.4452         0.010707   
    364. D(C   5,C   4,C   3,H  53)   -160.0875         0.010707   
    365. D(C   5,C   4,C   3,H  52)     78.0781         0.010707   
    366. D(N   6,C   5,C   4,C   3)     34.2040         0.011090   
    367. D(H  57,C   5,C   4,C   3)    -82.9786         0.011090   
    368. D(H  56,C   5,C   4,H  55)    -83.3530         0.011090   
    369. D(H  56,C   5,C   4,C   3)    154.3842         0.011090   
    370. D(H  57,C   5,C   4,H  54)    159.3504         0.011090   
    371. D(H  56,C   5,C   4,H  54)     36.7132         0.011090   
    372. D(H  57,C   5,C   4,H  55)     39.2842         0.011090   
    373. D(N   6,C   5,C   4,H  54)    -83.4670         0.011090   
    374. D(N   6,C   5,C   4,H  55)    156.4668         0.011090   
    375. D(C   5,N   6,C   2,C   3)     -6.7103         0.014466   
    376. D(C   7,N   6,C   5,H  57)    -75.4321         0.013698   
    377. D(C   7,N   6,C   5,H  56)     44.5648         0.013698   
    378. D(C   7,N   6,C   5,C   4)    166.8029         0.013698   
    379. D(C   2,N   6,C   5,H  57)    100.4282         0.013698   
    380. D(C   2,N   6,C   5,H  56)   -139.5749         0.013698   
    381. D(C   7,N   6,C   2,H  51)     49.0096         0.014466   
    382. D(C   2,N   6,C   5,C   4)    -17.3368         0.013698   
    383. D(C   7,N   6,C   2,C   3)    169.5211         0.014466   
    384. D(C   5,N   6,C   2,C   1)    115.0476         0.014466   
    385. D(C   7,N   6,C   2,C   1)    -68.7210         0.014466   
    386. D(C   5,N   6,C   2,H  51)   -127.2217         0.014466   
    387. D(C  24,C   7,N   6,C   5)     -3.1181         0.031936   
    388. D(C  24,C   7,N   6,C   2)   -178.7066         0.031936   
    389. D(O   8,C   7,N   6,C   5)   -179.9714         0.031936   
    390. D(O   8,C   7,N   6,C   2)      4.4401         0.031936   
    391. D(H  58,N   9,C   1,O   0)   -177.7020         0.031090   
    392. D(C  10,N   9,C   1,C   2)    175.6632         0.031090   
    393. D(H  58,N   9,C   1,C   2)      3.4116         0.031090   
    394. D(C  10,N   9,C   1,O   0)     -5.4504         0.031090   
    395. D(H  59,C  10,N   9,C   1)     22.9610         0.017268   
    396. D(C  48,C  10,N   9,H  58)    -46.9958         0.017268   
    397. D(C  48,C  10,N   9,C   1)    140.8501         0.017268   
    398. D(C  11,C  10,N   9,C   1)    -91.6470         0.017268   
    399. D(H  59,C  10,N   9,H  58)   -164.8849         0.017268   
    400. D(C  11,C  10,N   9,H  58)     80.5071         0.017268   
    401. D(O  47,C  11,C  10,N   9)   -176.4792         0.009578   
    402. D(N  12,C  11,C  10,H  59)   -111.2974         0.009578   
    403. D(N  12,C  11,C  10,C  48)    129.6290         0.009578   
    404. D(N  12,C  11,C  10,N   9)      3.9758         0.009578   
    405. D(O  47,C  11,C  10,H  59)     68.2476         0.009578   
    406. D(O  47,C  11,C  10,C  48)    -50.8260         0.009578   
    407. D(H  60,N  12,C  11,O  47)    176.3799         0.034960   
    408. D(H  60,N  12,C  11,C  10)     -4.0969         0.034960   
    409. D(C  13,N  12,C  11,O  47)    -12.6021         0.034960   
    410. D(C  13,N  12,C  11,C  10)    166.9210         0.034960   
    411. D(H  61,C  13,N  12,C  11)   -172.0265         0.014506   
    412. D(H  61,C  13,N  12,H  60)     -0.6702         0.014506   
    413. D(C  45,C  13,N  12,H  60)    117.0697         0.014506   
    414. D(C  45,C  13,N  12,C  11)    -54.2865         0.014506   
    415. D(C  14,C  13,N  12,C  11)     74.9675         0.014506   
    416. D(C  14,C  13,N  12,H  60)   -113.6762         0.014506   
    417. D(O  44,C  14,C  13,C  45)    -87.1445         0.009630   
    418. D(O  44,C  14,C  13,N  12)    142.8254         0.009630   
    419. D(N  15,C  14,C  13,H  61)   -150.1153         0.009630   
    420. D(N  15,C  14,C  13,C  45)     93.5322         0.009630   
    421. D(O  44,C  14,C  13,H  61)     29.2080         0.009630   
    422. D(N  15,C  14,C  13,N  12)    -36.4979         0.009630   
    423. D(H  62,N  15,C  14,O  44)    168.3622         0.032221   
    424. D(H  62,N  15,C  14,C  13)    -12.3440         0.032221   
    425. D(C  16,N  15,C  14,O  44)    -11.6979         0.032221   
    426. D(C  16,N  15,C  14,C  13)    167.5959         0.032221   
    427. D(H  64,C  16,N  15,H  62)   -162.9354         0.017526   
    428. D(H  64,C  16,N  15,C  14)     17.1268         0.017526   
    429. D(H  63,C  16,N  15,H  62)    -44.4984         0.017526   
    430. D(H  63,C  16,N  15,C  14)    135.5638         0.017526   
    431. D(C  17,C  16,N  15,C  14)   -106.3187         0.017526   
    432. D(C  17,C  16,N  15,H  62)     73.6191         0.017526   
    433. D(H  65,C  17,C  16,H  64)   -154.5029         0.010255   
    434. D(H  65,C  17,C  16,H  63)     86.9815         0.010255   
    435. D(H  65,C  17,C  16,N  15)    -33.1273         0.010255   
    436. D(O  43,C  17,C  16,H  64)     88.2619         0.010255   
    437. D(O  43,C  17,C  16,H  63)    -30.2537         0.010255   
    438. D(O  43,C  17,C  16,N  15)   -150.3625         0.010255   
    439. D(C  18,C  17,C  16,H  64)    -33.5250         0.010255   
    440. D(C  18,C  17,C  16,H  63)   -152.0406         0.010255   
    441. D(C  18,C  17,C  16,N  15)     87.8505         0.010255   
    442. D(H  66,C  18,C  17,H  65)   -160.2477         0.009221   
    443. D(H  66,C  18,C  17,O  43)    -40.2651         0.009221   
    444. D(H  66,C  18,C  17,C  16)     80.2967         0.009221   
    445. D(C  32,C  18,C  17,O  43)   -160.8525         0.009221   
    446. D(C  32,C  18,C  17,C  16)    -40.2908         0.009221   
    447. D(C  32,C  18,C  17,H  65)     79.1648         0.009221   
    448. D(C  19,C  18,C  17,H  65)    -43.6064         0.009221   
    449. D(C  19,C  18,C  17,O  43)     76.3762         0.009221   
    450. D(C  19,C  18,C  17,C  16)   -163.0620         0.009221   
    451. D(O  31,C  19,C  18,H  66)    -13.0601         0.009788   
    452. D(O  31,C  19,C  18,C  32)    102.8081         0.009788   
    453. D(O  31,C  19,C  18,C  17)   -129.6820         0.009788   
    454. D(N  20,C  19,C  18,H  66)    170.2453         0.009788   
    455. D(N  20,C  19,C  18,C  17)     53.6235         0.009788   
    456. D(N  20,C  19,C  18,C  32)    -73.8864         0.009788   
    457. D(H  67,N  20,C  19,O  31)   -177.5923         0.030078   
    458. D(H  67,N  20,C  19,C  18)     -0.9674         0.030078   
    459. D(C  21,N  20,C  19,O  31)    -12.3936         0.030078   
    460. D(C  21,N  20,C  19,C  18)    164.2313         0.030078   
    461. D(H  68,C  21,N  20,H  67)    163.3548         0.016488   
    462. D(H  68,C  21,N  20,C  19)     -1.7652         0.016488   
    463. D(C  27,C  21,N  20,H  67)    -78.2034         0.016488   
    464. D(C  27,C  21,N  20,C  19)    116.6767         0.016488   
    465. D(C  22,C  21,N  20,H  67)     49.3752         0.016488   
    466. D(C  22,C  21,N  20,C  19)   -115.7448         0.016488   
    467. D(N  23,C  22,C  21,C  27)    145.1099         0.009446   
    468. D(N  23,C  22,C  21,N  20)     16.3100         0.009446   
    469. D(O  26,C  22,C  21,H  68)     81.5749         0.009446   
    470. D(O  26,C  22,C  21,C  27)    -36.4444         0.009446   
    471. D(O  26,C  22,C  21,N  20)   -165.2442         0.009446   
    472. D(N  23,C  22,C  21,H  68)    -96.8708         0.009446   
    473. D(H  69,N  23,C  22,O  26)    178.0110         0.031588   
    474. D(H  69,N  23,C  22,C  21)     -3.5960         0.031588   
    475. D(C  24,N  23,C  22,O  26)     -9.6498         0.031588   
    476. D(C  24,N  23,C  22,C  21)    168.7432         0.031588   
    477. D(H  70,C  24,N  23,H  69)    166.8945         0.015588   
    478. D(H  70,C  24,N  23,C  22)     -5.7558         0.015588   
    479. D(C  25,C  24,N  23,H  69)     46.5866         0.015588   
    480. D(C  25,C  24,N  23,C  22)   -126.0638         0.015588   
    481. D(C   7,C  24,N  23,H  69)    -74.0485         0.015588   
    482. D(C   7,C  24,N  23,C  22)    113.3012         0.015588   
    483. D(H  70,C  24,C   7,O   8)   -164.7280         0.009861   
    484. D(H  70,C  24,C   7,N   6)     18.4074         0.009861   
    485. D(C  25,C  24,C   7,O   8)    -41.5342         0.009861   
    486. D(C  25,C  24,C   7,N   6)    141.6011         0.009861   
    487. D(N  23,C  24,C   7,O   8)     79.1796         0.009861   
    488. D(N  23,C  24,C   7,N   6)    -97.6851         0.009861   
    489. D(H  73,C  25,C  24,H  70)   -178.8060         0.011339   
    490. D(H  73,C  25,C  24,N  23)    -61.3921         0.011339   
    491. D(H  73,C  25,C  24,C   7)     58.0721         0.011339   
    492. D(H  72,C  25,C  24,H  70)     61.7073         0.011339   
    493. D(H  72,C  25,C  24,N  23)    179.1211         0.011339   
    494. D(H  72,C  25,C  24,C   7)    -61.4147         0.011339   
    495. D(H  71,C  25,C  24,H  70)    -58.1976         0.011339   
    496. D(H  71,C  25,C  24,N  23)     59.2163         0.011339   
    497. D(H  71,C  25,C  24,C   7)    178.6804         0.011339   
    498. D(H  75,C  27,C  21,H  68)     92.4284         0.010257   
    499. D(H  75,C  27,C  21,C  22)   -151.4086         0.010257   
    500. D(H  75,C  27,C  21,N  20)    -23.4853         0.010257   
    501. D(H  74,C  27,C  21,H  68)   -151.3084         0.010257   
    502. D(H  74,C  27,C  21,C  22)    -35.1454         0.010257   
    503. D(H  74,C  27,C  21,N  20)     92.7779         0.010257   
    504. D(C  28,C  27,C  21,H  68)    -28.7850         0.010257   
    505. D(C  28,C  27,C  21,C  22)     87.3780         0.010257   
    506. D(C  28,C  27,C  21,N  20)   -144.6987         0.010257   
    507. D(H  76,C  28,C  27,H  75)   -169.4943         0.010516   
    508. D(H  76,C  28,C  27,H  74)     73.5036         0.010516   
    509. D(H  76,C  28,C  27,C  21)    -49.0349         0.010516   
    510. D(C  30,C  28,C  27,H  75)     73.1174         0.010516   
    511. D(C  30,C  28,C  27,H  74)    -43.8847         0.010516   
    512. D(C  30,C  28,C  27,C  21)   -166.4232         0.010516   
    513. D(C  29,C  28,C  27,H  75)    -50.2270         0.010516   
    514. D(C  29,C  28,C  27,H  74)   -167.2292         0.010516   
    515. D(C  29,C  28,C  27,C  21)     70.2323         0.010516   
    516. D(H  79,C  29,C  28,C  30)     61.4562         0.010918   
    517. D(H  79,C  29,C  28,C  27)   -175.6702         0.010918   
    518. D(H  78,C  29,C  28,H  76)   -176.9471         0.010918   
    519. D(H  78,C  29,C  28,C  30)    -57.9515         0.010918   
    520. D(H  78,C  29,C  28,C  27)     64.9221         0.010918   
    521. D(H  77,C  29,C  28,H  76)     63.0802         0.010918   
    522. D(H  77,C  29,C  28,C  30)   -177.9242         0.010918   
    523. D(H  79,C  29,C  28,H  76)    -57.5394         0.010918   
    524. D(H  77,C  29,C  28,C  27)    -55.0506         0.010918   
    525. D(H  82,C  30,C  28,H  76)   -177.1071         0.011017   
    526. D(H  82,C  30,C  28,C  29)     63.3282         0.011017   
    527. D(H  82,C  30,C  28,C  27)    -60.3115         0.011017   
    528. D(H  81,C  30,C  28,H  76)     63.2909         0.011017   
    529. D(H  81,C  30,C  28,C  29)    -56.2738         0.011017   
    530. D(H  81,C  30,C  28,C  27)   -179.9134         0.011017   
    531. D(H  80,C  30,C  28,H  76)    -57.0271         0.011017   
    532. D(H  80,C  30,C  28,C  29)   -176.5917         0.011017   
    533. D(H  80,C  30,C  28,C  27)     59.7686         0.011017   
    534. D(O  42,C  32,C  18,H  66)    170.7846         0.009970   
    535. D(O  42,C  32,C  18,C  19)     56.2837         0.009970   
    536. D(O  42,C  32,C  18,C  17)    -69.7574         0.009970   
    537. D(C  33,C  32,C  18,H  66)     -2.7056         0.009970   
    538. D(C  33,C  32,C  18,C  19)   -117.2066         0.009970   
    539. D(C  33,C  32,C  18,C  17)    116.7524         0.009970   
    540. D(H  84,C  33,C  32,O  42)     25.9251         0.012949   
    541. D(H  84,C  33,C  32,C  18)   -160.6562         0.012949   
    542. D(H  83,C  33,C  32,O  42)    144.6989         0.012949   
    543. D(H  83,C  33,C  32,C  18)    -41.8825         0.012949   
    544. D(C  34,C  33,C  32,O  42)    -95.0719         0.012949   
    545. D(C  34,C  33,C  32,C  18)     78.3467         0.012949   
    546. D(H  86,C  34,C  33,H  84)   -174.4184         0.009910   
    547. D(H  86,C  34,C  33,H  83)     65.3800         0.009910   
    548. D(H  86,C  34,C  33,C  32)    -55.0658         0.009910   
    549. D(H  85,C  34,C  33,H  84)    -58.4733         0.009910   
    550. D(H  85,C  34,C  33,H  83)   -178.6749         0.009910   
    551. D(H  85,C  34,C  33,C  32)     60.8793         0.009910   
    552. D(C  35,C  34,C  33,H  84)     63.0173         0.009910   
    553. D(C  35,C  34,C  33,H  83)    -57.1843         0.009910   
    554. D(C  35,C  34,C  33,C  32)   -177.6301         0.009910   
    555. D(H  88,C  35,C  34,H  86)   -179.2332         0.011157   
    556. D(H  88,C  35,C  34,H  85)     64.3976         0.011157   
    557. D(H  88,C  35,C  34,C  33)    -56.3900         0.011157   
    558. D(H  87,C  35,C  34,H  86)    -63.4498         0.011157   
    559. D(H  87,C  35,C  34,H  85)   -179.8190         0.011157   
    560. D(H  87,C  35,C  34,C  33)     59.3934         0.011157   
    561. D(C  36,C  35,C  34,H  86)     58.5176         0.011157   
    562. D(C  36,C  35,C  34,H  85)    -57.8516         0.011157   
    563. D(C  36,C  35,C  34,C  33)   -178.6392         0.011157   
    564. D(H  90,C  36,C  35,H  87)     64.4678         0.011117   
    565. D(H  90,C  36,C  35,C  34)    -57.3669         0.011117   
    566. D(H  89,C  36,C  35,H  88)    -64.0039         0.011117   
    567. D(H  89,C  36,C  35,H  87)    179.9684         0.011117   
    568. D(H  89,C  36,C  35,C  34)     58.1337         0.011117   
    569. D(C  37,C  36,C  35,H  88)     58.1892         0.011117   
    570. D(C  37,C  36,C  35,H  87)    -57.8385         0.011117   
    571. D(H  90,C  36,C  35,H  88)   -179.5045         0.011117   
    572. D(C  37,C  36,C  35,C  34)   -179.6732         0.011117   
    573. D(H  92,C  37,C  36,H  90)    179.9471         0.011113   
    574. D(H  92,C  37,C  36,H  89)     64.3765         0.011113   
    575. D(H  92,C  37,C  36,C  35)    -57.8052         0.011113   
    576. D(H  91,C  37,C  36,H  90)    -64.5185         0.011113   
    577. D(H  91,C  37,C  36,H  89)    179.9108         0.011113   
    578. D(H  91,C  37,C  36,C  35)     57.7292         0.011113   
    579. D(C  38,C  37,C  36,H  90)     57.6749         0.011113   
    580. D(C  38,C  37,C  36,H  89)    -57.8957         0.011113   
    581. D(C  38,C  37,C  36,C  35)    179.9226         0.011113   
    582. D(H  94,C  38,C  37,H  92)   -179.9520         0.011114   
    583. D(H  94,C  38,C  37,H  91)     64.5095         0.011114   
    584. D(H  94,C  38,C  37,C  36)    -57.6790         0.011114   
    585. D(H  93,C  38,C  37,H  92)    -64.5196         0.011114   
    586. D(H  93,C  38,C  37,H  91)    179.9419         0.011114   
    587. D(H  93,C  38,C  37,C  36)     57.7535         0.011114   
    588. D(C  39,C  38,C  37,H  92)     57.7654         0.011114   
    589. D(C  39,C  38,C  37,H  91)    -57.7732         0.011114   
    590. D(C  39,C  38,C  37,C  36)   -179.9616         0.011114   
    591. D(H  95,C  39,C  38,H  94)    -64.6215         0.011132   
    592. D(H  95,C  39,C  38,H  93)    179.9123         0.011132   
    593. D(H  95,C  39,C  38,C  37)     57.6348         0.011132   
    594. D(C  40,C  39,C  38,H  94)     57.6306         0.011132   
    595. D(C  40,C  39,C  38,H  93)    -57.8355         0.011132   
    596. D(C  40,C  39,C  38,C  37)    179.8869         0.011132   
    597. D(H  96,C  39,C  38,H  94)    179.9097         0.011132   
    598. D(H  96,C  39,C  38,H  93)     64.4436         0.011132   
    599. D(H  96,C  39,C  38,C  37)    -57.8340         0.011132   
    600. D(H  98,C  40,C  39,H  95)     64.6197         0.011064   
    601. D(H  98,C  40,C  39,C  38)    -57.6748         0.011064   
    602. D(H  97,C  40,C  39,H  96)    -64.6749         0.011064   
    603. D(H  97,C  40,C  39,H  95)    179.9449         0.011064   
    604. D(H  97,C  40,C  39,C  38)     57.6505         0.011064   
    605. D(C  41,C  40,C  39,H  96)     57.6647         0.011064   
    606. D(C  41,C  40,C  39,H  95)    -57.7155         0.011064   
    607. D(H  98,C  40,C  39,H  96)    179.9999         0.011064   
    608. D(C  41,C  40,C  39,C  38)    179.9900         0.011064   
    609. D(H 101,C  41,C  40,H  98)    -62.2837         0.011157   
    610. D(H 101,C  41,C  40,H  97)   -178.1893         0.011157   
    611. D(H 101,C  41,C  40,C  39)     59.7574         0.011157   
    612. D(H 100,C  41,C  40,H  98)    178.1757         0.011157   
    613. D(H 100,C  41,C  40,H  97)     62.2702         0.011157   
    614. D(H 100,C  41,C  40,C  39)    -59.7831         0.011157   
    615. D(H  99,C  41,C  40,H  98)     57.9421         0.011157   
    616. D(H  99,C  41,C  40,H  97)    -57.9635         0.011157   
    617. D(H  99,C  41,C  40,C  39)    179.9832         0.011157   
    618. D(H 102,O  43,C  17,H  65)     69.3508         0.018939   
    619. D(H 102,O  43,C  17,C  18)    -50.0718         0.018939   
    620. D(H 102,O  43,C  17,C  16)   -175.8865         0.018939   
    621. D(H 104,C  45,C  13,H  61)   -179.2725         0.010332   
    622. D(H 104,C  45,C  13,C  14)    -66.0400         0.010332   
    623. D(H 104,C  45,C  13,N  12)     65.3438         0.010332   
    624. D(H 103,C  45,C  13,H  61)    -63.7524         0.010332   
    625. D(H 103,C  45,C  13,C  14)     49.4801         0.010332   
    626. D(H 103,C  45,C  13,N  12)   -179.1360         0.010332   
    627. D(C  46,C  45,C  13,H  61)     57.5894         0.010332   
    628. D(C  46,C  45,C  13,C  14)    170.8219         0.010332   
    629. D(C  46,C  45,C  13,N  12)    -57.7942         0.010332   
    630. D(H 107,C  46,C  45,H 104)    -60.8935         0.011271   
    631. D(H 107,C  46,C  45,H 103)   -179.5127         0.011271   
    632. D(H 107,C  46,C  45,C  13)     61.4715         0.011271   
    633. D(H 106,C  46,C  45,H 104)    178.9345         0.011271   
    634. D(H 106,C  46,C  45,H 103)     60.3153         0.011271   
    635. D(H 106,C  46,C  45,C  13)    -58.7005         0.011271   
    636. D(H 105,C  46,C  45,H 104)     59.0669         0.011271   
    637. D(H 105,C  46,C  45,H 103)    -59.5523         0.011271   
    638. D(H 105,C  46,C  45,C  13)   -178.5681         0.011271   
    639. D(H 108,C  48,C  10,H  59)     72.2465         0.009693   
    640. D(H 108,C  48,C  10,C  11)   -171.2113         0.009693   
    641. D(H 108,C  48,C  10,N   9)    -43.6183         0.009693   
    642. D(C  50,C  48,C  10,H  59)    -44.8112         0.009693   
    643. D(C  50,C  48,C  10,C  11)     71.7310         0.009693   
    644. D(C  50,C  48,C  10,N   9)   -160.6760         0.009693   
    645. D(C  49,C  48,C  10,H  59)   -171.5514         0.009693   
    646. D(C  49,C  48,C  10,C  11)    -55.0092         0.009693   
    647. D(C  49,C  48,C  10,N   9)     72.5838         0.009693   
    648. D(H 111,C  49,C  48,C  50)     58.0157         0.011055   
    649. D(H 111,C  49,C  48,C  10)   -174.2443         0.011055   
    650. D(H 110,C  49,C  48,H 108)   -179.7420         0.011055   
    651. D(H 110,C  49,C  48,C  50)    -61.4393         0.011055   
    652. D(H 110,C  49,C  48,C  10)     66.3006         0.011055   
    653. D(H 109,C  49,C  48,H 108)     59.3382         0.011055   
    654. D(H 109,C  49,C  48,C  50)    177.6408         0.011055   
    655. D(H 111,C  49,C  48,H 108)    -60.2869         0.011055   
    656. D(H 109,C  49,C  48,C  10)    -54.6192         0.011055   
    657. D(H 114,C  50,C  48,H 108)    179.6959         0.011085   
    658. D(H 114,C  50,C  48,C  49)     61.2722         0.011085   
    659. D(H 114,C  50,C  48,C  10)    -65.2620         0.011085   
    660. D(H 113,C  50,C  48,H 108)     58.9177         0.011085   
    661. D(H 113,C  50,C  48,C  49)    -59.5059         0.011085   
    662. D(H 113,C  50,C  48,C  10)    173.9599         0.011085   
    663. D(H 112,C  50,C  48,H 108)    -60.4233         0.011085   
    664. D(H 112,C  50,C  48,C  49)   -178.8469         0.011085   
    665. D(H 112,C  50,C  48,C  10)     54.6188         0.011085   
    -----------------------------------------------------------------

Number of atoms                         .... 115
Number of degrees of freedom            .... 665

         *************************************************************
         *                GEOMETRY OPTIMIZATION CYCLE   1            *
         *************************************************************
---------------------------------
CARTESIAN COORDINATES (ANGSTROEM)
---------------------------------
  O      6.790138   -0.320193    0.150376
  C      5.786256    0.275899    0.531782
  C      5.640926    1.787377    0.291078
  C      6.547902    2.606311    1.230353
  C      5.617014    2.969779    2.396546
  C      4.287006    3.271054    1.701312
  N      4.294458    2.318106    0.567622
  C      3.255548    1.974997   -0.238262
  O      3.396634    1.156136   -1.160163
  N      4.757061   -0.316900    1.198910
  C      4.686346   -1.745921    1.430486
  C      3.923578   -2.506533    0.326207
  N      3.495588   -1.797529   -0.736763
  C      3.000641   -2.369578   -2.000797
  C      1.582324   -2.971503   -1.943124
  N      1.256610   -3.607144   -0.788422
  C     -0.093222   -4.002893   -0.447432
  C     -0.666633   -3.080482    0.647304
  C     -1.374491   -1.788876    0.139670
  C     -1.549835   -0.730620    1.243835
  N     -0.395142   -0.399055    1.894897
  C     -0.270200    0.792452    2.721651
  C      0.757064    1.793219    2.147779
  N      1.111570    1.601811    0.848569
  C      1.877992    2.581986    0.078558
  C      1.145056    2.930144   -1.215590
  O      1.187937    2.717920    2.844015
  C      0.006716    0.490592    4.208322
  C     -0.663735    1.476706    5.180336
  C     -2.185247    1.291111    5.203084
  C     -0.073290    1.313137    6.584108
  O     -2.635211   -0.193837    1.462354
  C     -0.685916   -1.082969   -1.038910
  C     -1.455897   -1.004468   -2.322800
  C     -2.502237    0.128446   -2.199027
  C     -3.378154    0.244433   -3.447900
  C     -4.395752    1.383362   -3.351564
  C     -5.286256    1.508877   -4.589860
  C     -6.304873    2.646831   -4.492037
  C     -7.198187    2.775561   -5.727664
  C     -8.219079    3.912249   -5.628697
  C     -9.106760    4.032501   -6.868834
  O      0.389439   -0.507211   -0.889314
  O     -1.595418   -3.858444    1.399937
  O      0.817937   -2.849317   -2.903222
  C      3.997969   -3.354877   -2.640495
  C      5.358343   -2.716552   -2.919401
  O      3.741537   -3.733018    0.452151
  C      4.131228   -2.017052    2.852512
  C      2.632907   -1.711247    2.929617
  C      4.446752   -3.422254    3.371257
  H      5.890057    1.931281   -0.769053
  H      6.885857    3.516275    0.713531
  H      7.435716    2.035080    1.525085
  H      5.499978    2.110602    3.074047
  H      5.976269    3.820132    2.989061
  H      3.405013    3.120997    2.337472
  H      4.270917    4.306799    1.321325
  H      3.955814    0.260632    1.438527
  H      5.722046   -2.116596    1.367420
  H      3.631784   -0.781284   -0.747162
  H      2.886047   -1.505753   -2.668944
  H      2.033102   -3.804025   -0.139517
  H     -0.100110   -5.025215   -0.042640
  H     -0.703326   -3.991194   -1.360307
  H      0.188544   -2.793686    1.287017
  H     -2.383961   -2.087156   -0.171797
  H      0.456767   -0.877554    1.613321
  H     -1.251049    1.289597    2.637072
  H      0.747094    0.797748    0.321582
  H      1.979385    3.464949    0.721634
  H      0.154172    3.340591   -0.981096
  H      1.710339    3.677679   -1.788792
  H      1.033733    2.032346   -1.836665
  H      1.092813    0.490583    4.383016
  H     -0.358523   -0.527789    4.418363
  H     -0.429803    2.493555    4.825850
  H     -2.634865    1.366743    4.202348
  H     -2.447110    0.299463    5.606186
  H     -2.663561    2.048684    5.840425
  H      1.009852    1.504648    6.584966
  H     -0.540966    2.009143    7.295490
  H     -0.237319    0.290905    6.962478
  H     -1.963109   -1.960520   -2.519717
  H     -0.752640   -0.807421   -3.140267
  H     -1.971408    1.078977   -2.026049
  H     -3.137533   -0.035036   -1.313063
  H     -3.907758   -0.709971   -3.611166
  H     -2.736982    0.394136   -4.333348
  H     -3.862172    2.336069   -3.187713
  H     -5.028016    1.232728   -2.459317
  H     -5.818604    0.555595   -4.754598
  H     -4.653142    1.660476   -5.481763
  H     -5.772004    3.599851   -4.326235
  H     -6.936612    2.494273   -3.599232
  H     -7.730149    1.822132   -5.894823
  H     -6.566920    2.929803   -6.620806
  H     -7.685773    4.863535   -5.460745
  H     -8.848365    3.755978   -4.735920
  H     -9.829968    4.854886   -6.771801
  H     -8.504265    4.221546   -7.770433
  H     -9.675270    3.105685   -7.040289
  H     -2.022410   -3.281485    2.058766
  H      3.535999   -3.704044   -3.576376
  H      4.110181   -4.230123   -1.985458
  H      6.034559   -3.438621   -3.397558
  H      5.260022   -1.849665   -3.590199
  H      5.841521   -2.368203   -1.995772
  H      4.660405   -1.293416    3.495806
  H      2.406058   -0.686007    2.596354
  H      2.066439   -2.416836    2.302651
  H      2.259725   -1.804691    3.957848
  H      5.527018   -3.622276    3.329924
  H      4.123731   -3.516592    4.418516
  H      3.941202   -4.187356    2.771096

----------------------------
CARTESIAN COORDINATES (A.U.)
----------------------------
  NO LB      ZA    FRAG     MASS         X           Y           Z
   0 O     8.0000    0    15.999   12.831501   -0.605077    0.284169
   1 C     6.0000    0    12.011   10.934438    0.521374    1.004923
   2 C     6.0000    0    12.011   10.659806    3.377653    0.550058
   3 C     6.0000    0    12.011   12.373741    4.925214    2.325029
   4 C     6.0000    0    12.011   10.614619    5.612069    4.528816
   5 C     6.0000    0    12.011    8.101268    6.181396    3.215014
   6 N     7.0000    0    14.007    8.115350    4.380585    1.072650
   7 C     6.0000    0    12.011    6.152094    3.732204   -0.450249
   8 O     8.0000    0    15.999    6.418708    2.184780   -2.192390
   9 N     7.0000    0    14.007    8.989543   -0.598854    2.265611
  10 C     6.0000    0    12.011    8.855910   -3.299313    2.703226
  11 C     6.0000    0    12.011    7.414488   -4.736661    0.616442
  12 N     7.0000    0    14.007    6.605704   -3.396838   -1.392281
  13 C     6.0000    0    12.011    5.670391   -4.477854   -3.780958
  14 C     6.0000    0    12.011    2.990159   -5.615326   -3.671972
  15 N     7.0000    0    14.007    2.374648   -6.816514   -1.489902
  16 C     6.0000    0    12.011   -0.176165   -7.564371   -0.845524
  17 C     6.0000    0    12.011   -1.259755   -5.821267    1.223228
  18 C     6.0000    0    12.011   -2.597411   -3.380486    0.263938
  19 C     6.0000    0    12.011   -2.928765   -1.380672    2.350507
  20 N     7.0000    0    14.007   -0.746710   -0.754104    3.580836
  21 C     6.0000    0    12.011   -0.510605    1.497517    5.143174
  22 C     6.0000    0    12.011    1.430643    3.388694    4.058714
  23 N     7.0000    0    14.007    2.100564    3.026984    1.603563
  24 C     6.0000    0    12.011    3.548891    4.879247    0.148453
  25 C     6.0000    0    12.011    2.163842    5.537170   -2.297133
  26 O     8.0000    0    15.999    2.244876    5.136124    5.374409
  27 C     6.0000    0    12.011    0.012692    0.927084    7.952576
  28 C     6.0000    0    12.011   -1.254278    2.790570    9.789415
  29 C     6.0000    0    12.011   -4.129519    2.439847    9.832405
  30 C     6.0000    0    12.011   -0.138498    2.481469   12.442162
  31 O     8.0000    0    15.999   -4.979828   -0.366299    2.763448
  32 C     6.0000    0    12.011   -1.296193   -2.046515   -1.963256
  33 C     6.0000    0    12.011   -2.751247   -1.898170   -4.389456
  34 C     6.0000    0    12.011   -4.728543    0.242727   -4.155558
  35 C     6.0000    0    12.011   -6.383786    0.461911   -6.515586
  36 C     6.0000    0    12.011   -8.306768    2.614176   -6.333538
  37 C     6.0000    0    12.011   -9.989576    2.851363   -8.673578
  38 C     6.0000    0    12.011  -11.914482    5.001785   -8.488720
  39 C     6.0000    0    12.011  -13.602602    5.245051  -10.823717
  40 C     6.0000    0    12.011  -15.531808    7.393078  -10.636696
  41 C     6.0000    0    12.011  -17.209282    7.620322  -12.980214
  42 O     8.0000    0    15.999    0.735933   -0.958489   -1.680561
  43 O     8.0000    0    15.999   -3.014903   -7.291402    2.645498
  44 O     8.0000    0    15.999    1.545677   -5.384428   -5.486294
  45 C     6.0000    0    12.011    7.555067   -6.339799   -4.989812
  46 C     6.0000    0    12.011   10.125801   -5.133539   -5.516868
  47 O     8.0000    0    15.999    7.070481   -7.054382    0.854442
  48 C     6.0000    0    12.011    7.806889   -3.811676    5.390466
  49 C     6.0000    0    12.011    4.975474   -3.233788    5.536175
  50 C     6.0000    0    12.011    8.403144   -6.467122    6.370753
  51 H     1.0000    0     1.008   11.130594    3.649593   -1.453300
  52 H     1.0000    0     1.008   13.012385    6.644797    1.348379
  53 H     1.0000    0     1.008   14.051466    3.845745    2.881993
  54 H     1.0000    0     1.008   10.393452    3.988460    5.809106
  55 H     1.0000    0     1.008   11.293511    7.219003    5.648507
  56 H     1.0000    0     1.008    6.434541    5.897830    4.417183
  57 H     1.0000    0     1.008    8.070864    8.138671    2.496943
  58 H     1.0000    0     1.008    7.475405    0.492523    2.718422
  59 H     1.0000    0     1.008   10.813100   -3.999787    2.584049
  60 H     1.0000    0     1.008    6.863077   -1.476414   -1.411931
  61 H     1.0000    0     1.008    5.453838   -2.845461   -5.043573
  62 H     1.0000    0     1.008    3.842005   -7.188565   -0.263649
  63 H     1.0000    0     1.008   -0.189180   -9.496280   -0.080578
  64 H     1.0000    0     1.008   -1.329093   -7.542263   -2.570607
  65 H     1.0000    0     1.008    0.356296   -5.279302    2.432109
  66 H     1.0000    0     1.008   -4.505033   -3.944153   -0.324649
  67 H     1.0000    0     1.008    0.863165   -1.658336    3.048734
  68 H     1.0000    0     1.008   -2.364141    2.436985    4.983344
  69 H     1.0000    0     1.008    1.411804    1.507526    0.607702
  70 H     1.0000    0     1.008    3.740496    6.547804    1.363690
  71 H     1.0000    0     1.008    0.291343    6.312803   -1.854004
  72 H     1.0000    0     1.008    3.232073    6.949806   -3.380326
  73 H     1.0000    0     1.008    1.953472    3.840577   -3.470794
  74 H     1.0000    0     1.008    2.065117    0.927068    8.282700
  75 H     1.0000    0     1.008   -0.677509   -0.997376    8.349496
  76 H     1.0000    0     1.008   -0.812210    4.712136    9.119535
  77 H     1.0000    0     1.008   -4.979173    2.582770    7.941287
  78 H     1.0000    0     1.008   -4.624368    0.565903   10.594156
  79 H     1.0000    0     1.008   -5.033402    3.871451   11.036803
  80 H     1.0000    0     1.008    1.908344    2.843373   12.443781
  81 H     1.0000    0     1.008   -1.022278    3.796730   13.786479
  82 H     1.0000    0     1.008   -0.448468    0.549730   13.157177
  83 H     1.0000    0     1.008   -3.709738   -3.704847   -4.761576
  84 H     1.0000    0     1.008   -1.422283   -1.525804   -5.934245
  85 H     1.0000    0     1.008   -3.725421    2.038972   -3.828678
  86 H     1.0000    0     1.008   -5.929078   -0.066208   -2.481329
  87 H     1.0000    0     1.008   -7.384592   -1.341651   -6.824114
  88 H     1.0000    0     1.008   -5.172146    0.744808   -8.188842
  89 H     1.0000    0     1.008   -7.298447    4.414530   -6.023904
  90 H     1.0000    0     1.008   -9.501574    2.329518   -4.647435
  91 H     1.0000    0     1.008  -10.995568    1.049923   -8.984887
  92 H     1.0000    0     1.008   -8.793165    3.137845  -10.359031
  93 H     1.0000    0     1.008  -10.907507    6.802732   -8.175400
  94 H     1.0000    0     1.008  -13.108297    4.713494   -6.801564
  95 H     1.0000    0     1.008  -14.607865    3.443331  -11.139601
  96 H     1.0000    0     1.008  -12.409680    5.536525  -12.511511
  97 H     1.0000    0     1.008  -14.524007    9.190749  -10.319313
  98 H     1.0000    0     1.008  -16.720987    7.097770   -8.949592
  99 H     1.0000    0     1.008  -18.575947    9.174405  -12.796850
 100 H     1.0000    0     1.008  -16.070733    7.977565  -14.683991
 101 H     1.0000    0     1.008  -18.283610    5.868895  -13.304218
 102 H     1.0000    0     1.008   -3.821800   -6.201108    3.890504
 103 H     1.0000    0     1.008    6.682071   -6.999628   -6.758372
 104 H     1.0000    0     1.008    7.767116   -7.993773   -3.751973
 105 H     1.0000    0     1.008   11.403663   -6.498052   -6.420455
 106 H     1.0000    0     1.008    9.940000   -3.495361   -6.784493
 107 H     1.0000    0     1.008   11.038876   -4.475255   -3.771463
 108 H     1.0000    0     1.008    8.806889   -2.444202    6.606116
 109 H     1.0000    0     1.008    4.546791   -1.296366    4.906398
 110 H     1.0000    0     1.008    3.905004   -4.567158    4.351381
 111 H     1.0000    0     1.008    4.270262   -3.410373    7.479250
 112 H     1.0000    0     1.008   10.444549   -6.845110    6.292644
 113 H     1.0000    0     1.008    7.792723   -6.645397    8.349785
 114 H     1.0000    0     1.008    7.447793   -7.912956    5.236612

--------------------------------
INTERNAL COORDINATES (ANGSTROEM)
--------------------------------
 O      0   0   0     0.000000000000     0.00000000     0.00000000
 C      1   0   0     1.228241143006     0.00000000     0.00000000
 C      2   1   0     1.537408285762   120.38310954     0.00000000
 C      3   2   1     1.541264024044   111.79812403   286.06628356
 C      4   3   2     1.535795337095   103.40441669   264.60004627
 C      5   4   3     1.530698517116   103.19994396   321.04413322
 N      3   2   1     1.473474003163   114.27461076   169.03733098
 C      7   3   2     1.358862526498   119.76155216   291.27895211
 O      8   7   3     1.241104902828   121.34627759     4.44005169
 N      2   1   3     1.362244932982   123.94432828   181.16349549
 C     10   2   1     1.449389136568   122.96695035   354.54961582
 C     11  10   2     1.542652237586   113.32076080   268.35300015
 N     12  11  10     1.347504338191   117.53558060     3.97580882
 C     13  12  11     1.473089523848   125.40027075   166.92099926
 C     14  13  12     1.541837898091   115.37754022    74.96748034
 N     15  14  13     1.357742702145   115.80146754   323.50211242
 C     16  15  14     1.447390166040   123.51043070   167.59594117
 C     17  16  15     1.542105695178   110.51607843   253.68134202
 C     18  17  16     1.557883436379   115.69278673    87.85054533
 C     19  18  17     1.539425780469   112.82847670   196.93799422
 N     20  19  18     1.366431391000   114.34971358    53.62346829
 C     21  20  19     1.455616631506   122.80485225   164.23129949
 C     22  21  20     1.544712316004   112.11030520   244.25519263
 N     23  22  21     1.360242061591   115.91202044    16.31002195
 C     24  23  22     1.463237258233   123.01606464   168.74318243
 C     25  24  23     1.527491264812   110.31627627   233.93621836
 O     23  22  21     1.235097915412   120.50568367   194.75576503
 C     22  21  20     1.542074547713   113.75021784   116.67666787
 C     28  22  21     1.538420450948   113.91573299   215.30129696
 C     29  28  22     1.532958288804   111.36591728    70.23232991
 C     29  28  22     1.531652348522   110.03655622   193.57679876
 O     20  19  18     1.230417570780   121.85422357   230.31799509
 C     19  18  17     1.536714532238   115.28739923   319.70924682
 C     33  19  18     1.499135340247   116.79121203   116.75237507
 C     34  33  19     1.547139409893   108.49319806    78.34668962
 C     35  34  33     1.529825777869   112.17487504   182.36990987
 C     36  35  34     1.530342530189   112.69084037   181.36076551
 C     37  36  35     1.530400667727   113.39199381   180.32676472
 C     38  37  36     1.530388386950   113.36307958   179.92260388
 C     39  38  37     1.530149519944   113.54809470   180.03839308
 C     40  39  38     1.531036324280   113.54965299   179.88691563
 C     41  40  39     1.529829229287   113.13300060   179.99003851
 O     33  19  18     1.228928010633   120.92670865   290.24263778
 O     18  17  16     1.426296603474   106.88665633   209.63749069
 O     15  14  13     1.233289979117   120.15523254   142.82540088
 C     14  13  12     1.541002838208   112.77100430   305.71345597
 C     46  14  13     1.528353670391   112.62954436   302.20578330
 O     12  11  10     1.246301410845   119.01899099   183.52078606
 C     11  10   2     1.550427773963   109.65943524   140.85014152
 C     49  11  10     1.531151763789   111.20008487    72.58382240
 C     49  11  10     1.530766208637   113.42478258   199.32397804
 H      3   2   1     1.098477592591   104.97839779    48.49955106
 H      4   3   2     1.099706031873   109.51792129   147.00156657
 H      4   3   2     1.096077052609   111.32196950    27.66548942
 H      5   4   3     1.100403911836   110.31595963    78.44519406
 H      5   4   3     1.096921827577   113.27344966   199.52503758
 H      6   5   4     1.097784120934   114.07838909   154.38422818
 H      6   5   4     1.103366251485   110.72288637   277.02144293
 H     10   2   1     1.016344466701   117.63249270   182.29801127
 H     11  10   2     1.101840556721   106.06221831    22.96102456
 H     13  12  11     1.025383293504   119.16220645   355.90309417
 H     14  13  12     1.098064755592   104.57781924   187.97354880
 H     16  15  14     1.030912066495   116.36166836   347.65603028
 H     17  16  15     1.099566499310   110.29081659   135.56381858
 H     17  16  15     1.098044956032   108.62677480    17.12681973
 H     18  17  16     1.105808119419   106.15577156   326.87266968
 H     19  18  17     1.097730207994   106.55965485    80.29671604
 H     21  20  19     1.016855577201   117.50620671   359.03257571
 H     22  21  20     1.102892630787   104.42334362   358.23483886
 H     24  23  22     1.028141472844   120.47900644   356.40396812
 H     25  24  23     1.097018534755   106.20579239   354.24418407
 H     26  25  24     1.097863609478   109.71395257    59.21630161
 H     26  25  24     1.098596129653   110.50250141   179.12114058
 H     26  25  24     1.097346287762   109.98146161   298.60791758
 H     28  22  21     1.100056020567   109.29282395    92.77788338
 H     28  22  21     1.102095760776   107.76447010   336.51472875
 H     29  28  22     1.101982993762   107.20023277   310.96506899
 H     30  29  28     1.099704558427   112.57978446   304.94944965
 H     30  29  28     1.102011372991   110.50085483    64.92212027
 H     30  29  28     1.099501387693   110.91382726   184.32980866
 H     31  29  28     1.099942877549   111.20635565    59.76859919
 H     31  29  28     1.099641032040   111.18406632   180.08658612
 H     31  29  28     1.102282972361   110.87149051   299.68853757
 H     34  33  19     1.100034522907   110.15860642   318.11747583
 H     34  33  19     1.096198698645   108.57604894   199.34375779
 H     35  34  33     1.102366357166   108.55968979    60.87930937
 H     35  34  33     1.102387673824   110.20935809   304.93419939
 H     36  35  34     1.103640559708   109.26605513    59.39341295
 H     36  35  34     1.103418320710   109.43104617   303.60996669
 H     37  36  35     1.104176413696   109.27797810    58.13366978
 H     37  36  35     1.103880894075   109.27989082   302.63306442
 H     38  37  36     1.104209489493   109.29538185    57.72916909
 H     38  37  36     1.104222560126   109.34101513   302.19483627
 H     39  38  37     1.104394017042   109.27500659    57.75346655
 H     39  38  37     1.104295508418   109.25202408   302.32100414
 H     40  39  38     1.104514746024   109.31531316    57.63475332
 H     40  39  38     1.104532057092   109.33320711   302.16598818
 H     41  40  39     1.103434581037   109.12470400    57.65046781
 H     41  40  39     1.103391255921   109.11362159   302.32524835
 H     42  41  40     1.099437271044   111.65022999   179.98319794
 H     42  41  40     1.100735853197   111.09287851   300.21686929
 H     42  41  40     1.100721322697   111.08643119    59.75742774
 H     44  18  17     0.974299189686   108.61519193   184.11345092
 H     46  14  13     1.100548910629   106.51071875   180.86399281
 H     46  14  13     1.098962379770   109.14010354    65.34383563
 H     47  46  14     1.098765876219   110.65480788   181.43188066
 H     47  46  14     1.100513060931   111.14333659   301.29945562
 H     47  46  14     1.099043784232   111.73612708    61.47147957
 H     49  11  10     1.103406522497   104.37852359   316.38172441
 H     50  49  11     1.101653703639   111.84744251   305.38076603
 H     50  49  11     1.100831181232   110.29498422    66.30060131
 H     50  49  11     1.097841433220   111.27225617   185.75566768
 H     51  49  11     1.099404519706   110.90419167    54.61881987
 H     51  49  11     1.099996670092   109.92754601   173.95985048
 H     51  49  11     1.095972850775   111.11170271   294.73798276

---------------------------
INTERNAL COORDINATES (A.U.)
---------------------------
 O      0   0   0     0.000000000000     0.00000000     0.00000000
 C      1   0   0     2.321039386696     0.00000000     0.00000000
 C      2   1   0     2.905280616112   120.38310954     0.00000000
 C      3   2   1     2.912566905508   111.79812403   286.06628356
 C      4   3   2     2.902232584863   103.40441669   264.60004627
 C      5   4   3     2.892600990950   103.19994396   321.04413322
 N      3   2   1     2.784462331430   114.27461076   169.03733098
 C      7   3   2     2.567878028729   119.76155216   291.27895211
 O      8   7   3     2.345348369811   121.34627759     4.44005169
 N      2   1   3     2.574269850657   123.94432828   181.16349549
 C     10   2   1     2.738948529593   122.96695035   354.54961582
 C     11  10   2     2.915190248918   113.32076080   268.35300015
 N     12  11  10     2.546414163452   117.53558060     3.97580882
 C     13  12  11     2.783735770822   125.40027075   166.92099926
 C     14  13  12     2.913651370293   115.37754022    74.96748034
 N     15  14  13     2.565761867385   115.80146754   323.50211242
 C     16  15  14     2.735171022747   123.51043070   167.59594117
 C     17  16  15     2.914157433446   110.51607843   253.68134202
 C     18  17  16     2.943973043328   115.69278673    87.85054533
 C     19  18  17     2.909093128585   112.82847670   196.93799422
 N     20  19  18     2.582181109783   114.34971358    53.62346829
 C     21  20  19     2.750716789528   122.80485225   164.23129949
 C     22  21  20     2.919083232942   112.11030520   244.25519263
 N     23  22  21     2.570484972248   115.91202044    16.31002195
 C     24  23  22     2.765117687010   123.01606464   168.74318243
 C     25  24  23     2.886540162451   110.31627627   233.93621836
 O     23  22  21     2.333996808707   120.50568367   194.75576503
 C     22  21  20     2.914098573268   113.75021784   116.67666787
 C     28  22  21     2.907193331115   113.91573299   215.30129696
 C     29  28  22     2.896871340565   111.36591728    70.23232991
 C     29  28  22     2.894403471083   110.03655622   193.57679876
 O     20  19  18     2.325152239139   121.85422357   230.31799509
 C     19  18  17     2.903969611947   115.28739923   319.70924682
 C     33  19  18     2.832955230749   116.79121203   116.75237507
 C     34  33  19     2.923669775694   108.49319806    78.34668962
 C     35  34  33     2.890951752785   112.17487504   182.36990987
 C     36  35  34     2.891928273150   112.69084037   181.36076551
 C     37  36  35     2.892038137175   113.39199381   180.32676472
 C     38  37  36     2.892014929869   113.36307958   179.92260388
 C     39  38  37     2.891563536645   113.54809470   180.03839308
 C     40  39  38     2.893239353976   113.54965299   179.88691563
 C     41  40  39     2.890958275020   113.13300060   179.99003851
 O     33  19  18     2.322337378401   120.92670865   290.24263778
 O     18  17  16     2.695309966308   106.88665633   209.63749069
 O     15  14  13     2.330580304240   120.15523254   142.82540088
 C     14  13  12     2.912073335808   112.77100430   305.71345597
 C     46  14  13     2.888169872812   112.62954436   302.20578330
 O     12  11  10     2.355168346817   119.01899099   183.52078606
 C     11  10   2     2.929883883214   109.65943524   140.85014152
 C     49  11  10     2.893457503032   111.20008487    72.58382240
 C     49  11  10     2.892728909386   113.42478258   199.32397804
 H      3   2   1     2.075821814247   104.97839779    48.49955106
 H      4   3   2     2.078143228062   109.51792129   147.00156657
 H      4   3   2     2.071285451106   111.32196950    27.66548942
 H      5   4   3     2.079462030067   110.31595963    78.44519406
 H      5   4   3     2.072881844441   113.27344966   199.52503758
 H      6   5   4     2.074511342732   114.07838909   154.38422818
 H      6   5   4     2.085060040719   110.72288637   277.02144293
[...]
freq.      52.01  E(vib)   ...       0.52 
freq.      58.19  E(vib)   ...       0.51 
freq.      62.67  E(vib)   ...       0.51 
freq.      66.67  E(vib)   ...       0.50 
freq.      77.69  E(vib)   ...       0.49 
freq.      78.24  E(vib)   ...       0.49 
freq.      82.35  E(vib)   ...       0.48 
freq.      85.31  E(vib)   ...       0.48 
freq.      92.62  E(vib)   ...       0.47 
freq.      99.31  E(vib)   ...       0.46 
freq.     100.19  E(vib)   ...       0.46 
freq.     102.94  E(vib)   ...       0.46 
freq.     110.72  E(vib)   ...       0.45 
freq.     117.85  E(vib)   ...       0.44 
freq.     125.19  E(vib)   ...       0.43 
freq.     133.07  E(vib)   ...       0.42 
freq.     140.49  E(vib)   ...       0.41 
freq.     144.26  E(vib)   ...       0.41 
freq.     147.31  E(vib)   ...       0.41 
freq.     149.90  E(vib)   ...       0.40 
freq.     154.90  E(vib)   ...       0.40 
freq.     157.48  E(vib)   ...       0.40 
freq.     161.20  E(vib)   ...       0.39 
freq.     172.49  E(vib)   ...       0.38 
freq.     173.36  E(vib)   ...       0.38 
freq.     184.62  E(vib)   ...       0.37 
freq.     193.00  E(vib)   ...       0.36 
freq.     195.44  E(vib)   ...       0.36 
freq.     202.27  E(vib)   ...       0.35 
freq.     212.22  E(vib)   ...       0.34 
freq.     216.11  E(vib)   ...       0.34 
freq.     219.89  E(vib)   ...       0.33 
freq.     226.53  E(vib)   ...       0.33 
freq.     228.82  E(vib)   ...       0.32 
freq.     233.87  E(vib)   ...       0.32 
freq.     234.30  E(vib)   ...       0.32 
freq.     237.19  E(vib)   ...       0.32 
freq.     237.85  E(vib)   ...       0.32 
freq.     248.38  E(vib)   ...       0.31 
freq.     250.32  E(vib)   ...       0.31 
freq.     257.06  E(vib)   ...       0.30 
freq.     266.62  E(vib)   ...       0.29 
freq.     268.91  E(vib)   ...       0.29 
freq.     277.01  E(vib)   ...       0.28 
freq.     284.73  E(vib)   ...       0.28 
freq.     288.79  E(vib)   ...       0.27 
freq.     292.26  E(vib)   ...       0.27 
freq.     299.46  E(vib)   ...       0.26 
freq.     304.00  E(vib)   ...       0.26 
freq.     309.82  E(vib)   ...       0.26 
freq.     315.51  E(vib)   ...       0.25 
freq.     319.92  E(vib)   ...       0.25 
freq.     332.41  E(vib)   ...       0.24 
freq.     345.99  E(vib)   ...       0.23 
freq.     352.48  E(vib)   ...       0.23 
freq.     356.49  E(vib)   ...       0.22 
freq.     369.09  E(vib)   ...       0.21 
freq.     376.37  E(vib)   ...       0.21 
freq.     384.85  E(vib)   ...       0.20 
freq.     405.97  E(vib)   ...       0.19 
freq.     413.56  E(vib)   ...       0.19 
freq.     415.88  E(vib)   ...       0.18 
freq.     428.59  E(vib)   ...       0.18 
freq.     441.33  E(vib)   ...       0.17 
freq.     445.25  E(vib)   ...       0.17 
freq.     449.21  E(vib)   ...       0.17 
freq.     455.45  E(vib)   ...       0.16 
freq.     466.93  E(vib)   ...       0.16 
freq.     476.01  E(vib)   ...       0.15 
freq.     506.47  E(vib)   ...       0.14 
freq.     509.24  E(vib)   ...       0.14 
freq.     516.25  E(vib)   ...       0.13 
freq.     518.50  E(vib)   ...       0.13 
freq.     539.17  E(vib)   ...       0.12 
freq.     542.21  E(vib)   ...       0.12 
freq.     552.28  E(vib)   ...       0.12 
freq.     573.21  E(vib)   ...       0.11 
freq.     584.46  E(vib)   ...       0.11 
freq.     590.62  E(vib)   ...       0.10 
freq.     606.23  E(vib)   ...       0.10 
freq.     635.25  E(vib)   ...       0.09 
freq.     664.95  E(vib)   ...       0.08 
freq.     676.42  E(vib)   ...       0.08 
freq.     685.77  E(vib)   ...       0.07 
freq.     703.03  E(vib)   ...       0.07 
freq.     706.29  E(vib)   ...       0.07 
freq.     711.92  E(vib)   ...       0.07 
freq.     714.77  E(vib)   ...       0.07 
freq.     717.17  E(vib)   ...       0.07 
freq.     720.90  E(vib)   ...       0.07 
freq.     726.92  E(vib)   ...       0.06 
freq.     741.18  E(vib)   ...       0.06 
freq.     745.49  E(vib)   ...       0.06 
freq.     752.37  E(vib)   ...       0.06 
freq.     756.67  E(vib)   ...       0.06 
freq.     760.66  E(vib)   ...       0.06 
freq.     767.62  E(vib)   ...       0.06 
freq.     773.17  E(vib)   ...       0.05 
freq.     797.99  E(vib)   ...       0.05 
freq.     807.87  E(vib)   ...       0.05 
freq.     809.50  E(vib)   ...       0.05 
freq.     814.54  E(vib)   ...       0.05 
freq.     819.36  E(vib)   ...       0.05 
freq.     828.86  E(vib)   ...       0.04 
freq.     855.34  E(vib)   ...       0.04 
freq.     856.28  E(vib)   ...       0.04 
freq.     868.38  E(vib)   ...       0.04 
freq.     872.69  E(vib)   ...       0.04 
freq.     874.92  E(vib)   ...       0.04 
freq.     877.68  E(vib)   ...       0.04 
freq.     891.41  E(vib)   ...       0.04 
freq.     895.28  E(vib)   ...       0.03 
freq.     902.41  E(vib)   ...       0.03 
freq.     906.15  E(vib)   ...       0.03 
freq.     908.35  E(vib)   ...       0.03 
freq.     912.66  E(vib)   ...       0.03 
freq.     915.44  E(vib)   ...       0.03 
freq.     919.52  E(vib)   ...       0.03 
freq.     924.04  E(vib)   ...       0.03 
freq.     935.96  E(vib)   ...       0.03 
freq.     939.41  E(vib)   ...       0.03 
freq.     940.64  E(vib)   ...       0.03 
freq.     942.24  E(vib)   ...       0.03 
freq.     948.85  E(vib)   ...       0.03 
freq.     960.49  E(vib)   ...       0.03 
freq.     965.31  E(vib)   ...       0.03 
freq.     968.11  E(vib)   ...       0.03 
freq.     975.93  E(vib)   ...       0.03 
freq.     977.50  E(vib)   ...       0.03 
freq.     981.92  E(vib)   ...       0.02 
freq.     997.73  E(vib)   ...       0.02 
freq.    1002.12  E(vib)   ...       0.02 
freq.    1008.99  E(vib)   ...       0.02 
freq.    1018.95  E(vib)   ...       0.02 
freq.    1021.71  E(vib)   ...       0.02 
freq.    1026.51  E(vib)   ...       0.02 
freq.    1033.34  E(vib)   ...       0.02 
freq.    1035.50  E(vib)   ...       0.02 
freq.    1036.75  E(vib)   ...       0.02 
freq.    1047.28  E(vib)   ...       0.02 
freq.    1049.08  E(vib)   ...       0.02 
freq.    1051.64  E(vib)   ...       0.02 
freq.    1053.35  E(vib)   ...       0.02 
freq.    1063.50  E(vib)   ...       0.02 
freq.    1067.71  E(vib)   ...       0.02 
freq.    1074.83  E(vib)   ...       0.02 
freq.    1080.29  E(vib)   ...       0.02 
freq.    1083.67  E(vib)   ...       0.02 
freq.    1090.44  E(vib)   ...       0.02 
freq.    1097.91  E(vib)   ...       0.02 
freq.    1102.57  E(vib)   ...       0.02 
freq.    1107.91  E(vib)   ...       0.02 
freq.    1112.90  E(vib)   ...       0.01 
freq.    1114.78  E(vib)   ...       0.01 
freq.    1127.28  E(vib)   ...       0.01 
freq.    1135.15  E(vib)   ...       0.01 
freq.    1139.15  E(vib)   ...       0.01 
freq.    1147.56  E(vib)   ...       0.01 
freq.    1152.74  E(vib)   ...       0.01 
freq.    1153.04  E(vib)   ...       0.01 
freq.    1158.24  E(vib)   ...       0.01 
freq.    1163.86  E(vib)   ...       0.01 
freq.    1173.75  E(vib)   ...       0.01 
freq.    1174.88  E(vib)   ...       0.01 
freq.    1186.00  E(vib)   ...       0.01 
freq.    1186.72  E(vib)   ...       0.01 
freq.    1198.17  E(vib)   ...       0.01 
freq.    1201.11  E(vib)   ...       0.01 
freq.    1203.62  E(vib)   ...       0.01 
freq.    1211.71  E(vib)   ...       0.01 
freq.    1220.77  E(vib)   ...       0.01 
freq.    1223.60  E(vib)   ...       0.01 
freq.    1229.43  E(vib)   ...       0.01 
freq.    1231.18  E(vib)   ...       0.01 
freq.    1235.07  E(vib)   ...       0.01 
freq.    1235.22  E(vib)   ...       0.01 
freq.    1241.89  E(vib)   ...       0.01 
freq.    1245.30  E(vib)   ...       0.01 
freq.    1251.47  E(vib)   ...       0.01 
freq.    1253.96  E(vib)   ...       0.01 
freq.    1255.07  E(vib)   ...       0.01 
freq.    1258.63  E(vib)   ...       0.01 
freq.    1260.23  E(vib)   ...       0.01 
freq.    1266.54  E(vib)   ...       0.01 
freq.    1270.23  E(vib)   ...       0.01 
freq.    1279.71  E(vib)   ...       0.01 
freq.    1282.38  E(vib)   ...       0.01 
freq.    1283.72  E(vib)   ...       0.01 
freq.    1285.44  E(vib)   ...       0.01 
freq.    1287.52  E(vib)   ...       0.01 
freq.    1288.95  E(vib)   ...       0.01 
freq.    1292.37  E(vib)   ...       0.01 
freq.    1293.80  E(vib)   ...       0.01 
freq.    1294.90  E(vib)   ...       0.01 
freq.    1295.95  E(vib)   ...       0.01 
freq.    1298.83  E(vib)   ...       0.01 
freq.    1300.49  E(vib)   ...       0.01 
freq.    1306.00  E(vib)   ...       0.01 
freq.    1309.45  E(vib)   ...       0.01 
freq.    1310.01  E(vib)   ...       0.01 
freq.    1321.27  E(vib)   ...       0.01 
freq.    1322.43  E(vib)   ...       0.01 
freq.    1323.65  E(vib)   ...       0.01 
freq.    1324.37  E(vib)   ...       0.01 
freq.    1334.02  E(vib)   ...       0.01 
freq.    1334.33  E(vib)   ...       0.01 
freq.    1335.32  E(vib)   ...       0.01 
freq.    1338.30  E(vib)   ...       0.01 
freq.    1339.88  E(vib)   ...       0.01 
freq.    1342.76  E(vib)   ...       0.01 
freq.    1349.19  E(vib)   ...       0.01 
freq.    1350.60  E(vib)   ...       0.01 
freq.    1351.41  E(vib)   ...       0.01 
freq.    1352.86  E(vib)   ...       0.01 
freq.    1358.15  E(vib)   ...       0.01 
freq.    1363.93  E(vib)   ...       0.01 
freq.    1368.42  E(vib)   ...       0.01 
freq.    1368.85  E(vib)   ...       0.01 
freq.    1371.89  E(vib)   ...       0.01 
freq.    1374.10  E(vib)   ...       0.01 
freq.    1402.16  E(vib)   ...       0.00 
freq.    1424.17  E(vib)   ...       0.00 
freq.    1427.51  E(vib)   ...       0.00 
freq.    1433.51  E(vib)   ...       0.00 
freq.    1433.93  E(vib)   ...       0.00 
freq.    1434.12  E(vib)   ...       0.00 
freq.    1434.58  E(vib)   ...       0.00 
freq.    1437.89  E(vib)   ...       0.00 
freq.    1438.01  E(vib)   ...       0.00 
freq.    1438.10  E(vib)   ...       0.00 
freq.    1438.85  E(vib)   ...       0.00 
freq.    1440.84  E(vib)   ...       0.00 
freq.    1440.99  E(vib)   ...       0.00 
freq.    1445.26  E(vib)   ...       0.00 
freq.    1446.38  E(vib)   ...       0.00 
freq.    1447.56  E(vib)   ...       0.00 
freq.    1449.38  E(vib)   ...       0.00 
freq.    1450.45  E(vib)   ...       0.00 
freq.    1451.03  E(vib)   ...       0.00 
freq.    1452.77  E(vib)   ...       0.00 
freq.    1454.61  E(vib)   ...       0.00 
freq.    1455.11  E(vib)   ...       0.00 
freq.    1457.01  E(vib)   ...       0.00 
freq.    1458.51  E(vib)   ...       0.00 
freq.    1459.18  E(vib)   ...       0.00 
freq.    1461.55  E(vib)   ...       0.00 
freq.    1463.31  E(vib)   ...       0.00 
freq.    1465.41  E(vib)   ...       0.00 
freq.    1477.51  E(vib)   ...       0.00 
freq.    1480.21  E(vib)   ...       0.00 
freq.    1484.56  E(vib)   ...       0.00 
freq.    1510.31  E(vib)   ...       0.00 
freq.    1517.02  E(vib)   ...       0.00 
freq.    1544.90  E(vib)   ...       0.00 
freq.    1625.97  E(vib)   ...       0.00 
freq.    1631.88  E(vib)   ...       0.00 
freq.    1656.75  E(vib)   ...       0.00 
freq.    1669.84  E(vib)   ...       0.00 
freq.    1677.19  E(vib)   ...       0.00 
freq.    1680.17  E(vib)   ...       0.00 
freq.    1693.63  E(vib)   ...       0.00 
freq.    2912.35  E(vib)   ...       0.00 
freq.    2925.41  E(vib)   ...       0.00 
freq.    2927.28  E(vib)   ...       0.00 
freq.    2931.01  E(vib)   ...       0.00 
freq.    2936.05  E(vib)   ...       0.00 
freq.    2939.33  E(vib)   ...       0.00 
freq.    2941.71  E(vib)   ...       0.00 
freq.    2943.32  E(vib)   ...       0.00 
freq.    2944.32  E(vib)   ...       0.00 
freq.    2945.16  E(vib)   ...       0.00 
freq.    2948.78  E(vib)   ...       0.00 
freq.    2949.71  E(vib)   ...       0.00 
freq.    2949.72  E(vib)   ...       0.00 
freq.    2951.85  E(vib)   ...       0.00 
freq.    2954.43  E(vib)   ...       0.00 
freq.    2955.04  E(vib)   ...       0.00 
freq.    2956.92  E(vib)   ...       0.00 
freq.    2958.57  E(vib)   ...       0.00 
freq.    2964.29  E(vib)   ...       0.00 
freq.    2968.64  E(vib)   ...       0.00 
freq.    2968.67  E(vib)   ...       0.00 
freq.    2968.96  E(vib)   ...       0.00 
freq.    2975.20  E(vib)   ...       0.00 
freq.    2978.07  E(vib)   ...       0.00 
freq.    2979.02  E(vib)   ...       0.00 
freq.    2980.48  E(vib)   ...       0.00 
freq.    2980.74  E(vib)   ...       0.00 
freq.    2985.23  E(vib)   ...       0.00 
freq.    2986.38  E(vib)   ...       0.00 
freq.    2986.53  E(vib)   ...       0.00 
freq.    2988.79  E(vib)   ...       0.00 
freq.    2990.40  E(vib)   ...       0.00 
freq.    2998.92  E(vib)   ...       0.00 
freq.    3007.36  E(vib)   ...       0.00 
freq.    3010.83  E(vib)   ...       0.00 
freq.    3012.95  E(vib)   ...       0.00 
freq.    3013.40  E(vib)   ...       0.00 
freq.    3014.34  E(vib)   ...       0.00 
freq.    3020.32  E(vib)   ...       0.00 
freq.    3020.89  E(vib)   ...       0.00 
freq.    3022.87  E(vib)   ...       0.00 
freq.    3023.89  E(vib)   ...       0.00 
freq.    3024.59  E(vib)   ...       0.00 
freq.    3027.66  E(vib)   ...       0.00 
freq.    3028.58  E(vib)   ...       0.00 
freq.    3030.11  E(vib)   ...       0.00 
freq.    3030.68  E(vib)   ...       0.00 
freq.    3030.83  E(vib)   ...       0.00 
freq.    3038.02  E(vib)   ...       0.00 
freq.    3041.32  E(vib)   ...       0.00 
freq.    3042.10  E(vib)   ...       0.00 
freq.    3042.29  E(vib)   ...       0.00 
freq.    3045.24  E(vib)   ...       0.00 
freq.    3051.35  E(vib)   ...       0.00 
freq.    3057.01  E(vib)   ...       0.00 
freq.    3060.55  E(vib)   ...       0.00 
freq.    3066.48  E(vib)   ...       0.00 
freq.    3068.26  E(vib)   ...       0.00 
freq.    3232.85  E(vib)   ...       0.00 
freq.    3284.12  E(vib)   ...       0.00 
freq.    3345.56  E(vib)   ...       0.00 
freq.    3486.63  E(vib)   ...       0.00 
freq.    3493.15  E(vib)   ...       0.00 
freq.    3663.02  E(vib)   ...       0.00 

------------
INNER ENERGY
------------

The inner energy is: U= E(el) + E(ZPE) + E(vib) + E(rot) + E(trans)
    E(el)   - is the total energy from the electronic structure calculation
              = E(kin-el) + E(nuc-el) + E(el-el) + E(nuc-nuc)
    E(ZPE)  - the the zero temperature vibrational energy from the frequency calculation
    E(vib)  - the the finite temperature correction to E(ZPE) due to population
              of excited vibrational states
    E(rot)  - is the rotational thermal energy
    E(trans)- is the translational thermal energy

Summary of contributions to the inner energy U:
Electronic energy                ...  -2380.07915478 Eh
Zero point energy                ...      0.97735980 Eh     613.30 kcal/mol
Thermal vibrational correction   ...      0.05496287 Eh      34.49 kcal/mol
Thermal rotational correction    ...      0.00141627 Eh       0.89 kcal/mol
Thermal translational correction ...      0.00141627 Eh       0.89 kcal/mol
-----------------------------------------------------------------------
Total thermal energy                  -2379.04399957 Eh


Summary of corrections to the electronic energy:
(perhaps to be used in another calculation)
Total thermal correction                  0.05779541 Eh      36.27 kcal/mol
Non-thermal (ZPE) correction              0.97735980 Eh     613.30 kcal/mol
-----------------------------------------------------------------------
Total correction                          1.03515521 Eh     649.57 kcal/mol


--------
ENTHALPY
--------

The enthalpy is H = U + kB*T
                kB is Boltzmann's constant
Total free energy                 ...  -2379.04399957 Eh 
Thermal Enthalpy correction       ...      0.00094421 Eh       0.59 kcal/mol
-----------------------------------------------------------------------
Total Enthalpy                    ...  -2379.04305536 Eh


Note: Only C1 symmetry has been detected, increase convergence thresholds 
      if your molecule has a higher symmetry. Symmetry factor of 1.0 is   
      used for the rotational entropy correction. 
 

Note: Rotational entropy computed according to Herzberg 
Infrared and Raman Spectra, Chapter V,1, Van Nostrand Reinhold, 1945 
Point Group:  C1, Symmetry Number:   1  
Rotational constants in cm-1:     0.002242     0.001039     0.000973 

Vibrational entropy computed according to the QRRHO of S. Grimme
Chem.Eur.J. 2012 18 9955


-------
ENTROPY
-------

The entropy contributions are T*S = T*(S(el)+S(vib)+S(rot)+S(trans))
     S(el)   - electronic entropy
     S(vib)  - vibrational entropy
     S(rot)  - rotational entropy
     S(trans)- translational entropy
The entropies will be listed as mutliplied by the temperature to get
units of energy

Electronic entropy                ...      0.00000000 Eh      0.00 kcal/mol
Vibrational entropy               ...      0.10026630 Eh     62.92 kcal/mol
Rotational entropy                ...      0.01890787 Eh     11.86 kcal/mol
Translational entropy             ...      0.02166895 Eh     13.60 kcal/mol
-----------------------------------------------------------------------
Final entropy term                ...      0.14084311 Eh     88.38 kcal/mol

In case the symmetry of your molecule has not been determined correctly
or in case you have a reason to use a different symmetry number we print 
out the resulting rotational entropy values for sn=1,12 :
 --------------------------------------------------------
|  sn= 1 | S(rot)=       0.01890787 Eh     11.86 kcal/mol|
|  sn= 2 | S(rot)=       0.01825341 Eh     11.45 kcal/mol|
|  sn= 3 | S(rot)=       0.01787058 Eh     11.21 kcal/mol|
|  sn= 4 | S(rot)=       0.01759895 Eh     11.04 kcal/mol|
|  sn= 5 | S(rot)=       0.01738827 Eh     10.91 kcal/mol|
|  sn= 6 | S(rot)=       0.01721612 Eh     10.80 kcal/mol|
|  sn= 7 | S(rot)=       0.01707058 Eh     10.71 kcal/mol|
|  sn= 8 | S(rot)=       0.01694450 Eh     10.63 kcal/mol|
|  sn= 9 | S(rot)=       0.01683329 Eh     10.56 kcal/mol|
|  sn=10 | S(rot)=       0.01673381 Eh     10.50 kcal/mol|
|  sn=11 | S(rot)=       0.01664382 Eh     10.44 kcal/mol|
|  sn=12 | S(rot)=       0.01656166 Eh     10.39 kcal/mol|
 --------------------------------------------------------


-------------------
GIBBS FREE ENERGY
-------------------

The Gibbs free energy is G = H - T*S

Total enthalpy                    ...  -2379.04305536 Eh 
Total entropy correction          ...     -0.14084311 Eh    -88.38 kcal/mol
-----------------------------------------------------------------------
Final Gibbs free energy         ...  -2379.18389847 Eh

For completeness - the Gibbs free energy minus the electronic energy
G-E(el)                           ...      0.89525630 Eh    561.78 kcal/mol

--------------------------------------------------------------------------
WARNING: No preset parameters were found for the device that Open MPI
detected:

  Local host:            eu-fn-2t-01
  Device name:           mlx5_1
  Device vendor ID:      0x02c9
  Device vendor part ID: 4123

Default device parameters will be used, which may result in lower
performance.  You can edit any of the files specified by the
btl_openib_device_param_files MCA parameter to set values for your
device.

NOTE: You can turn off this warning by setting the MCA parameter
      btl_openib_warn_no_device_params_found to 0.
--------------------------------------------------------------------------

Timings for individual modules:

Sum of individual times         ...    36578.735 sec (= 609.646 min)
GTO integral calculation        ...       12.500 sec (=   0.208 min)   0.0 %
SCF iterations                  ...      432.841 sec (=   7.214 min)   1.2 %
SCF Gradient evaluation         ...       71.960 sec (=   1.199 min)   0.2 %
Geometry relaxation             ...        3.935 sec (=   0.066 min)   0.0 %
Analytical frequency calculation...    36057.498 sec (= 600.958 min)  98.6 %
                             ****ORCA TERMINATED NORMALLY****
TOTAL RUN TIME: 0 days 10 hours 9 minutes 56 seconds 682 msec
