
                                 *****************
                                 * O   R   C   A *
                                 *****************

           --- An Ab Initio, DFT and Semiempirical electronic structure package ---

                  #######################################################
                  #                        -***-                        #
                  #          Department of theory and spectroscopy      #
                  #               Directorship: Frank Neese             #
                  #        Max Planck Institute fuer Kohlenforschung    #
                  #                Kaiser Wilhelm Platz 1               #
                  #                 D-45470 Muelheim/Ruhr               #
                  #                      Germany                        #
                  #                                                     #
                  #                  All rights reserved                #
                  #                        -***-                        #
                  #######################################################


                         Program Version 4.2.0 -  RELEASE  -


 With contributions from (in alphabetic order):
   Daniel Aravena         : Magnetic Suceptibility
   Michael Atanasov       : Ab Initio Ligand Field Theory (pilot matlab implementation)
   Alexander A. Auer      : GIAO ZORA, VPT2
   Ute Becker             : Parallelization
   Giovanni Bistoni       : ED, misc. LED, open-shell LED, HFLED
   Martin Brehm           : Molecular dynamics
   Dmytro Bykov           : SCF Hessian
   Vijay G. Chilkuri      : MRCI spin determinant printing, contributions to CSF-ICE
   Dipayan Datta          : RHF DLPNO-CCSD density
   Achintya Kumar Dutta   : EOM-CC, STEOM-CC
   Dmitry Ganyushin       : Spin-Orbit,Spin-Spin,Magnetic field MRCI
   Miquel Garcia          : C-PCM Hessian, Gaussian charge scheme
   Yang Guo               : DLPNO-NEVPT2, CIM, IAO-localization
   Andreas Hansen         : Spin unrestricted coupled pair/coupled cluster methods
   Benjamin Helmich-Paris : CASSCF linear response (MC-RPA)
   Lee Huntington         : MR-EOM, pCC
   Robert Izsak           : Overlap fitted RIJCOSX, COSX-SCS-MP3, EOM
   Christian Kollmar      : KDIIS, OOCD, Brueckner-CCSD(T), CCSD density
   Simone Kossmann        : Meta GGA functionals, TD-DFT gradient, OOMP2, MP2 Hessian
   Martin Krupicka        : AUTO-CI
   Lucas Lang             : DCDCAS
   Dagmar Lenk            : GEPOL surface, SMD
   Dimitrios Liakos       : Extrapolation schemes; Compound Job, initial MDCI parallelization
   Dimitrios Manganas     : Further ROCIS development; embedding schemes
   Dimitrios Pantazis     : SARC Basis sets
   Taras Petrenko         : DFT Hessian,TD-DFT gradient, ASA, ECA, R-Raman, ABS, FL, XAS/XES, NRVS
   Peter Pinski           : DLPNO-MP2, DLPNO-MP2 Gradient
   Christoph Reimann      : Effective Core Potentials
   Marius Retegan         : Local ZFS, SOC
   Christoph Riplinger    : Optimizer, TS searches, QM/MM, DLPNO-CCSD(T), (RO)-DLPNO pert. Triples
   Tobias Risthaus        : Range-separated hybrids, TD-DFT gradient, RPA, STAB
   Michael Roemelt        : Original ROCIS implementation
   Masaaki Saitow         : Open-shell DLPNO-CCSD energy and density
   Barbara Sandhoefer     : DKH picture change effects
   Avijit Sen             : IP-ROCIS
   Kantharuban Sivalingam : CASSCF convergence, NEVPT2, FIC-MRCI
   Bernardo de Souza      : ESD, SOC TD-DFT
   Georgi Stoychev        : AutoAux, RI-MP2 NMR
   Willem Van den Heuvel  : Paramagnetic NMR
   Boris Wezisla          : Elementary symmetry handling
   Frank Wennmohs         : Technical directorship


 We gratefully acknowledge several colleagues who have allowed us to
 interface, adapt or use parts of their codes:
   Stefan Grimme, W. Hujo, H. Kruse,             : VdW corrections, initial TS optimization,
                  C. Bannwarth                     DFT functionals, gCP, sTDA/sTD-DF
   Ed Valeev, F. Pavosevic, A. Kumar             : LibInt (2-el integral package), F12 methods
   Garnet Chan, S. Sharma, J. Yang, R. Olivares  : DMRG
   Ulf Ekstrom                                   : XCFun DFT Library
   Mihaly Kallay                                 : mrcc  (arbitrary order and MRCC methods)
   Andreas Klamt, Michael Diedenhofen            : otool_cosmo (COSMO solvation model)
   Jiri Pittner, Ondrej Demel                    : Mk-CCSD
   Frank Weinhold                                : gennbo (NPA and NBO analysis)
   Christopher J. Cramer and Donald G. Truhlar   : smd solvation model
   Lars Goerigk                                  : TD-DFT with DH, B97 family of functionals
   V. Asgeirsson, H. Jonsson                     : NEB implementation
   FAccTs GmbH                                   : IRC, NEB, NEB-TS, Multilevel, MM, QM/MM, CI optimization
   S Lehtola, MJT Oliveira, MAL Marques          : LibXC Library


 Your calculation uses the libint2 library for the computation of 2-el integrals
 For citations please refer to: http://libint.valeyev.net

 Your ORCA version has been built with support for libXC version: 4.2.3
 For citations please refer to: https://tddft.org/programs/libxc/

 This ORCA versions uses:
   CBLAS   interface :  Fast vector & matrix operations
   LAPACKE interface :  Fast linear algebra routines
   SCALAPACK package :  Parallel linear algebra routines




***************************************
The coordinates will be read from file: 65.xyz
***************************************


Your calculation utilizes the atom-pairwise dispersion correction
with the Becke-Johnson damping scheme (D3BJ)
Cite in your paper:
S.Grimme, S.Ehrlich, L.Goerigk, J Comput Chem, (2011), 32, 1456–1465 
S.Grimme, J.Antony, S.Ehrlich and H.Krieg, J.Chem.Phys., 132, (2010), 154104 
   

----- Orbital basis set information -----
Your calculation utilizes the basis: def2-TZVP
   F. Weigend and R. Ahlrichs, Phys. Chem. Chem. Phys. 7, 3297 (2005).

----- AuxJ basis set information -----
Your calculation utilizes the auxiliary basis: def2/J
   F. Weigend, Phys. Chem. Chem. Phys. 8, 1057 (2006).

================================================================================
                                        WARNINGS
                       Please study these warnings very carefully!
================================================================================


WARNING: Geometry Optimization
  ===> : Switching off AutoStart
         For restart on a previous wavefunction, please use MOREAD

INFO   : the flag for use of LIBINT has been found!

================================================================================
                                       INPUT FILE
================================================================================
NAME = 65.inp
|  1> !RI BP86 def2-tzvp def2/J D3BJ TIGHTSCF TightOpt Grid5 FinalGrid6 freq
|  2> %maxcore 4000
|  3> %pal nprocs 24
|  4> end
|  5> * xyzfile 0 1 65.xyz 
|  6> 
|  7>                          ****END OF INPUT****
================================================================================

                       *****************************
                       * Geometry Optimization Run *
                       *****************************

Geometry optimization settings:
Update method            Update   .... BFGS
Choice of coordinates    CoordSys .... Z-matrix Internals
Initial Hessian          InHess   .... Almoef's Model

Convergence Tolerances:
Energy Change            TolE     ....  1.0000e-06 Eh
Max. Gradient            TolMAXG  ....  1.0000e-04 Eh/bohr
RMS Gradient             TolRMSG  ....  3.0000e-05 Eh/bohr
Max. Displacement        TolMAXD  ....  1.0000e-03 bohr
RMS Displacement         TolRMSD  ....  6.0000e-04 bohr
Strict Convergence                ....  False
------------------------------------------------------------------------------
                        ORCA OPTIMIZATION COORDINATE SETUP
------------------------------------------------------------------------------

The optimization will be done in new redundant internal coordinates
Making redundant internal coordinates   ...  (new redundants) done
Evaluating the initial hessian          ...  (Almloef) done
Evaluating the coordinates              ...  done
Calculating the B-matrix                .... done
Calculating the G-matrix                .... done
Diagonalizing the G-matrix              .... done
Small eigenvalue found = 3.029e-04
Small eigenvalue found = 4.403e-04
Small eigenvalue found = 2.053e-03
Small eigenvalue found = 3.098e-03
Small eigenvalue found = 4.437e-03
Small eigenvalue found = 4.636e-03
Small eigenvalue found = 4.785e-03
Small eigenvalue found = 5.574e-03
Small eigenvalue found = 7.140e-03
Small eigenvalue found = 8.463e-03
Small eigenvalue found = 1.054e-02
Small eigenvalue found = 1.151e-02
Small eigenvalue found = 1.315e-02
Small eigenvalue found = 1.419e-02
Small eigenvalue found = 1.763e-02
Small eigenvalue found = 1.939e-02
Small eigenvalue found = 2.073e-02
Small eigenvalue found = 2.268e-02
Small eigenvalue found = 2.900e-02
The first mode is                       ....  325
The number of degrees of freedom        ....  339

    -----------------------------------------------------------------
                    Redundant Internal Coordinates


    -----------------------------------------------------------------
         Definition                    Initial Value    Approx d2E/dq
    -----------------------------------------------------------------
      1. B(C   1,O   0)                  1.2318         1.000670   
      2. B(C   2,C   1)                  1.5342         0.367819   
      3. B(C   3,C   2)                  1.5416         0.357992   
      4. B(C   4,C   3)                  1.5345         0.367400   
      5. B(C   5,C   4)                  1.5323         0.370376   
      6. B(N   6,C   2)                  1.4651         0.424603   
      7. B(N   6,C   5)                  1.4784         0.404391   
      8. B(C   7,N   6)                  1.3770         0.587023   
      9. B(O   8,C   7)                  1.2287         1.012167   
     10. B(N   9,C   1)                  1.3634         0.617123   
     11. B(C  10,N   9)                  1.4554         0.440086   
     12. B(C  11,C  10)                  1.5416         0.357995   
     13. B(N  12,C  11)                  1.3661         0.610956   
     14. B(C  13,N  12)                  1.4622         0.429233   
     15. B(C  14,C  13)                  1.5311         0.372118   
     16. B(N  15,C  14)                  1.3488         0.651048   
     17. B(C  16,N  15)                  1.4556         0.439734   
     18. B(C  17,C  16)                  1.5388         0.361639   
     19. B(C  18,C  17)                  1.5478         0.349913   
     20. B(C  19,C  18)                  1.5500         0.347057   
     21. B(N  20,C  19)                  1.3677         0.607264   
     22. B(C  21,N  20)                  1.4663         0.422839   
     23. B(C  22,C  21)                  1.5434         0.355612   
     24. B(N  23,C  22)                  1.3518         0.643881   
     25. B(C  24,C   7)                  1.5459         0.352365   
     26. B(C  24,N  23)                  1.4644         0.425846   
     27. B(C  25,C  24)                  1.5270         0.377706   
     28. B(O  26,C  22)                  1.2337         0.993833   
     29. B(C  27,C  21)                  1.5393         0.360986   
     30. B(C  28,C  27)                  1.5349         0.366930   
     31. B(C  29,C  28)                  1.5322         0.370610   
     32. B(C  30,C  28)                  1.5321         0.370747   
     33. B(O  31,C  19)                  1.2264         1.020576   
     34. B(C  32,C  18)                  1.5188         0.389270   
     35. B(C  33,C  32)                  1.5129         0.397749   
     36. B(C  34,C  33)                  1.5302         0.373278   
     37. B(C  35,C  34)                  1.5317         0.371199   
     38. B(C  36,C  35)                  1.5309         0.372391   
     39. B(C  37,C  36)                  1.5304         0.372988   
     40. B(C  38,C  37)                  1.5301         0.373371   
     41. B(C  39,C  38)                  1.5301         0.373374   
     42. B(C  40,C  39)                  1.5310         0.372220   
     43. B(C  41,C  40)                  1.5298         0.373863   
     44. B(O  42,C  32)                  1.2290         1.011063   
     45. B(O  43,C  17)                  1.4297         0.483694   
     46. B(O  44,C  14)                  1.2424         0.962273   
     47. B(C  45,C  13)                  1.5309         0.372409   
     48. B(C  46,C  45)                  1.5274         0.377217   
     49. B(O  47,C  11)                  1.2275         1.016549   
     50. B(C  48,C  10)                  1.5440         0.354857   
     51. B(C  49,C  48)                  1.5337         0.368484   
     52. B(C  50,C  48)                  1.5332         0.369179   
     53. B(H  51,C   2)                  1.0940         0.354844   
     54. B(H  52,C   3)                  1.0995         0.347725   
     55. B(H  53,C   3)                  1.0965         0.351643   
     56. B(H  54,C   4)                  1.1006         0.346292   
     57. B(H  55,C   4)                  1.0970         0.351017   
     58. B(H  56,C   5)                  1.0982         0.349395   
     59. B(H  57,C   5)                  1.1011         0.345757   
     60. B(H  58,N   9)                  1.0175         0.420905   
     61. B(H  59,C  10)                  1.1011         0.345695   
     62. B(H  60,N  12)                  1.0186         0.419261   
     63. B(H  61,C  13)                  1.1006         0.346303   
     64. B(H  62,N  15)                  1.0138         0.426757   
     65. B(H  63,C  16)                  1.0955         0.352867   
     66. B(H  64,H  51)                  2.8944         0.000091   
     67. B(H  64,C  16)                  1.0980         0.349690   
     68. B(H  65,C  17)                  1.0987         0.348795   
     69. B(H  66,C  18)                  1.1003         0.346771   
     70. B(H  67,N  20)                  1.0161         0.423105   
     71. B(H  68,C  21)                  1.1000         0.347096   
     72. B(H  69,O  44)                  2.1080         0.007663   
     73. B(H  69,N  23)                  1.0211         0.415460   
     74. B(H  70,C  24)                  1.1023         0.344174   
     75. B(H  71,C  25)                  1.0977         0.350072   
     76. B(H  72,C  25)                  1.0964         0.351724   
     77. B(H  73,C  25)                  1.0966         0.351470   
     78. B(H  74,C  27)                  1.1006         0.346404   
     79. B(H  75,C  27)                  1.0983         0.349317   
     80. B(H  76,C  28)                  1.1037         0.342463   
     81. B(H  77,C  29)                  1.0994         0.347856   
     82. B(H  78,C  29)                  1.1012         0.345605   
     83. B(H  79,C  29)                  1.1000         0.347076   
     84. B(H  80,C  30)                  1.1002         0.346831   
     85. B(H  81,C  30)                  1.0994         0.347841   
     86. B(H  82,C  30)                  1.1012         0.345572   
     87. B(H  83,C  33)                  1.1023         0.344233   
     88. B(H  84,C  33)                  1.1059         0.339642   
     89. B(H  85,C  34)                  1.1001         0.346923   
     90. B(H  86,H  80)                  2.4994         0.000389   
     91. B(H  86,C  34)                  1.1017         0.345006   
     92. B(H  87,C  35)                  1.1026         0.343784   
     93. B(H  88,C  35)                  1.1045         0.341467   
     94. B(H  89,C  36)                  1.1036         0.342595   
     95. B(H  90,C  36)                  1.1044         0.341519   
     96. B(H  91,C  37)                  1.1042         0.341824   
     97. B(H  92,C  37)                  1.1043         0.341693   
     98. B(H  93,C  38)                  1.1044         0.341537   
     99. B(H  94,C  38)                  1.1043         0.341621   
    100. B(H  95,C  39)                  1.1045         0.341421   
    101. B(H  96,C  39)                  1.1045         0.341405   
    102. B(H  97,C  40)                  1.1034         0.342802   
    103. B(H  98,C  40)                  1.1034         0.342803   
    104. B(H  99,C  41)                  1.0994         0.347930   
    105. B(H 100,C  41)                  1.1007         0.346225   
    106. B(H 101,C  41)                  1.1007         0.346212   
    107. B(H 102,O  43)                  0.9762         0.489879   
    108. B(H 103,C  45)                  1.1020         0.344592   
    109. B(H 104,C  45)                  1.1006         0.346340   
    110. B(H 105,C  46)                  1.0985         0.349057   
    111. B(H 106,C  46)                  1.0995         0.347695   
    112. B(H 107,C  46)                  1.0990         0.348383   
    113. B(H 108,C  48)                  1.1018         0.344763   
    114. B(H 109,C  49)                  1.0983         0.349308   
    115. B(H 110,C  49)                  1.0986         0.348873   
    116. B(H 111,H  72)                  4.3816         0.000000   
    117. B(H 111,C  49)                  1.1020         0.344547   
    118. B(H 112,C  50)                  1.0993         0.348039   
    119. B(H 113,C  50)                  1.1012         0.345635   
    120. B(H 114,C  50)                  1.0989         0.348535   
    121. A(O   0,C   1,N   9)          123.0481         0.466854   
    122. A(C   2,C   1,N   9)          115.9542         0.392762   
    123. A(O   0,C   1,C   2)          120.9959         0.427880   
    124. A(C   1,C   2,H  51)          105.6628         0.322714   
    125. A(N   6,C   2,H  51)          111.6612         0.328446   
    126. A(C   1,C   2,N   6)          114.2418         0.368112   
    127. A(C   1,C   2,C   3)          110.6557         0.359765   
    128. A(C   3,C   2,H  51)          111.5197         0.321286   
    129. A(C   3,C   2,N   6)          103.2547         0.366406   
    130. A(C   4,C   3,H  53)          114.3922         0.322175   
    131. A(C   4,C   3,H  52)          110.3095         0.321585   
    132. A(C   2,C   3,C   4)          102.8984         0.359695   
    133. A(C   2,C   3,H  53)          111.7566         0.320810   
    134. A(C   2,C   3,H  52)          108.6403         0.320223   
    135. A(H  52,C   3,H  53)          108.6454         0.288174   
    136. A(H  54,C   4,H  55)          107.6849         0.287908   
    137. A(C   3,C   4,H  55)          112.9782         0.322081   
    138. A(C   3,C   4,C   5)          103.4547         0.361787   
    139. A(C   3,C   4,H  54)          110.0873         0.321367   
    140. A(C   5,C   4,H  55)          112.0635         0.322507   
    141. A(C   5,C   4,H  54)          110.5735         0.321792   
    142. A(H  56,C   5,H  57)          107.1955         0.287630   
    143. A(C   4,C   5,N   6)          103.7859         0.365481   
    144. A(C   4,C   5,H  56)          113.7053         0.322262   
    145. A(N   6,C   5,H  57)          108.7885         0.324431   
    146. A(N   6,C   5,H  56)          110.7294         0.324990   
    147. A(C   4,C   5,H  57)          112.5754         0.321710   
    148. A(C   5,N   6,C   7)          118.0341         0.393331   
    149. A(C   2,N   6,C   7)          128.3750         0.396710   
    150. A(C   2,N   6,C   5)          112.0330         0.371818   
    151. A(O   8,C   7,C  24)          120.9658         0.425472   
    152. A(N   6,C   7,O   8)          120.0949         0.463568   
    153. A(N   6,C   7,C  24)          118.6579         0.386439   
    154. A(C   1,N   9,C  10)          121.4869         0.402745   
    155. A(C  10,N   9,H  58)          120.9949         0.336982   
    156. A(C   1,N   9,H  58)          117.2397         0.356704   
    157. A(C  48,C  10,H  59)          108.7595         0.319457   
    158. A(C  11,C  10,H  59)          103.4852         0.319917   
    159. A(N   9,C  10,C  11)          112.5106         0.368665   
    160. A(N   9,C  10,C  48)          111.3981         0.368108   
    161. A(N   9,C  10,H  59)          108.3724         0.328972   
    162. A(C  11,C  10,C  48)          111.8983         0.357576   
    163. A(N  12,C  11,O  47)          124.0598         0.467341   
    164. A(C  10,C  11,O  47)          120.9470         0.427012   
    165. A(C  10,C  11,N  12)          114.9775         0.390220   
    166. A(C  13,N  12,H  60)          115.2534         0.335366   
    167. A(C  11,N  12,C  13)          122.1186         0.400269   
    168. A(C  11,N  12,H  60)          116.1027         0.355860   
    169. A(C  14,C  13,C  45)          111.8722         0.362915   
    170. A(N  12,C  13,H  61)          105.8069         0.327715   
    171. A(C  14,C  13,H  61)          111.5401         0.322041   
    172. A(N  12,C  13,C  14)          104.3392         0.369535   
    173. A(C  45,C  13,H  61)          110.2436         0.322082   
    174. A(N  12,C  13,C  45)          112.7722         0.369584   
    175. A(C  13,C  14,N  15)          117.1539         0.397273   
    176. A(N  15,C  14,O  44)          122.2188         0.468086   
    177. A(C  13,C  14,O  44)          120.4890         0.425776   
    178. A(C  14,N  15,H  62)          119.2986         0.360814   
    179. A(C  16,N  15,H  62)          120.1379         0.337713   
    180. A(C  14,N  15,C  16)          119.7731         0.406511   
    181. A(H  63,C  16,H  64)          107.6988         0.288585   
    182. A(C  17,C  16,H  64)          111.0405         0.321050   
    183. A(N  15,C  16,H  63)          109.1798         0.330047   
    184. A(C  17,C  16,H  63)          110.4717         0.321525   
    185. A(N  15,C  16,C  17)          110.9294         0.369256   
    186. A(N  15,C  16,H  64)          107.4078         0.329554   
    187. A(O  43,C  17,H  65)          105.4844         0.334655   
    188. A(C  18,C  17,H  65)          106.1151         0.319191   
    189. A(C  16,C  17,H  65)          107.5051         0.320915   
    190. A(C  16,C  17,C  18)          115.6189         0.357339   
    191. A(C  18,C  17,O  43)          110.2589         0.373237   
    192. A(C  16,C  17,O  43)          111.1910         0.375365   
    193. A(C  19,C  18,H  66)          103.5394         0.318462   
    194. A(C  17,C  18,H  66)          106.5646         0.318888   
    195. A(C  17,C  18,C  32)          114.2835         0.361848   
    196. A(C  17,C  18,C  19)          112.6072         0.354851   
    197. A(C  19,C  18,C  32)          111.1373         0.361342   
    198. A(C  32,C  18,H  66)          107.9093         0.324502   
    199. A(C  18,C  19,N  20)          115.0924         0.387702   
    200. A(N  20,C  19,O  31)          123.7351         0.467161   
    201. A(C  18,C  19,O  31)          121.1690         0.424947   
    202. A(C  19,N  20,H  67)          117.1801         0.356045   
    203. A(C  19,N  20,C  21)          125.7930         0.398788   
    204. A(C  21,N  20,H  67)          116.7519         0.335039   
    205. A(C  27,C  21,H  68)          108.1011         0.320564   
    206. A(C  22,C  21,H  68)          103.2292         0.319780   
    207. A(N  20,C  21,H  68)          105.0087         0.327029   
    208. A(N  20,C  21,C  22)          116.6776         0.365727   
    209. A(C  22,C  21,C  27)          109.5594         0.358212   
    210. A(N  20,C  21,C  27)          113.3274         0.366668   
    211. A(C  21,C  22,N  23)          118.1466         0.393360   
    212. A(C  21,C  22,O  26)          118.2220         0.424779   
    213. A(N  23,C  22,O  26)          123.5605         0.469910   
    214. A(C  22,N  23,C  24)          122.6647         0.403424   
    215. A(C  24,N  23,H  69)          115.0200         0.334419   
    216. A(C  22,N  23,H  69)          121.6652         0.358493   
    217. A(C  25,C  24,H  70)          108.6832         0.322502   
    218. A(N  23,C  24,H  70)          104.3514         0.326955   
    219. A(C   7,C  24,H  70)          107.2029         0.318861   
    220. A(N  23,C  24,C  25)          111.1880         0.369978   
    221. A(C   7,C  24,N  23)          114.3471         0.365596   
    222. A(C   7,C  24,C  25)          110.6624         0.360421   
    223. A(H  71,C  25,H  73)          109.5436         0.288455   
    224. A(C  24,C  25,H  73)          109.9360         0.323614   
    225. A(H  71,C  25,H  72)          109.4980         0.288488   
    226. A(C  24,C  25,H  72)          110.6038         0.323652   
    227. A(C  24,C  25,H  71)          109.1869         0.323402   
    228. A(H  72,C  25,H  73)          108.0541         0.288668   
    229. A(C  28,C  27,H  75)          109.7309         0.321758   
    230. A(C  21,C  27,C  28)          114.4069         0.360127   
    231. A(H  74,C  27,H  75)          107.5831         0.287704   
    232. A(C  21,C  27,H  75)          108.5958         0.320899   
    233. A(C  28,C  27,H  74)          109.9538         0.321317   
    234. A(C  21,C  27,H  74)          106.3126         0.320460   
    235. A(C  29,C  28,C  30)          110.8517         0.362387   
    236. A(C  27,C  28,C  30)          112.4625         0.361770   
    237. A(C  27,C  28,C  29)          109.8688         0.361747   
    238. A(C  30,C  28,H  76)          108.0795         0.321260   
    239. A(C  29,C  28,H  76)          107.5067         0.321240   
    240. A(C  27,C  28,H  76)          107.8856         0.320716   
    241. A(C  28,C  29,H  79)          111.1622         0.321944   
    242. A(H  78,C  29,H  79)          107.6857         0.287311   
    243. A(H  77,C  29,H  79)          108.1099         0.287602   
    244. A(H  77,C  29,H  78)          107.8054         0.287412   
    245. A(C  28,C  29,H  78)          110.7883         0.321721   
    246. A(C  28,C  29,H  77)          111.1420         0.322063   
    247. A(H  81,C  30,H  82)          107.8293         0.287405   
    248. A(H  80,C  30,H  82)          107.5542         0.287275   
    249. A(C  28,C  30,H  82)          110.6530         0.321735   
    250. A(H  80,C  30,H  81)          107.1754         0.287569   
    251. A(C  28,C  30,H  81)          110.9563         0.322080   
    252. A(C  28,C  30,H  80)          112.4668         0.321927   
    253. A(C  33,C  32,O  42)          122.2418         0.434741   
    254. A(C  18,C  32,O  42)          121.7969         0.433059   
    255. A(C  18,C  32,C  33)          115.9586         0.369877   
    256. A(C  32,C  33,C  34)          113.9996         0.367223   
    257. A(C  34,C  33,H  84)          110.7724         0.321182   
    258. A(H  83,C  33,H  84)          105.3688         0.286164   
    259. A(C  32,C  33,H  84)          105.7381         0.324543   
    260. A(C  34,C  33,H  83)          111.1258         0.321889   
    261. A(C  32,C  33,H  83)          109.3552         0.325260   
    262. A(C  33,C  34,C  35)          113.0607         0.362906   
    263. A(H  85,C  34,H  86)          106.1702         0.287213   
    264. A(C  35,C  34,H  86)          109.1609         0.321713   
    265. A(C  33,C  34,H  86)          108.4696         0.322007   
    266. A(C  35,C  34,H  85)          110.4648         0.322005   
    267. A(C  33,C  34,H  85)          109.2629         0.322300   
    268. A(C  34,C  35,C  36)          114.4534         0.362759   
    269. A(H  87,C  35,H  88)          105.9515         0.286345   
    270. A(C  36,C  35,H  88)          109.2766         0.321339   
    271. A(C  34,C  35,H  88)          109.2660         0.321170   
    272. A(C  36,C  35,H  87)          108.9394         0.321695   
    273. A(C  34,C  35,H  87)          108.6089         0.321526   
    274. A(C  35,C  36,C  37)          113.1420         0.363057   
    275. A(H  89,C  36,H  90)          106.0474         0.286197   
    276. A(C  37,C  36,H  90)          109.4263         0.321431   
    277. A(C  35,C  36,H  90)          109.2144         0.321347   
    278. A(C  37,C  36,H  89)          108.7377         0.321597   
    279. A(C  35,C  36,H  89)          110.0263         0.321512   
    280. A(C  36,C  37,C  38)          113.4625         0.363220   
    281. A(H  91,C  37,H  92)          105.9253         0.286119   
    282. A(C  38,C  37,H  92)          109.3113         0.321512   
    283. A(C  36,C  37,H  92)          109.2296         0.321458   
    284. A(C  38,C  37,H  91)          109.3665         0.321532   
    285. A(C  36,C  37,H  91)          109.2700         0.321478   
    286. A(C  37,C  38,C  39)          113.5248         0.363284   
    287. A(H  93,C  38,H  94)          105.9085         0.286072   
    288. A(C  39,C  38,H  94)          109.3022         0.321501   
    289. A(C  37,C  38,H  94)          109.2792         0.321501   
    290. A(C  39,C  38,H  93)          109.2725         0.321488   
    291. A(C  37,C  38,H  93)          109.2725         0.321488   
    292. A(C  38,C  39,C  40)          113.5481         0.363093   
    293. A(H  95,C  39,H  96)          105.8768         0.286029   
    294. A(C  40,C  39,H  96)          109.2458         0.321305   
    295. A(C  38,C  39,H  96)          109.3128         0.321468   
    296. A(C  40,C  39,H  95)          109.2510         0.321308   
    297. A(C  38,C  39,H  95)          109.3212         0.321471   
    298. A(C  39,C  40,C  41)          113.1215         0.363174   
    299. A(H  97,C  40,H  98)          105.9449         0.286391   
    300. A(C  41,C  40,H  98)          109.6400         0.321752   
    301. A(C  39,C  40,H  98)          109.1246         0.321520   
    302. A(C  41,C  40,H  97)          109.6343         0.321752   
    303. A(C  39,C  40,H  97)          109.1218         0.321520   
    304. A(H 100,C  41,H 101)          107.4538         0.287279   
    305. A(H  99,C  41,H 101)          107.6876         0.287500   
    306. A(C  40,C  41,H 101)          111.0973         0.322274   
    307. A(H  99,C  41,H 100)          107.6851         0.287502   
    308. A(C  40,C  41,H 100)          111.0946         0.322276   
    309. A(C  40,C  41,H  99)          111.6311         0.322536   
    310. A(C  17,O  43,H 102)          106.3667         0.351195   
    311. A(C  13,C  45,C  46)          112.3714         0.363760   
    312. A(C  46,C  45,H 104)          111.1107         0.322766   
    313. A(C  13,C  45,H 104)          108.2727         0.322088   
    314. A(C  46,C  45,H 103)          110.4777         0.322498   
    315. A(C  13,C  45,H 103)          108.0163         0.321821   
    316. A(H 103,C  45,H 104)          106.3529         0.287084   
    317. A(H 106,C  46,H 107)          107.4685         0.287751   
    318. A(H 105,C  46,H 107)          107.9599         0.287927   
    319. A(C  45,C  46,H 107)          110.8752         0.323077   
    320. A(H 105,C  46,H 106)          108.1041         0.287838   
    321. A(C  45,C  46,H 106)          111.3790         0.322972   
    322. A(C  45,C  46,H 105)          110.9042         0.323179   
    323. A(C  50,C  48,H 108)          108.3046         0.321389   
    324. A(C  49,C  48,H 108)          108.2501         0.321289   
    325. A(C  10,C  48,H 108)          104.5875         0.319317   
    326. A(C  49,C  48,C  50)          111.4841         0.361769   
    327. A(C  10,C  48,C  50)          110.8728         0.359452   
    328. A(C  10,C  48,C  49)          112.9748         0.359337   
    329. A(H 110,C  49,H 111)          106.7487         0.287405   
    330. A(H 109,C  49,H 111)          107.8498         0.287461   
    331. A(C  48,C  49,H 111)          112.1310         0.321257   
    332. A(H 109,C  49,H 110)          107.9832         0.288022   
    333. A(C  48,C  49,H 110)          110.1752         0.321913   
    334. A(C  48,C  49,H 109)          111.7337         0.321979   
    335. A(H 113,C  50,H 114)          107.1659         0.287503   
    336. A(H 112,C  50,H 114)          108.1181         0.287815   
    337. A(C  48,C  50,H 114)          110.5573         0.321962   
    338. A(H 112,C  50,H 113)          107.8367         0.287439   
    339. A(C  48,C  50,H 113)          111.6823         0.321521   
    340. A(C  48,C  50,H 112)          111.3052         0.321887   
    341. D(H  51,C   2,C   1,N   9)   -131.7435         0.010140   
    342. D(C   3,C   2,C   1,N   9)    107.4033         0.010140   
    343. D(N   6,C   2,C   1,N   9)     -8.6038         0.010140   
    344. D(N   6,C   2,C   1,O   0)    171.8648         0.010140   
    345. D(C   3,C   2,C   1,O   0)    -72.1282         0.010140   
    346. D(H  51,C   2,C   1,O   0)     48.7251         0.010140   
    347. D(C   4,C   3,C   2,N   6)     32.7928         0.010290   
    348. D(H  53,C   3,C   2,H  51)    -83.9733         0.010290   
    349. D(H  53,C   3,C   2,C   1)     33.3357         0.010290   
    350. D(C   4,C   3,C   2,H  51)    152.8270         0.010290   
    351. D(H  53,C   3,C   2,N   6)    155.9925         0.010290   
    352. D(H  52,C   3,C   2,H  51)     35.8885         0.010290   
    353. D(C   4,C   3,C   2,C   1)    -89.8640         0.010290   
    354. D(H  52,C   3,C   2,C   1)    153.1975         0.010290   
    355. D(H  52,C   3,C   2,N   6)    -84.1457         0.010290   
    356. D(H  55,C   4,C   3,H  53)     78.9331         0.010800   
    357. D(H  55,C   4,C   3,H  52)    -43.8963         0.010800   
    358. D(H  54,C   4,C   3,H  52)   -164.3206         0.010800   
    359. D(H  55,C   4,C   3,C   2)   -159.6427         0.010800   
    360. D(H  54,C   4,C   3,H  53)    -41.4912         0.010800   
    361. D(C   5,C   4,C   3,C   2)    -38.2454         0.010800   
    362. D(H  54,C   4,C   3,C   2)     79.9330         0.010800   
    363. D(C   5,C   4,C   3,H  53)   -159.6696         0.010800   
    364. D(C   5,C   4,C   3,H  52)     77.5010         0.010800   
    365. D(N   6,C   5,C   4,C   3)     28.8115         0.010965   
    366. D(H  57,C   5,C   4,C   3)    -88.6504         0.010965   
    367. D(H  56,C   5,C   4,H  55)    -88.7946         0.010965   
    368. D(H  56,C   5,C   4,C   3)    149.1941         0.010965   
    369. D(H  57,C   5,C   4,H  54)    153.5099         0.010965   
    370. D(H  56,C   5,C   4,H  54)     31.3544         0.010965   
    371. D(H  57,C   5,C   4,H  55)     33.3609         0.010965   
    372. D(N   6,C   5,C   4,H  54)    -89.0282         0.010965   
    373. D(N   6,C   5,C   4,H  55)    150.8228         0.010965   
    374. D(C   5,N   6,C   2,C   3)    -15.4184         0.015371   
    375. D(C   7,N   6,C   5,H  57)    -55.2726         0.013957   
    376. D(C   7,N   6,C   5,H  56)     62.2850         0.013957   
    377. D(C   7,N   6,C   5,C   4)   -175.3393         0.013957   
    378. D(C   2,N   6,C   5,H  57)    111.6922         0.013957   
    379. D(C   2,N   6,C   5,H  56)   -130.7502         0.013957   
    380. D(C   7,N   6,C   2,H  51)     29.9332         0.015371   
    381. D(C   2,N   6,C   5,C   4)     -8.3745         0.013957   
    382. D(C   7,N   6,C   2,C   3)    149.8704         0.015371   
    383. D(C   5,N   6,C   2,C   1)    104.8148         0.015371   
    384. D(C   7,N   6,C   2,C   1)    -89.8964         0.015371   
    385. D(C   5,N   6,C   2,H  51)   -135.3556         0.015371   
    386. D(C  24,C   7,N   6,C   5)    172.1479         0.027683   
    387. D(C  24,C   7,N   6,C   2)      7.6154         0.027683   
    388. D(O   8,C   7,N   6,C   5)    -13.8848         0.027683   
    389. D(O   8,C   7,N   6,C   2)   -178.4173         0.027683   
    390. D(H  58,N   9,C   1,O   0)    179.2723         0.030816   
    391. D(C  10,N   9,C   1,C   2)   -174.2439         0.030816   
    392. D(H  58,N   9,C   1,C   2)     -0.2485         0.030816   
    393. D(C  10,N   9,C   1,O   0)      5.2769         0.030816   
    394. D(H  59,C  10,N   9,C   1)     47.5597         0.016515   
    395. D(C  48,C  10,N   9,H  58)     -6.6009         0.016515   
    396. D(C  48,C  10,N   9,C   1)    167.1702         0.016515   
    397. D(C  11,C  10,N   9,C   1)    -66.2453         0.016515   
    398. D(H  59,C  10,N   9,H  58)   -126.2114         0.016515   
    399. D(C  11,C  10,N   9,H  58)    119.9836         0.016515   
    400. D(O  47,C  11,C  10,N   9)    152.2348         0.009646   
    401. D(N  12,C  11,C  10,H  59)   -145.9100         0.009646   
    402. D(N  12,C  11,C  10,C  48)     97.1650         0.009646   
    403. D(N  12,C  11,C  10,N   9)    -29.1507         0.009646   
    404. D(O  47,C  11,C  10,H  59)     35.4755         0.009646   
    405. D(O  47,C  11,C  10,C  48)    -81.4495         0.009646   
    406. D(H  60,N  12,C  11,O  47)   -173.0480         0.030157   
    407. D(H  60,N  12,C  11,C  10)      8.3863         0.030157   
    408. D(C  13,N  12,C  11,O  47)    -22.7635         0.030157   
    409. D(C  13,N  12,C  11,C  10)    158.6708         0.030157   
    410. D(H  61,C  13,N  12,C  11)      7.0398         0.015708   
    411. D(H  61,C  13,N  12,H  60)    157.5562         0.015708   
    412. D(C  45,C  13,N  12,H  60)    -81.8562         0.015708   
    413. D(C  45,C  13,N  12,C  11)    127.6273         0.015708   
    414. D(C  14,C  13,N  12,C  11)   -110.7493         0.015708   
    415. D(C  14,C  13,N  12,H  60)     39.7671         0.015708   
    416. D(O  44,C  14,C  13,C  45)     51.2886         0.010361   
    417. D(O  44,C  14,C  13,N  12)    -70.9279         0.010361   
    418. D(N  15,C  14,C  13,H  61)     -8.8866         0.010361   
    419. D(N  15,C  14,C  13,C  45)   -132.8939         0.010361   
    420. D(O  44,C  14,C  13,H  61)    175.2959         0.010361   
    421. D(N  15,C  14,C  13,N  12)    104.8896         0.010361   
    422. D(H  62,N  15,C  14,O  44)    173.8218         0.034601   
    423. D(H  62,N  15,C  14,C  13)     -1.9179         0.034601   
    424. D(C  16,N  15,C  14,O  44)      3.9868         0.034601   
    425. D(C  16,N  15,C  14,C  13)   -171.7529         0.034601   
    426. D(H  64,C  16,N  15,H  62)   -128.9723         0.016488   
    427. D(H  64,C  16,N  15,C  14)     40.7764         0.016488   
    428. D(H  63,C  16,N  15,H  62)    -12.4600         0.016488   
    429. D(H  63,C  16,N  15,C  14)    157.2887         0.016488   
    430. D(C  17,C  16,N  15,C  14)    -80.7404         0.016488   
    431. D(C  17,C  16,N  15,H  62)    109.5109         0.016488   
    432. D(H  65,C  17,C  16,H  64)    -83.8742         0.010486   
    433. D(H  65,C  17,C  16,H  63)    156.6999         0.010486   
    434. D(H  65,C  17,C  16,N  15)     35.4864         0.010486   
    435. D(O  43,C  17,C  16,H  64)    161.1320         0.010486   
    436. D(O  43,C  17,C  16,H  63)     41.7061         0.010486   
    437. D(O  43,C  17,C  16,N  15)    -79.5074         0.010486   
    438. D(C  18,C  17,C  16,H  64)     34.4212         0.010486   
    439. D(C  18,C  17,C  16,H  63)    -85.0046         0.010486   
    440. D(C  18,C  17,C  16,N  15)    153.7818         0.010486   
    441. D(H  66,C  18,C  17,H  65)    -52.8890         0.009865   
    442. D(H  66,C  18,C  17,O  43)     60.8682         0.009865   
    443. D(H  66,C  18,C  17,C  16)   -171.9522         0.009865   
    444. D(C  32,C  18,C  17,O  43)    -58.2206         0.009865   
    445. D(C  32,C  18,C  17,C  16)     68.9591         0.009865   
    446. D(C  32,C  18,C  17,H  65)   -171.9777         0.009865   
    447. D(C  19,C  18,C  17,H  65)     59.9682         0.009865   
    448. D(C  19,C  18,C  17,O  43)    173.7254         0.009865   
    449. D(C  19,C  18,C  17,C  16)    -59.0949         0.009865   
    450. D(O  31,C  19,C  18,H  66)     29.1734         0.009115   
    451. D(O  31,C  19,C  18,C  32)    144.7817         0.009115   
    452. D(O  31,C  19,C  18,C  17)    -85.5304         0.009115   
    453. D(N  20,C  19,C  18,H  66)   -151.4841         0.009115   
    454. D(N  20,C  19,C  18,C  17)     93.8122         0.009115   
    455. D(N  20,C  19,C  18,C  32)    -35.8757         0.009115   
    456. D(H  67,N  20,C  19,O  31)    177.1009         0.029767   
    457. D(H  67,N  20,C  19,C  18)     -2.2226         0.029767   
    458. D(C  21,N  20,C  19,O  31)     -9.1431         0.029767   
    459. D(C  21,N  20,C  19,C  18)    171.5333         0.029767   
    460. D(H  68,C  21,N  20,H  67)      7.0647         0.015244   
    461. D(H  68,C  21,N  20,C  19)   -166.7150         0.015244   
    462. D(C  27,C  21,N  20,H  67)    124.8346         0.015244   
    463. D(C  27,C  21,N  20,C  19)    -48.9451         0.015244   
    464. D(C  22,C  21,N  20,H  67)   -106.5054         0.015244   
    465. D(C  22,C  21,N  20,C  19)     79.7149         0.015244   
    466. D(N  23,C  22,C  21,C  27)    118.7637         0.009529   
    467. D(N  23,C  22,C  21,N  20)    -11.6885         0.009529   
    468. D(O  26,C  22,C  21,H  68)     50.7874         0.009529   
    469. D(O  26,C  22,C  21,C  27)    -64.1882         0.009529   
    470. D(O  26,C  22,C  21,N  20)    165.3596         0.009529   
    471. D(N  23,C  22,C  21,H  68)   -126.2607         0.009529   
    472. D(H  69,N  23,C  22,O  26)    174.8592         0.033779   
    473. D(H  69,N  23,C  22,C  21)     -8.2623         0.033779   
    474. D(C  24,N  23,C  22,O  26)      4.5641         0.033779   
    475. D(C  24,N  23,C  22,C  21)   -178.5574         0.033779   
    476. D(H  70,C  24,N  23,H  69)     31.9949         0.015461   
    477. D(H  70,C  24,N  23,C  22)   -157.1154         0.015461   
    478. D(C  25,C  24,N  23,H  69)    -84.9931         0.015461   
    479. D(C  25,C  24,N  23,C  22)     85.8966         0.015461   
    480. D(C   7,C  24,N  23,H  69)    148.7937         0.015461   
    481. D(C   7,C  24,N  23,C  22)    -40.3166         0.015461   
    482. D(H  70,C  24,C   7,O   8)   -113.2619         0.009370   
    483. D(H  70,C  24,C   7,N   6)     60.6508         0.009370   
    484. D(C  25,C  24,C   7,O   8)      5.1072         0.009370   
    485. D(C  25,C  24,C   7,N   6)    179.0199         0.009370   
    486. D(N  23,C  24,C   7,O   8)    131.5935         0.009370   
    487. D(N  23,C  24,C   7,N   6)    -54.4938         0.009370   
    488. D(H  73,C  25,C  24,H  70)   -179.6188         0.011377   
    489. D(H  73,C  25,C  24,N  23)    -65.3067         0.011377   
    490. D(H  73,C  25,C  24,C   7)     62.9169         0.011377   
    491. D(H  72,C  25,C  24,H  70)     61.1354         0.011377   
    492. D(H  72,C  25,C  24,N  23)    175.4474         0.011377   
    493. D(H  72,C  25,C  24,C   7)    -56.3290         0.011377   
    494. D(H  71,C  25,C  24,H  70)    -59.4206         0.011377   
    495. D(H  71,C  25,C  24,N  23)     54.8915         0.011377   
    496. D(H  71,C  25,C  24,C   7)   -176.8849         0.011377   
    497. D(H  75,C  27,C  21,H  68)   -178.3656         0.010451   
    498. D(H  75,C  27,C  21,C  22)    -66.5489         0.010451   
    499. D(H  75,C  27,C  21,N  20)     65.6797         0.010451   
    500. D(H  74,C  27,C  21,H  68)    -62.8622         0.010451   
    501. D(H  74,C  27,C  21,C  22)     48.9546         0.010451   
    502. D(H  74,C  27,C  21,N  20)   -178.8169         0.010451   
    503. D(C  28,C  27,C  21,H  68)     58.6898         0.010451   
    504. D(C  28,C  27,C  21,C  22)    170.5065         0.010451   
    505. D(C  28,C  27,C  21,N  20)    -57.2649         0.010451   
    506. D(H  76,C  28,C  27,H  75)    -65.4940         0.010774   
    507. D(H  76,C  28,C  27,H  74)    176.3650         0.010774   
    508. D(H  76,C  28,C  27,C  21)     56.8346         0.010774   
    509. D(C  30,C  28,C  27,H  75)    175.4087         0.010774   
    510. D(C  30,C  28,C  27,H  74)     57.2677         0.010774   
    511. D(C  30,C  28,C  27,C  21)    -62.2626         0.010774   
    512. D(C  29,C  28,C  27,H  75)     51.4245         0.010774   
    513. D(C  29,C  28,C  27,H  74)    -66.7165         0.010774   
    514. D(C  29,C  28,C  27,C  21)    173.7531         0.010774   
    515. D(H  79,C  29,C  28,C  30)     57.4840         0.010978   
    516. D(H  79,C  29,C  28,C  27)   -177.5993         0.010978   
    517. D(H  78,C  29,C  28,H  76)    179.8592         0.010978   
    518. D(H  78,C  29,C  28,C  30)    -62.2128         0.010978   
    519. D(H  78,C  29,C  28,C  27)     62.7039         0.010978   
    520. D(H  77,C  29,C  28,H  76)     60.0252         0.010978   
    521. D(H  77,C  29,C  28,C  30)    177.9531         0.010978   
    522. D(H  79,C  29,C  28,H  76)    -60.4440         0.010978   
    523. D(H  77,C  29,C  28,C  27)    -57.1302         0.010978   
    524. D(H  82,C  30,C  28,H  76)   -178.2905         0.010985   
    525. D(H  82,C  30,C  28,C  29)     64.1309         0.010985   
    526. D(H  82,C  30,C  28,C  27)    -59.3066         0.010985   
    527. D(H  81,C  30,C  28,H  76)     62.0563         0.010985   
    528. D(H  81,C  30,C  28,C  29)    -55.5223         0.010985   
    529. D(H  81,C  30,C  28,C  27)   -178.9598         0.010985   
    530. D(H  80,C  30,C  28,H  76)    -57.9811         0.010985   
    531. D(H  80,C  30,C  28,C  29)   -175.5597         0.010985   
    532. D(H  80,C  30,C  28,C  27)     61.0028         0.010985   
    533. D(O  42,C  32,C  18,H  66)   -141.6312         0.011276   
    534. D(O  42,C  32,C  18,C  19)    105.4936         0.011276   
    535. D(O  42,C  32,C  18,C  17)    -23.3043         0.011276   
    536. D(C  33,C  32,C  18,H  66)     38.9589         0.011276   
    537. D(C  33,C  32,C  18,C  19)    -73.9164         0.011276   
    538. D(C  33,C  32,C  18,C  17)    157.2858         0.011276   
    539. D(H  84,C  33,C  32,O  42)     89.3214         0.011747   
    540. D(H  84,C  33,C  32,C  18)    -91.2715         0.011747   
    541. D(H  83,C  33,C  32,O  42)   -157.6718         0.011747   
    542. D(H  83,C  33,C  32,C  18)     21.7353         0.011747   
    543. D(C  34,C  33,C  32,O  42)    -32.6033         0.011747   
    544. D(C  34,C  33,C  32,C  18)    146.8037         0.011747   
    545. D(H  86,C  34,C  33,H  84)   -173.6490         0.011127   
    546. D(H  86,C  34,C  33,H  83)     69.5789         0.011127   
    547. D(H  86,C  34,C  33,C  32)    -54.5429         0.011127   
    548. D(H  85,C  34,C  33,H  84)    -58.3240         0.011127   
    549. D(H  85,C  34,C  33,H  83)   -175.0961         0.011127   
    550. D(H  85,C  34,C  33,C  32)     60.7821         0.011127   
    551. D(C  35,C  34,C  33,H  84)     65.1330         0.011127   
    552. D(C  35,C  34,C  33,H  83)    -51.6391         0.011127   
    553. D(C  35,C  34,C  33,C  32)   -175.7609         0.011127   
    554. D(H  88,C  35,C  34,H  86)    -62.5660         0.011011   
    555. D(H  88,C  35,C  34,H  85)   -178.9482         0.011011   
    556. D(H  88,C  35,C  34,C  33)     58.2603         0.011011   
    557. D(H  87,C  35,C  34,H  86)     52.5768         0.011011   
    558. D(H  87,C  35,C  34,H  85)    -63.8053         0.011011   
    559. D(H  87,C  35,C  34,C  33)    173.4031         0.011011   
    560. D(C  36,C  35,C  34,H  86)    174.5375         0.011011   
    561. D(C  36,C  35,C  34,H  85)     58.1554         0.011011   
    562. D(C  36,C  35,C  34,C  33)    -64.6362         0.011011   
    563. D(H  90,C  36,C  35,H  87)     66.6460         0.011077   
    564. D(H  90,C  36,C  35,C  34)    -55.1340         0.011077   
    565. D(H  89,C  36,C  35,H  88)    -62.0093         0.011077   
    566. D(H  89,C  36,C  35,H  87)   -177.3387         0.011077   
    567. D(H  89,C  36,C  35,C  34)     60.8814         0.011077   
    568. D(C  37,C  36,C  35,H  88)     59.8350         0.011077   
    569. D(C  37,C  36,C  35,H  87)    -55.4943         0.011077   
    570. D(H  90,C  36,C  35,H  88)   -178.0247         0.011077   
    571. D(C  37,C  36,C  35,C  34)   -177.2742         0.011077   
    572. D(H  92,C  37,C  36,H  90)   -179.3916         0.011111   
    573. D(H  92,C  37,C  36,H  89)     65.1943         0.011111   
    574. D(H  92,C  37,C  36,C  35)    -57.3698         0.011111   
    575. D(H  91,C  37,C  36,H  90)    -63.9372         0.011111   
    576. D(H  91,C  37,C  36,H  89)   -179.3513         0.011111   
    577. D(H  91,C  37,C  36,C  35)     58.0846         0.011111   
    578. D(C  38,C  37,C  36,H  90)     58.3860         0.011111   
    579. D(C  38,C  37,C  36,H  89)    -57.0281         0.011111   
    580. D(C  38,C  37,C  36,C  35)   -179.5923         0.011111   
    581. D(H  94,C  38,C  37,H  92)   -179.9191         0.011132   
    582. D(H  94,C  38,C  37,H  91)     64.5276         0.011132   
    583. D(H  94,C  38,C  37,C  36)    -57.7420         0.011132   
    584. D(H  93,C  38,C  37,H  92)    -64.4558         0.011132   
    585. D(H  93,C  38,C  37,H  91)    179.9909         0.011132   
    586. D(H  93,C  38,C  37,C  36)     57.7213         0.011132   
    587. D(C  39,C  38,C  37,H  92)     57.7909         0.011132   
    588. D(C  39,C  38,C  37,H  91)    -57.7624         0.011132   
    589. D(C  39,C  38,C  37,C  36)    179.9680         0.011132   
    590. D(H  95,C  39,C  38,H  94)    -64.5425         0.011132   
    591. D(H  95,C  39,C  38,H  93)    179.9815         0.011132   
    592. D(H  95,C  39,C  38,C  37)     57.7347         0.011132   
    593. D(C  40,C  39,C  38,H  94)     57.7285         0.011132   
    594. D(C  40,C  39,C  38,H  93)    -57.7475         0.011132   
    595. D(C  40,C  39,C  38,C  37)   -179.9943         0.011132   
    596. D(H  96,C  39,C  38,H  94)    179.9865         0.011132   
    597. D(H  96,C  39,C  38,H  93)     64.5105         0.011132   
    598. D(H  96,C  39,C  38,C  37)    -57.7362         0.011132   
    599. D(H  98,C  40,C  39,H  95)     64.6071         0.011068   
    600. D(H  98,C  40,C  39,C  38)    -57.7028         0.011068   
    601. D(H  97,C  40,C  39,H  96)    -64.6594         0.011068   
    602. D(H  97,C  40,C  39,H  95)    179.9456         0.011068   
    603. D(H  97,C  40,C  39,C  38)     57.6358         0.011068   
    604. D(C  41,C  40,C  39,H  96)     57.6667         0.011068   
    605. D(C  41,C  40,C  39,H  95)    -57.7283         0.011068   
    606. D(H  98,C  40,C  39,H  96)   -179.9979         0.011068   
    607. D(C  41,C  40,C  39,C  38)    179.9619         0.011068   
    608. D(H 101,C  41,C  40,H  98)    -62.2805         0.011160   
    609. D(H 101,C  41,C  40,H  97)   -178.1935         0.011160   
    610. D(H 101,C  41,C  40,C  39)     59.7669         0.011160   
    611. D(H 100,C  41,C  40,H  98)    178.1547         0.011160   
    612. D(H 100,C  41,C  40,H  97)     62.2417         0.011160   
    613. D(H 100,C  41,C  40,C  39)    -59.7979         0.011160   
    614. D(H  99,C  41,C  40,H  98)     57.9396         0.011160   
    615. D(H  99,C  41,C  40,H  97)    -57.9734         0.011160   
    616. D(H  99,C  41,C  40,C  39)    179.9870         0.011160   
    617. D(H 102,O  43,C  17,H  65)   -176.4122         0.018463   
    618. D(H 102,O  43,C  17,C  18)     69.4291         0.018463   
    619. D(H 102,O  43,C  17,C  16)    -60.1705         0.018463   
    620. D(H 104,C  45,C  13,H  61)    179.8791         0.011078   
    621. D(H 104,C  45,C  13,C  14)    -55.3899         0.011078   
    622. D(H 104,C  45,C  13,N  12)     61.8651         0.011078   
    623. D(H 103,C  45,C  13,H  61)    -65.3381         0.011078   
    624. D(H 103,C  45,C  13,C  14)     59.3929         0.011078   
    625. D(H 103,C  45,C  13,N  12)    176.6479         0.011078   
    626. D(C  46,C  45,C  13,H  61)     56.7813         0.011078   
    627. D(C  46,C  45,C  13,C  14)   -178.4877         0.011078   
    628. D(C  46,C  45,C  13,N  12)    -61.2327         0.011078   
    629. D(H 107,C  46,C  45,H 104)    -62.6467         0.011350   
    630. D(H 107,C  46,C  45,H 103)    179.5559         0.011350   
    631. D(H 107,C  46,C  45,C  13)     58.8438         0.011350   
    632. D(H 106,C  46,C  45,H 104)    177.7293         0.011350   
    633. D(H 106,C  46,C  45,H 103)     59.9320         0.011350   
    634. D(H 106,C  46,C  45,C  13)    -60.7802         0.011350   
    635. D(H 105,C  46,C  45,H 104)     57.2823         0.011350   
    636. D(H 105,C  46,C  45,H 103)    -60.5150         0.011350   
    637. D(H 105,C  46,C  45,C  13)    178.7729         0.011350   
    638. D(H 108,C  48,C  10,H  59)    -62.4803         0.010124   
    639. D(H 108,C  48,C  10,C  11)     51.2199         0.010124   
    640. D(H 108,C  48,C  10,N   9)    178.1391         0.010124   
    641. D(C  50,C  48,C  10,H  59)     54.0429         0.010124   
    642. D(C  50,C  48,C  10,C  11)    167.7431         0.010124   
    643. D(C  50,C  48,C  10,N   9)    -65.3377         0.010124   
    644. D(C  49,C  48,C  10,H  59)   -179.9844         0.010124   
    645. D(C  49,C  48,C  10,C  11)    -66.2842         0.010124   
    646. D(C  49,C  48,C  10,N   9)     60.6350         0.010124   
    647. D(H 111,C  49,C  48,C  50)     60.2274         0.010860   
    648. D(H 111,C  49,C  48,C  10)    -65.4170         0.010860   
    649. D(H 110,C  49,C  48,H 108)     60.5101         0.010860   
    650. D(H 110,C  49,C  48,C  50)    -58.5144         0.010860   
    651. D(H 110,C  49,C  48,C  10)    175.8412         0.010860   
    652. D(H 109,C  49,C  48,H 108)    -59.5270         0.010860   
    653. D(H 109,C  49,C  48,C  50)   -178.5516         0.010860   
    654. D(H 111,C  49,C  48,H 108)    179.2519         0.010860   
    655. D(H 109,C  49,C  48,C  10)     55.8041         0.010860   
    656. D(H 114,C  50,C  48,H 108)    -60.0560         0.010898   
    657. D(H 114,C  50,C  48,C  49)     58.9361         0.010898   
    658. D(H 114,C  50,C  48,C  10)   -174.2643         0.010898   
    659. D(H 113,C  50,C  48,H 108)   -179.2861         0.010898   
    660. D(H 113,C  50,C  48,C  49)    -60.2940         0.010898   
    661. D(H 113,C  50,C  48,C  10)     66.5055         0.010898   
    662. D(H 112,C  50,C  48,H 108)     60.1257         0.010898   
    663. D(H 112,C  50,C  48,C  49)    179.1178         0.010898   
    664. D(H 112,C  50,C  48,C  10)    -54.0826         0.010898   
    -----------------------------------------------------------------

Number of atoms                         .... 115
Number of degrees of freedom            .... 664

         *************************************************************
         *                GEOMETRY OPTIMIZATION CYCLE   1            *
         *************************************************************
---------------------------------
CARTESIAN COORDINATES (ANGSTROEM)
---------------------------------
  O      4.632092   -0.115655   -0.917279
  C      4.824697    0.088527    0.282103
  C      4.000709    1.131517    1.048306
  C      4.412624    2.558997    0.637028
  C      5.535714    2.890576    1.628758
  C      5.051067    2.261920    2.939474
  N      4.217844    1.123537    2.497252
  C      3.546662    0.400996    3.458247
  O      3.838111    0.533807    4.644448
  N      5.771044   -0.573668    1.006455
  C      6.702656   -1.497084    0.375911
  C      6.001488   -2.747259   -0.191491
  N      4.862827   -3.118268    0.465797
  C      3.840370   -3.954300   -0.161613
  C      2.647289   -3.014189   -0.353724
  N      2.407759   -2.571370   -1.605039
  C      1.405857   -1.539031   -1.827043
  C     -0.009721   -2.142151   -1.847346
  C     -1.153175   -1.179450   -1.445547
  C     -0.976564   -0.608612   -0.015307
  N     -0.339936    0.600052    0.052296
  C     -0.203322    1.431412    1.252360
  C      0.899528    1.027119    2.253558
  N      1.495221   -0.175911    2.094628
  C      2.530249   -0.671649    3.004181
  C      1.913558   -1.374811    4.211245
  O      1.227456    1.841304    3.120432
  C     -1.530467    1.639694    2.003922
  C     -2.647631    2.264646    1.157015
  C     -3.956800    2.281760    1.952831
  C     -2.291150    3.670486    0.663285
  O     -1.376963   -1.223429    0.967447
  C     -1.417634   -0.070499   -2.449057
  C     -2.797364    0.548568   -2.403632
  C     -2.823333    2.037552   -2.755506
  C     -4.211868    2.665984   -2.602990
  C     -5.267407    2.111339   -3.563069
  C     -6.624950    2.805408   -3.430579
  C     -7.688449    2.249907   -4.380180
  C     -9.046575    2.942340   -4.248359
  C    -10.111111    2.386847   -5.198159
  C    -11.464904    3.085231   -5.057585
  O     -0.556030    0.305525   -3.240655
  O     -0.294625   -2.749549   -3.109836
  O      1.988776   -2.623329    0.624665
  C      3.473147   -5.176284    0.684204
  C      4.664836   -6.103580    0.914039
  O      6.472900   -3.356195   -1.147385
  C      7.859592   -1.868267    1.328610
  C      7.380315   -2.556695    2.612628
  C      8.726548   -0.642315    1.638769
  H      2.956251    0.926646    0.795366
  H      3.555891    3.230462    0.792228
  H      4.710211    2.608320   -0.417132
  H      6.478156    2.425380    1.301937
  H      5.713518    3.968309    1.729686
  H      5.864980    1.917725    3.591511
  H      4.427288    2.948710    3.532400
  H      5.862240   -0.327004    1.989411
  H      7.122432   -1.010163   -0.518040
  H      4.519838   -2.467533    1.170379
  H      4.263735   -4.272307   -1.126512
  H      3.030575   -2.846159   -2.356252
  H      1.618459   -1.028590   -2.772781
  H      1.508882   -0.802220   -1.019536
  H     -0.030181   -2.961934   -1.116155
  H     -2.064983   -1.790370   -1.368286
  H     -0.009808    1.000272   -0.821385
  H      0.137862    2.410015    0.883638
  H      1.151085   -0.859299    1.418507
  H      3.084851   -1.414661    2.407990
  H      1.239286   -2.167251    3.861510
  H      2.695028   -1.812043    4.843890
  H      1.350166   -0.654261    4.816172
  H     -1.301151    2.289794    2.861831
  H     -1.863738    0.671491    2.401067
  H     -2.804130    1.621026    0.274208
  H     -4.236078    1.269541    2.278614
  H     -3.859428    2.910011    2.851956
  H     -4.782802    2.686981    1.349857
  H     -1.396775    3.676871    0.022554
  H     -3.114479    4.101460    0.075804
  H     -2.095567    4.342698    1.513308
  H     -3.247136    0.366328   -1.413942
  H     -3.410959   -0.033593   -3.116128
  H     -2.449598    2.174698   -3.781097
  H     -2.113862    2.564107   -2.097450
  H     -4.124410    3.754259   -2.757209
  H     -4.559489    2.533759   -1.563031
  H     -5.403869    1.029869   -3.390860
  H     -4.903296    2.211670   -4.600905
  H     -6.500423    3.887285   -3.612913
  H     -6.980791    2.712612   -2.389326
  H     -7.811622    1.167849   -4.196624
  H     -7.331449    2.341630   -5.421192
  H     -8.924255    4.024666   -4.431462
  H     -9.403912    2.850496   -3.207291
  H    -10.230873    1.305513   -5.014132
  H     -9.752136    2.479528   -6.237408
  H    -12.209970    2.668015   -5.749970
  H    -11.861246    2.979107   -4.036222
  H    -11.378898    4.162191   -5.268095
  H     -0.222498   -2.041665   -3.778195
  H      2.659598   -5.713996    0.171009
  H      3.056372   -4.822233    1.639337
  H      4.380163   -6.959668    1.540721
  H      5.059658   -6.491831   -0.035894
  H      5.483425   -5.571544    1.418678
  H      8.468878   -2.587612    0.758187
  H      6.779985   -3.450315    2.395209
  H      8.241385   -2.866227    3.220674
  H      6.772364   -1.886043    3.241171
  H      9.081263   -0.160357    0.716653
  H      8.173056    0.110496    2.221415
  H      9.604642   -0.931040    2.233023

----------------------------
CARTESIAN COORDINATES (A.U.)
----------------------------
  NO LB      ZA    FRAG     MASS         X           Y           Z
   0 O     8.0000    0    15.999    8.753386   -0.218556   -1.733406
   1 C     6.0000    0    12.011    9.117356    0.167292    0.533097
   2 C     6.0000    0    12.011    7.560244    2.138257    1.981010
   3 C     6.0000    0    12.011    8.338651    4.835804    1.203809
   4 C     6.0000    0    12.011   10.460984    5.462396    3.077906
   5 C     6.0000    0    12.011    9.545134    4.274409    5.554801
   6 N     7.0000    0    14.007    7.970569    2.123178    4.719122
   7 C     6.0000    0    12.011    6.702221    0.757773    6.535140
   8 O     8.0000    0    15.999    7.252979    1.008749    8.776735
   9 N     7.0000    0    14.007   10.905693   -1.084076    1.901924
  10 C     6.0000    0    12.011   12.666184   -2.829078    0.710368
  11 C     6.0000    0    12.011   11.341169   -5.191567   -0.361865
  12 N     7.0000    0    14.007    9.189412   -5.892672    0.880229
  13 C     6.0000    0    12.011    7.257247   -7.472544   -0.305404
  14 C     6.0000    0    12.011    5.002652   -5.695993   -0.668442
  15 N     7.0000    0    14.007    4.550005   -4.859185   -3.033084
  16 C     6.0000    0    12.011    2.656684   -2.908347   -3.452611
  17 C     6.0000    0    12.011   -0.018370   -4.048079   -3.490979
  18 C     6.0000    0    12.011   -2.179185   -2.228838   -2.731687
  19 C     6.0000    0    12.011   -1.845438   -1.150110   -0.028926
  20 N     7.0000    0    14.007   -0.642386    1.133934    0.098825
  21 C     6.0000    0    12.011   -0.384223    2.704977    2.366618
  22 C     6.0000    0    12.011    1.699861    1.940974    4.258607
  23 N     7.0000    0    14.007    2.825558   -0.332423    3.958273
  24 C     6.0000    0    12.011    4.781477   -1.269233    5.677079
  25 C     6.0000    0    12.011    3.616101   -2.598015    7.958101
  26 O     8.0000    0    15.999    2.319556    3.479559    5.896763
  27 C     6.0000    0    12.011   -2.892163    3.098572    3.786864
  28 C     6.0000    0    12.011   -5.003298    4.279561    2.186441
  29 C     6.0000    0    12.011   -7.477269    4.311901    3.690316
  30 C     6.0000    0    12.011   -4.329646    6.936213    1.253427
  31 O     8.0000    0    15.999   -2.602083   -2.311945    1.828209
  32 C     6.0000    0    12.011   -2.678940   -0.133223   -4.628046
  33 C     6.0000    0    12.011   -5.286252    1.036644   -4.542206
  34 C     6.0000    0    12.011   -5.335326    3.850416   -5.207151
  35 C     6.0000    0    12.011   -7.959277    5.037979   -4.918938
  36 C     6.0000    0    12.011   -9.953956    3.989853   -6.733224
  37 C     6.0000    0    12.011  -12.519342    5.301453   -6.482854
  38 C     6.0000    0    12.011  -14.529062    4.251708   -8.277341
  39 C     6.0000    0    12.011  -17.095550    5.560216   -8.028235
  40 C     6.0000    0    12.011  -19.107231    4.510486   -9.823096
  41 C     6.0000    0    12.011  -21.665528    5.830242   -9.557451
  42 O     8.0000    0    15.999   -1.050745    0.577358   -6.123951
  43 O     8.0000    0    15.999   -0.556760   -5.195894   -5.876738
  44 O     8.0000    0    15.999    3.758241   -4.957374    1.180445
  45 C     6.0000    0    12.011    6.563297   -9.781760    1.292959
  46 C     6.0000    0    12.011    8.815263  -11.534095    1.727283
  47 O     8.0000    0    15.999   12.232008   -6.342289   -2.168243
  48 C     6.0000    0    12.011   14.852477   -3.530513    2.510708
  49 C     6.0000    0    12.011   13.946775   -4.831453    4.937151
  50 C     6.0000    0    12.011   16.490787   -1.213799    3.096824
  51 H     1.0000    0     1.008    5.586505    1.751107    1.503023
  52 H     1.0000    0     1.008    6.719660    6.104688    1.497093
  53 H     1.0000    0     1.008    8.901009    4.929010   -0.788266
  54 H     1.0000    0     1.008   12.241941    4.583304    2.460305
  55 H     1.0000    0     1.008   10.796984    7.499017    3.268633
  56 H     1.0000    0     1.008   11.083206    3.623975    6.786972
  57 H     1.0000    0     1.008    8.366362    5.572254    6.675269
  58 H     1.0000    0     1.008   11.078027   -0.617948    3.759443
  59 H     1.0000    0     1.008   13.459445   -1.908932   -0.978953
  60 H     1.0000    0     1.008    8.541256   -4.662961    2.211695
  61 H     1.0000    0     1.008    8.057291   -8.073490   -2.128798
  62 H     1.0000    0     1.008    5.726956   -5.378461   -4.452670
  63 H     1.0000    0     1.008    3.058444   -1.943753   -5.239798
  64 H     1.0000    0     1.008    2.851373   -1.515976   -1.926644
  65 H     1.0000    0     1.008   -0.057035   -5.597245   -2.109228
  66 H     1.0000    0     1.008   -3.902253   -3.383310   -2.585686
  67 H     1.0000    0     1.008   -0.018535    1.890240   -1.552192
  68 H     1.0000    0     1.008    0.260522    4.554269    1.669835
  69 H     1.0000    0     1.008    2.175236   -1.623841    2.680590
  70 H     1.0000    0     1.008    5.829524   -2.673323    4.550442
  71 H     1.0000    0     1.008    2.341911   -4.095510    7.297196
  72 H     1.0000    0     1.008    5.092865   -3.424265    9.153626
  73 H     1.0000    0     1.008    2.551445   -1.236374    9.101245
  74 H     1.0000    0     1.008   -2.458819    4.327083    5.408076
  75 H     1.0000    0     1.008   -3.521954    1.268933    4.537358
  76 H     1.0000    0     1.008   -5.299038    3.063295    0.518178
  77 H     1.0000    0     1.008   -8.005027    2.399086    4.305956
  78 H     1.0000    0     1.008   -7.293262    5.499123    5.389416
  79 H     1.0000    0     1.008   -9.038187    5.077658    2.550861
  80 H     1.0000    0     1.008   -2.639522    6.948279    0.042620
  81 H     1.0000    0     1.008   -5.885512    7.750636    0.143249
  82 H     1.0000    0     1.008   -3.960047    8.206511    2.859738
  83 H     1.0000    0     1.008   -6.136197    0.692259   -2.671964
  84 H     1.0000    0     1.008   -6.445779   -0.063481   -5.888629
  85 H     1.0000    0     1.008   -4.629069    4.109584   -7.145237
  86 H     1.0000    0     1.008   -3.994620    4.845460   -3.963605
  87 H     1.0000    0     1.008   -7.794004    7.094521   -5.210370
  88 H     1.0000    0     1.008   -8.616186    4.788111   -2.953701
  89 H     1.0000    0     1.008  -10.211833    1.946170   -6.407796
  90 H     1.0000    0     1.008   -9.265886    4.179451   -8.694450
  91 H     1.0000    0     1.008  -12.284020    7.345903   -6.827416
  92 H     1.0000    0     1.008  -13.191784    5.126094   -4.515172
  93 H     1.0000    0     1.008  -14.761826    2.206914   -7.930471
  94 H     1.0000    0     1.008  -13.854430    4.425040  -10.244568
  95 H     1.0000    0     1.008  -16.864399    7.605516   -8.374250
  96 H     1.0000    0     1.008  -17.770819    5.386657   -6.060903
  97 H     1.0000    0     1.008  -19.333548    2.467061   -9.475336
  98 H     1.0000    0     1.008  -18.428867    4.685630  -11.786992
  99 H     1.0000    0     1.008  -23.073499    5.041818  -10.865869
 100 H     1.0000    0     1.008  -22.414506    5.629696   -7.627354
 101 H     1.0000    0     1.008  -21.503001    7.865401   -9.955256
 102 H     1.0000    0     1.008   -0.420460   -3.858187   -7.139754
 103 H     1.0000    0     1.008    5.025912  -10.797888    0.323160
 104 H     1.0000    0     1.008    5.775706   -9.112699    3.097897
 105 H     1.0000    0     1.008    8.277309  -13.151867    2.911540
 106 H     1.0000    0     1.008    9.561367  -12.267783   -0.067829
 107 H     1.0000    0     1.008   10.362171  -10.528693    2.680913
 108 H     1.0000    0     1.008   16.003861   -4.889878    1.432765
 109 H     1.0000    0     1.008   12.812315   -6.520151    4.526289
 110 H     1.0000    0     1.008   15.573960   -5.416385    6.086191
 111 H     1.0000    0     1.008   12.797914   -3.564105    6.124925
 112 H     1.0000    0     1.008   17.161099   -0.303031    1.354278
 113 H     1.0000    0     1.008   15.444838    0.208806    4.197866
 114 H     1.0000    0     1.008   18.150144   -1.759410    4.219803

--------------------------------
INTERNAL COORDINATES (ANGSTROEM)
--------------------------------
 O      0   0   0     0.000000000000     0.00000000     0.00000000
 C      1   0   0     1.231788964383     0.00000000     0.00000000
 C      2   1   0     1.534226265765   120.99591541     0.00000000
 C      3   2   1     1.541597821827   110.65566412   287.87184683
 C      4   3   2     1.534536629436   102.89838353   270.13604628
 C      5   4   3     1.532341172995   103.45474140   321.75457486
 N      3   2   1     1.465147319495   114.24178052   171.86478877
 C      7   3   2     1.376975735326   128.37504439   270.10361969
 O      8   7   3     1.228679352205   120.09492261   181.58267689
 N      2   1   3     1.363363904574   123.04812785   180.50263587
 C     10   2   1     1.455397687392   121.48689818     5.27692214
 C     11  10   2     1.541596269166   112.51063601   293.75470564
 N     12  11  10     1.366097802083   114.97747552   330.84934412
 C     13  12  11     1.462194787206   122.11859853   158.67076186
 C     14  13  12     1.531063435864   104.33921203   249.25067744
 N     15  14  13     1.348796413650   117.15385791   104.88960880
 C     16  15  14     1.455615845316   119.77307258   188.24707585
 C     17  16  15     1.538839469393   110.92944094   279.25959389
 C     18  17  16     1.547812072871   115.61890902   153.78184509
 C     19  18  17     1.550042819172   112.60717972   300.90506798
 N     20  19  18     1.367747718782   115.09237187    93.81216576
 C     21  20  19     1.466280130476   125.79303193   171.53332062
 C     22  21  20     1.543413955691   116.67760669    79.71487201
 N     23  22  21     1.351809888690   118.14659602   348.31145831
 C     24  23  22     1.464351353918   122.66466473   181.44260914
 C     25  24  23     1.527006129163   111.18798023    85.89659923
 O     23  22  21     1.233655200628   118.22197060   165.35957629
 C     22  21  20     1.539331175761   113.32738183   311.05485943
 C     28  22  21     1.534885661736   114.40694232   302.73505107
 C     29  28  22     1.532168601255   109.86883404   173.75311353
 C     29  28  22     1.532067992950   112.46254663   297.73735906
 O     20  19  18     1.226427362451   121.16901067   274.46962805
 C     19  18  17     1.518796987348   114.28347760    68.95911210
 C     33  19  18     1.512931851220   115.95861575   157.28578428
 C     34  33  19     1.530216444609   113.99961846   146.80374645
 C     35  34  33     1.531736469655   113.06074080   184.23909250
 C     36  35  34     1.530863655522   114.45338969   295.36380794
 C     37  36  35     1.530427976405   113.14201415   182.72575086
 C     38  37  36     1.530148378887   113.46246803   180.40773880
 C     39  38  37     1.530146372665   113.52478913   179.96799623
 C     40  39  38     1.530989286848   113.54813002   180.00569889
 C     41  40  39     1.529789661104   113.12145827   179.96191250
 O     33  19  18     1.228976358083   121.79685617   336.69574065
 O     18  17  16     1.429678663135   111.19104094   280.49255774
 O     15  14  13     1.242439881421   120.48896754   289.07212637
 C     14  13  12     1.530851058248   112.77216355   127.62734936
 C     46  14  13     1.527358549884   112.37143305   298.76725173
 O     12  11  10     1.227503387196   120.94700482   152.23482048
 C     11  10   2     1.543992858085   111.39808304   167.17020612
 C     49  11  10     1.533734740656   112.97482176    60.63497567
 C     49  11  10     1.533222018108   110.87275773   294.66225340
 H      3   2   1     1.094002792984   105.66279475    48.72511106
 H      4   3   2     1.099519345224   108.64028707   153.19751868
 H      4   3   2     1.096469396373   111.75661333    33.33570396
 H      5   4   3     1.100643294237   110.08726395    79.93300889
 H      5   4   3     1.096954368965   112.97824721   200.35734743
 H      6   5   4     1.098214792835   113.70526037   149.19411886
 H      6   5   4     1.101064399497   112.57536574   271.34960827
 H     10   2   1     1.017528308002   117.23970384   179.27230032
 H     11  10   2     1.101113231102   108.37240206    47.55974258
 H     13  12  11     1.018593390795   116.10271290     8.38631265
 H     14  13  12     1.100634385750   105.80689049     7.03982080
 H     16  15  14     1.013769922745   119.29863339   358.08208241
 H     17  16  15     1.095523185736   109.17977386   157.28869725
 H     17  16  15     1.097985211085   107.40780192    40.77643874
 H     18  17  16     1.098682638734   107.50507969    35.48637833
 H     19  18  17     1.100266922837   106.56460562   188.04784843
 H     21  20  19     1.016109258378   117.18009231   357.77740709
 H     22  21  20     1.100012041189   105.00868703   193.28500642
 H     24  23  22     1.021072421328   121.66521611   351.73771280
 H     25  24  23     1.102313637196   104.35136875   202.88455320
 H     26  25  24     1.097688272655   109.18692415    54.89150868
 H     26  25  24     1.096406151714   110.60377724   175.44741454
 H     26  25  24     1.096603036229   109.93596229   294.69327989
 H     28  22  21     1.100555521696   106.31257932   181.18311946
 H     28  22  21     1.098276108006   108.59580216    65.67966894
 H     29  28  22     1.103669654957   107.88558225    56.83464444
 H     30  29  28     1.099416649542   111.14196298   302.86979973
 H     30  29  28     1.101184070265   110.78828375    62.70385194
 H     30  29  28     1.100027760259   111.16217363   182.40065041
 H     31  29  28     1.100219839279   112.46677749    61.00276063
 H     31  29  28     1.099428419341   110.95633522   181.04016307
 H     31  29  28     1.101209865993   110.65301350   300.69337030
 H     34  33  19     1.102266671460   109.35523680    21.73529154
 H     34  33  19     1.105921270019   105.73807880   268.72848560
 H     35  34  33     1.100147386411   109.26294414    60.78209760
 H     35  34  33     1.101656317354   108.46956694   305.45710240
 H     36  35  34     1.102622143992   108.60886183   173.40313888
 H     36  35  34     1.104462692253   109.26603361    58.26025241
 H     37  36  35     1.103565312815   110.02626041    60.88136896
 H     37  36  35     1.104421667479   109.21441217   304.86603760
 H     38  37  36     1.104178122079   109.26996434    58.08458856
 H     38  37  36     1.104283024537   109.22962320   302.63020364
 H     39  38  37     1.104407079442   109.27254329    57.72128668
 H     39  38  37     1.104340330426   109.27918224   302.25800612
 H     40  39  38     1.104499399170   109.32122805    57.73474037
 H     40  39  38     1.104512066633   109.31284258   302.26375635
 H     41  40  39     1.103400389336   109.12184947    57.63581026
 H     41  40  39     1.103399799202   109.12460681   302.29724442
 H     42  41  40     1.099358863364   111.63112302   179.98695521
 H     42  41  40     1.100696146730   111.09456572   300.20205239
 H     42  41  40     1.100706116286   111.09730111    59.76685932
 H     44  18  17     0.976220236135   106.36669282   299.82951598
 H     46  14  13     1.101982506307   108.01630220   176.64786411
 H     46  14  13     1.100605252293   108.27267340    61.86506221
 H     47  46  14     1.098478508316   110.90416811   178.77286026
 H     47  46  14     1.099542986898   111.37902477   299.21983050
 H     47  46  14     1.099004211005   110.87517268    58.84380300
 H     49  11  10     1.101848100167   104.58749523   178.13905209
 H     50  49  11     1.098282827946   111.73365599    55.80405206
 H     50  49  11     1.098622136778   110.17523693   175.84120223
 H     50  49  11     1.102018228065   112.13095514   294.58296346
 H     51  49  11     1.099273592943   111.30517913   305.91736219
 H     51  49  11     1.101160332299   111.68234655    66.50554171
 H     51  49  11     1.098885745554   110.55728498   185.73565578

---------------------------
INTERNAL COORDINATES (A.U.)
---------------------------
 O      0   0   0     0.000000000000     0.00000000     0.00000000
 C      1   0   0     2.327743797471     0.00000000     0.00000000
 C      2   1   0     2.899267469764   120.99591541     0.00000000
 C      3   2   1     2.913197691902   110.65566412   287.87184683
 C      4   3   2     2.899853972104   102.89838353   270.13604628
 C      5   4   3     2.895705160692   103.45474140   321.75457486
 N      3   2   1     2.768727179695   114.24178052   171.86478877
 C      7   3   2     2.602107032821   128.37504439   270.10361969
 O      8   7   3     2.321867482071   120.09492261   181.58267689
 N      2   1   3     2.576384400519   123.04812785   180.50263587
 C     10   2   1     2.750303045114   121.48689818     5.27692214
 C     11  10   2     2.913194757799   112.51063601   293.75470564
 N     12  11  10     2.581550718088   114.97747552   330.84934412
 C     13  12  11     2.763147702267   122.11859853   158.67076186
 C     14  13  12     2.893290587444   104.33921203   249.25067744
 N     15  14  13     2.548855832213   117.15385791   104.88960880
 C     16  15  14     2.750715303844   119.77307258   188.24707585
 C     17  16  15     2.907985161221   110.92944094   279.25959389
 C     18  17  16     2.924940924503   115.61890902   153.78184509
 C     19  18  17     2.929156424086   112.60717972   300.90506798
 N     20  19  18     2.584668608794   115.09237187    93.81216576
 C     21  20  19     2.770867882210   125.79303193   171.53332062
 C     22  21  20     2.916629687529   116.67760669    79.71487201
 N     23  22  21     2.554550474751   118.14659602   348.31145831
 C     24  23  22     2.767223022743   122.66466473   181.44260914
 C     25  24  23     2.885623388937   111.18798023    85.89659923
 O     23  22  21     2.331270472874   118.22197060   165.35957629
 C     22  21  20     2.908914351595   113.32738183   311.05485943
 C     28  22  21     2.900513547563   114.40694232   302.73505107
 C     29  28  22     2.895379047365   109.86883404   173.75311353
 C     29  28  22     2.895188925223   112.46254663   297.73735906
 O     20  19  18     2.317611838180   121.16901067   274.46962805
 C     19  18  17     2.870110359113   114.28347760    68.95911210
 C     33  19  18     2.859026858093   115.95861575   157.28578428
 C     34  33  19     2.891690005935   113.99961846   146.80374645
 C     35  34  33     2.894562436988   113.06074080   184.23909250
 C     36  35  34     2.892913057311   114.45338969   295.36380794
 C     37  36  35     2.892089743097   113.14201415   182.72575086
 C     38  37  36     2.891561380360   113.46246803   180.40773880
 C     39  38  37     2.891557589150   113.52478913   179.96799623
 C     40  39  38     2.893150466110   113.54813002   180.00569889
 C     41  40  39     2.890883501992   113.12145827   179.96191250
 O     33  19  18     2.322428741841   121.79685617   336.69574065
 O     18  17  16     2.701701132835   111.19104094   280.49255774
 O     15  14  13     2.347871113746   120.48896754   289.07212637
 C     14  13  12     2.892889251912   112.77216355   127.62734936
 C     46  14  13     2.886289367584   112.37143305   298.76725173
 O     12  11  10     2.319645230261   120.94700482   152.23482048
 C     11  10   2     2.917723654512   111.39808304   167.17020612
 C     49  11  10     2.898338621921   112.97482176    60.63497567
 C     49  11  10     2.897369716723   110.87275773   294.66225340
 H      3   2   1     2.067365668485   105.66279475    48.72511106
 H      4   3   2     2.077790441422   108.64028707   153.19751868
 H      4   3   2     2.072026873370   111.75661333    33.33570396
 H      5   4   3     2.079914397245   110.08726395    79.93300889
 H      5   4   3     2.072943338753   112.97824721   200.35734743
 H      6   5   4     2.075325194679   113.70526037   149.19411886
 H      6   5   4     2.080710170860   112.57536574   271.34960827
 H     10   2   1     1.922849835636   117.23970384   179.27230032
[...]
  (4) All equations used are the standard statistical mechanics
      equations for an ideal gas
  (5) All vibrations are strictly harmonic

freq.       5.92  E(vib)   ...       0.58 
freq.       6.87  E(vib)   ...       0.58 
freq.       8.03  E(vib)   ...       0.58 
freq.      16.49  E(vib)   ...       0.57 
freq.      26.79  E(vib)   ...       0.56 
freq.      27.65  E(vib)   ...       0.55 
freq.      29.87  E(vib)   ...       0.55 
freq.      33.42  E(vib)   ...       0.55 
freq.      36.91  E(vib)   ...       0.54 
freq.      41.18  E(vib)   ...       0.54 
freq.      46.08  E(vib)   ...       0.53 
freq.      51.18  E(vib)   ...       0.52 
freq.      54.69  E(vib)   ...       0.52 
freq.      56.40  E(vib)   ...       0.52 
freq.      58.43  E(vib)   ...       0.51 
freq.      60.59  E(vib)   ...       0.51 
freq.      63.00  E(vib)   ...       0.51 
freq.      66.32  E(vib)   ...       0.50 
freq.      69.33  E(vib)   ...       0.50 
freq.      71.44  E(vib)   ...       0.50 
freq.      75.62  E(vib)   ...       0.49 
freq.      85.91  E(vib)   ...       0.48 
freq.      88.25  E(vib)   ...       0.48 
freq.      90.64  E(vib)   ...       0.47 
freq.      91.41  E(vib)   ...       0.47 
freq.      96.76  E(vib)   ...       0.46 
freq.     101.60  E(vib)   ...       0.46 
freq.     110.49  E(vib)   ...       0.45 
freq.     116.42  E(vib)   ...       0.44 
freq.     122.11  E(vib)   ...       0.43 
freq.     129.95  E(vib)   ...       0.43 
freq.     130.63  E(vib)   ...       0.43 
freq.     137.83  E(vib)   ...       0.42 
freq.     143.75  E(vib)   ...       0.41 
freq.     148.24  E(vib)   ...       0.41 
freq.     150.96  E(vib)   ...       0.40 
freq.     158.11  E(vib)   ...       0.39 
freq.     163.05  E(vib)   ...       0.39 
freq.     179.53  E(vib)   ...       0.37 
freq.     186.82  E(vib)   ...       0.37 
freq.     198.78  E(vib)   ...       0.35 
freq.     203.01  E(vib)   ...       0.35 
freq.     205.11  E(vib)   ...       0.35 
freq.     211.80  E(vib)   ...       0.34 
freq.     217.44  E(vib)   ...       0.34 
freq.     218.41  E(vib)   ...       0.33 
freq.     222.99  E(vib)   ...       0.33 
freq.     224.75  E(vib)   ...       0.33 
freq.     231.25  E(vib)   ...       0.32 
freq.     232.20  E(vib)   ...       0.32 
freq.     237.20  E(vib)   ...       0.32 
freq.     241.21  E(vib)   ...       0.31 
freq.     246.58  E(vib)   ...       0.31 
freq.     252.95  E(vib)   ...       0.30 
freq.     258.51  E(vib)   ...       0.30 
freq.     273.74  E(vib)   ...       0.28 
freq.     278.14  E(vib)   ...       0.28 
freq.     284.54  E(vib)   ...       0.28 
freq.     294.41  E(vib)   ...       0.27 
freq.     299.94  E(vib)   ...       0.26 
freq.     304.57  E(vib)   ...       0.26 
freq.     309.53  E(vib)   ...       0.26 
freq.     311.73  E(vib)   ...       0.25 
freq.     322.07  E(vib)   ...       0.25 
freq.     328.95  E(vib)   ...       0.24 
freq.     335.90  E(vib)   ...       0.24 
freq.     342.48  E(vib)   ...       0.23 
freq.     364.41  E(vib)   ...       0.22 
freq.     367.91  E(vib)   ...       0.21 
freq.     384.11  E(vib)   ...       0.20 
freq.     389.32  E(vib)   ...       0.20 
freq.     395.18  E(vib)   ...       0.20 
freq.     402.72  E(vib)   ...       0.19 
freq.     408.20  E(vib)   ...       0.19 
freq.     417.33  E(vib)   ...       0.18 
freq.     429.10  E(vib)   ...       0.18 
freq.     445.23  E(vib)   ...       0.17 
freq.     452.48  E(vib)   ...       0.16 
freq.     456.56  E(vib)   ...       0.16 
freq.     457.90  E(vib)   ...       0.16 
freq.     465.81  E(vib)   ...       0.16 
freq.     473.28  E(vib)   ...       0.15 
freq.     479.64  E(vib)   ...       0.15 
freq.     486.04  E(vib)   ...       0.15 
freq.     494.44  E(vib)   ...       0.14 
freq.     519.25  E(vib)   ...       0.13 
freq.     530.09  E(vib)   ...       0.13 
freq.     534.39  E(vib)   ...       0.13 
freq.     558.69  E(vib)   ...       0.12 
freq.     566.61  E(vib)   ...       0.11 
freq.     578.64  E(vib)   ...       0.11 
freq.     585.49  E(vib)   ...       0.11 
freq.     595.13  E(vib)   ...       0.10 
freq.     604.94  E(vib)   ...       0.10 
freq.     621.68  E(vib)   ...       0.09 
freq.     638.34  E(vib)   ...       0.09 
freq.     648.34  E(vib)   ...       0.08 
freq.     666.62  E(vib)   ...       0.08 
freq.     682.72  E(vib)   ...       0.08 
freq.     702.77  E(vib)   ...       0.07 
freq.     705.86  E(vib)   ...       0.07 
freq.     712.00  E(vib)   ...       0.07 
freq.     716.50  E(vib)   ...       0.07 
freq.     732.29  E(vib)   ...       0.06 
freq.     736.97  E(vib)   ...       0.06 
freq.     743.57  E(vib)   ...       0.06 
freq.     749.16  E(vib)   ...       0.06 
freq.     753.31  E(vib)   ...       0.06 
freq.     754.94  E(vib)   ...       0.06 
freq.     765.31  E(vib)   ...       0.06 
freq.     771.38  E(vib)   ...       0.05 
freq.     780.50  E(vib)   ...       0.05 
freq.     804.61  E(vib)   ...       0.05 
freq.     812.92  E(vib)   ...       0.05 
freq.     820.20  E(vib)   ...       0.05 
freq.     830.24  E(vib)   ...       0.04 
freq.     833.10  E(vib)   ...       0.04 
freq.     846.91  E(vib)   ...       0.04 
freq.     850.18  E(vib)   ...       0.04 
freq.     854.19  E(vib)   ...       0.04 
freq.     859.84  E(vib)   ...       0.04 
freq.     869.88  E(vib)   ...       0.04 
freq.     877.35  E(vib)   ...       0.04 
freq.     878.73  E(vib)   ...       0.04 
freq.     889.39  E(vib)   ...       0.04 
freq.     896.00  E(vib)   ...       0.03 
freq.     898.19  E(vib)   ...       0.03 
freq.     900.48  E(vib)   ...       0.03 
freq.     907.03  E(vib)   ...       0.03 
freq.     908.43  E(vib)   ...       0.03 
freq.     914.42  E(vib)   ...       0.03 
freq.     921.91  E(vib)   ...       0.03 
freq.     923.44  E(vib)   ...       0.03 
freq.     936.54  E(vib)   ...       0.03 
freq.     939.52  E(vib)   ...       0.03 
freq.     941.67  E(vib)   ...       0.03 
freq.     945.23  E(vib)   ...       0.03 
freq.     947.30  E(vib)   ...       0.03 
freq.     956.60  E(vib)   ...       0.03 
freq.     966.93  E(vib)   ...       0.03 
freq.     974.39  E(vib)   ...       0.03 
freq.     979.75  E(vib)   ...       0.02 
freq.     984.35  E(vib)   ...       0.02 
freq.     988.97  E(vib)   ...       0.02 
freq.     999.62  E(vib)   ...       0.02 
freq.    1001.62  E(vib)   ...       0.02 
freq.    1009.39  E(vib)   ...       0.02 
freq.    1012.78  E(vib)   ...       0.02 
freq.    1020.97  E(vib)   ...       0.02 
freq.    1028.07  E(vib)   ...       0.02 
freq.    1032.97  E(vib)   ...       0.02 
freq.    1033.49  E(vib)   ...       0.02 
freq.    1035.60  E(vib)   ...       0.02 
freq.    1044.66  E(vib)   ...       0.02 
freq.    1050.63  E(vib)   ...       0.02 
freq.    1051.36  E(vib)   ...       0.02 
freq.    1056.19  E(vib)   ...       0.02 
freq.    1063.83  E(vib)   ...       0.02 
freq.    1072.41  E(vib)   ...       0.02 
freq.    1074.94  E(vib)   ...       0.02 
freq.    1094.06  E(vib)   ...       0.02 
freq.    1096.17  E(vib)   ...       0.02 
freq.    1098.71  E(vib)   ...       0.02 
freq.    1106.62  E(vib)   ...       0.02 
freq.    1110.11  E(vib)   ...       0.02 
freq.    1110.58  E(vib)   ...       0.02 
freq.    1116.45  E(vib)   ...       0.01 
freq.    1121.35  E(vib)   ...       0.01 
freq.    1128.60  E(vib)   ...       0.01 
freq.    1132.23  E(vib)   ...       0.01 
freq.    1137.25  E(vib)   ...       0.01 
freq.    1145.07  E(vib)   ...       0.01 
freq.    1149.58  E(vib)   ...       0.01 
freq.    1154.05  E(vib)   ...       0.01 
freq.    1159.01  E(vib)   ...       0.01 
freq.    1163.15  E(vib)   ...       0.01 
freq.    1166.50  E(vib)   ...       0.01 
freq.    1174.24  E(vib)   ...       0.01 
freq.    1181.10  E(vib)   ...       0.01 
freq.    1183.30  E(vib)   ...       0.01 
freq.    1190.90  E(vib)   ...       0.01 
freq.    1200.44  E(vib)   ...       0.01 
freq.    1205.28  E(vib)   ...       0.01 
freq.    1206.86  E(vib)   ...       0.01 
freq.    1208.42  E(vib)   ...       0.01 
freq.    1222.82  E(vib)   ...       0.01 
freq.    1224.93  E(vib)   ...       0.01 
freq.    1226.38  E(vib)   ...       0.01 
freq.    1236.30  E(vib)   ...       0.01 
freq.    1238.86  E(vib)   ...       0.01 
freq.    1240.82  E(vib)   ...       0.01 
freq.    1243.52  E(vib)   ...       0.01 
freq.    1246.35  E(vib)   ...       0.01 
freq.    1250.00  E(vib)   ...       0.01 
freq.    1255.44  E(vib)   ...       0.01 
freq.    1259.65  E(vib)   ...       0.01 
freq.    1260.99  E(vib)   ...       0.01 
freq.    1277.63  E(vib)   ...       0.01 
freq.    1278.95  E(vib)   ...       0.01 
freq.    1284.59  E(vib)   ...       0.01 
freq.    1288.31  E(vib)   ...       0.01 
freq.    1289.77  E(vib)   ...       0.01 
freq.    1290.11  E(vib)   ...       0.01 
freq.    1292.86  E(vib)   ...       0.01 
freq.    1295.17  E(vib)   ...       0.01 
freq.    1295.46  E(vib)   ...       0.01 
freq.    1299.33  E(vib)   ...       0.01 
freq.    1300.92  E(vib)   ...       0.01 
freq.    1303.32  E(vib)   ...       0.01 
freq.    1306.75  E(vib)   ...       0.01 
freq.    1308.67  E(vib)   ...       0.01 
freq.    1309.93  E(vib)   ...       0.01 
freq.    1316.91  E(vib)   ...       0.01 
freq.    1319.20  E(vib)   ...       0.01 
freq.    1326.68  E(vib)   ...       0.01 
freq.    1327.40  E(vib)   ...       0.01 
freq.    1329.71  E(vib)   ...       0.01 
freq.    1331.12  E(vib)   ...       0.01 
freq.    1338.00  E(vib)   ...       0.01 
freq.    1340.22  E(vib)   ...       0.01 
freq.    1344.68  E(vib)   ...       0.01 
freq.    1346.73  E(vib)   ...       0.01 
freq.    1348.61  E(vib)   ...       0.01 
freq.    1349.16  E(vib)   ...       0.01 
freq.    1351.14  E(vib)   ...       0.01 
freq.    1353.43  E(vib)   ...       0.01 
freq.    1357.37  E(vib)   ...       0.01 
freq.    1358.41  E(vib)   ...       0.01 
freq.    1362.81  E(vib)   ...       0.01 
freq.    1364.35  E(vib)   ...       0.01 
freq.    1364.48  E(vib)   ...       0.01 
freq.    1371.34  E(vib)   ...       0.01 
freq.    1371.58  E(vib)   ...       0.01 
freq.    1378.56  E(vib)   ...       0.01 
freq.    1401.41  E(vib)   ...       0.00 
freq.    1420.25  E(vib)   ...       0.00 
freq.    1428.52  E(vib)   ...       0.00 
freq.    1432.55  E(vib)   ...       0.00 
freq.    1434.55  E(vib)   ...       0.00 
freq.    1434.89  E(vib)   ...       0.00 
freq.    1435.68  E(vib)   ...       0.00 
freq.    1436.29  E(vib)   ...       0.00 
freq.    1437.16  E(vib)   ...       0.00 
freq.    1438.12  E(vib)   ...       0.00 
freq.    1441.31  E(vib)   ...       0.00 
freq.    1441.60  E(vib)   ...       0.00 
freq.    1442.88  E(vib)   ...       0.00 
freq.    1443.49  E(vib)   ...       0.00 
freq.    1444.11  E(vib)   ...       0.00 
freq.    1446.24  E(vib)   ...       0.00 
freq.    1447.13  E(vib)   ...       0.00 
freq.    1448.72  E(vib)   ...       0.00 
freq.    1450.23  E(vib)   ...       0.00 
freq.    1451.17  E(vib)   ...       0.00 
freq.    1452.12  E(vib)   ...       0.00 
freq.    1455.89  E(vib)   ...       0.00 
freq.    1456.11  E(vib)   ...       0.00 
freq.    1458.65  E(vib)   ...       0.00 
freq.    1459.58  E(vib)   ...       0.00 
freq.    1460.87  E(vib)   ...       0.00 
freq.    1462.67  E(vib)   ...       0.00 
freq.    1464.52  E(vib)   ...       0.00 
freq.    1472.04  E(vib)   ...       0.00 
freq.    1477.55  E(vib)   ...       0.00 
freq.    1487.11  E(vib)   ...       0.00 
freq.    1493.57  E(vib)   ...       0.00 
freq.    1501.01  E(vib)   ...       0.00 
freq.    1645.44  E(vib)   ...       0.00 
freq.    1659.47  E(vib)   ...       0.00 
freq.    1671.05  E(vib)   ...       0.00 
freq.    1672.60  E(vib)   ...       0.00 
freq.    1677.37  E(vib)   ...       0.00 
freq.    1697.60  E(vib)   ...       0.00 
freq.    1698.65  E(vib)   ...       0.00 
freq.    2925.35  E(vib)   ...       0.00 
freq.    2927.02  E(vib)   ...       0.00 
freq.    2929.35  E(vib)   ...       0.00 
freq.    2934.59  E(vib)   ...       0.00 
freq.    2938.11  E(vib)   ...       0.00 
freq.    2941.55  E(vib)   ...       0.00 
freq.    2943.52  E(vib)   ...       0.00 
freq.    2945.28  E(vib)   ...       0.00 
freq.    2946.42  E(vib)   ...       0.00 
freq.    2950.39  E(vib)   ...       0.00 
freq.    2953.93  E(vib)   ...       0.00 
freq.    2956.38  E(vib)   ...       0.00 
freq.    2957.36  E(vib)   ...       0.00 
freq.    2957.40  E(vib)   ...       0.00 
freq.    2958.78  E(vib)   ...       0.00 
freq.    2959.34  E(vib)   ...       0.00 
freq.    2965.14  E(vib)   ...       0.00 
freq.    2966.17  E(vib)   ...       0.00 
freq.    2967.50  E(vib)   ...       0.00 
freq.    2970.18  E(vib)   ...       0.00 
freq.    2971.77  E(vib)   ...       0.00 
freq.    2973.11  E(vib)   ...       0.00 
freq.    2973.31  E(vib)   ...       0.00 
freq.    2977.37  E(vib)   ...       0.00 
freq.    2978.67  E(vib)   ...       0.00 
freq.    2982.55  E(vib)   ...       0.00 
freq.    2983.02  E(vib)   ...       0.00 
freq.    2984.59  E(vib)   ...       0.00 
freq.    2988.35  E(vib)   ...       0.00 
freq.    2988.67  E(vib)   ...       0.00 
freq.    2990.26  E(vib)   ...       0.00 
freq.    2990.76  E(vib)   ...       0.00 
freq.    2992.56  E(vib)   ...       0.00 
freq.    2997.05  E(vib)   ...       0.00 
freq.    3005.40  E(vib)   ...       0.00 
freq.    3007.92  E(vib)   ...       0.00 
freq.    3012.21  E(vib)   ...       0.00 
freq.    3013.97  E(vib)   ...       0.00 
freq.    3015.87  E(vib)   ...       0.00 
freq.    3017.07  E(vib)   ...       0.00 
freq.    3020.39  E(vib)   ...       0.00 
freq.    3020.74  E(vib)   ...       0.00 
freq.    3020.89  E(vib)   ...       0.00 
freq.    3026.04  E(vib)   ...       0.00 
freq.    3027.46  E(vib)   ...       0.00 
freq.    3028.57  E(vib)   ...       0.00 
freq.    3030.85  E(vib)   ...       0.00 
freq.    3038.00  E(vib)   ...       0.00 
freq.    3038.65  E(vib)   ...       0.00 
freq.    3038.85  E(vib)   ...       0.00 
freq.    3041.76  E(vib)   ...       0.00 
freq.    3041.90  E(vib)   ...       0.00 
freq.    3045.84  E(vib)   ...       0.00 
freq.    3053.39  E(vib)   ...       0.00 
freq.    3058.11  E(vib)   ...       0.00 
freq.    3066.04  E(vib)   ...       0.00 
freq.    3067.29  E(vib)   ...       0.00 
freq.    3073.03  E(vib)   ...       0.00 
freq.    3434.50  E(vib)   ...       0.00 
freq.    3462.92  E(vib)   ...       0.00 
freq.    3480.41  E(vib)   ...       0.00 
freq.    3498.27  E(vib)   ...       0.00 
freq.    3543.41  E(vib)   ...       0.00 
freq.    3633.00  E(vib)   ...       0.00 

------------
INNER ENERGY
------------

The inner energy is: U= E(el) + E(ZPE) + E(vib) + E(rot) + E(trans)
    E(el)   - is the total energy from the electronic structure calculation
              = E(kin-el) + E(nuc-el) + E(el-el) + E(nuc-nuc)
    E(ZPE)  - the the zero temperature vibrational energy from the frequency calculation
    E(vib)  - the the finite temperature correction to E(ZPE) due to population
              of excited vibrational states
    E(rot)  - is the rotational thermal energy
    E(trans)- is the translational thermal energy

Summary of contributions to the inner energy U:
Electronic energy                ...  -2380.06870506 Eh
Zero point energy                ...      0.97625812 Eh     612.61 kcal/mol
Thermal vibrational correction   ...      0.05579215 Eh      35.01 kcal/mol
Thermal rotational correction    ...      0.00141627 Eh       0.89 kcal/mol
Thermal translational correction ...      0.00141627 Eh       0.89 kcal/mol
-----------------------------------------------------------------------
Total thermal energy                  -2379.03382225 Eh


Summary of corrections to the electronic energy:
(perhaps to be used in another calculation)
Total thermal correction                  0.05862469 Eh      36.79 kcal/mol
Non-thermal (ZPE) correction              0.97625812 Eh     612.61 kcal/mol
-----------------------------------------------------------------------
Total correction                          1.03488281 Eh     649.40 kcal/mol


--------
ENTHALPY
--------

The enthalpy is H = U + kB*T
                kB is Boltzmann's constant
Total free energy                 ...  -2379.03382225 Eh 
Thermal Enthalpy correction       ...      0.00094421 Eh       0.59 kcal/mol
-----------------------------------------------------------------------
Total Enthalpy                    ...  -2379.03287804 Eh


Note: Only C1 symmetry has been detected, increase convergence thresholds 
      if your molecule has a higher symmetry. Symmetry factor of 1.0 is   
      used for the rotational entropy correction. 
 

Note: Rotational entropy computed according to Herzberg 
Infrared and Raman Spectra, Chapter V,1, Van Nostrand Reinhold, 1945 
Point Group:  C1, Symmetry Number:   1  
Rotational constants in cm-1:     0.003398     0.000813     0.000739 

Vibrational entropy computed according to the QRRHO of S. Grimme
Chem.Eur.J. 2012 18 9955


-------
ENTROPY
-------

The entropy contributions are T*S = T*(S(el)+S(vib)+S(rot)+S(trans))
     S(el)   - electronic entropy
     S(vib)  - vibrational entropy
     S(rot)  - rotational entropy
     S(trans)- translational entropy
The entropies will be listed as mutliplied by the temperature to get
units of energy

Electronic entropy                ...      0.00000000 Eh      0.00 kcal/mol
Vibrational entropy               ...      0.10348902 Eh     64.94 kcal/mol
Rotational entropy                ...      0.01895730 Eh     11.90 kcal/mol
Translational entropy             ...      0.02166895 Eh     13.60 kcal/mol
-----------------------------------------------------------------------
Final entropy term                ...      0.14411528 Eh     90.43 kcal/mol

In case the symmetry of your molecule has not been determined correctly
or in case you have a reason to use a different symmetry number we print 
out the resulting rotational entropy values for sn=1,12 :
 --------------------------------------------------------
|  sn= 1 | S(rot)=       0.01895730 Eh     11.90 kcal/mol|
|  sn= 2 | S(rot)=       0.01830285 Eh     11.49 kcal/mol|
|  sn= 3 | S(rot)=       0.01792002 Eh     11.24 kcal/mol|
|  sn= 4 | S(rot)=       0.01764839 Eh     11.07 kcal/mol|
|  sn= 5 | S(rot)=       0.01743770 Eh     10.94 kcal/mol|
|  sn= 6 | S(rot)=       0.01726556 Eh     10.83 kcal/mol|
|  sn= 7 | S(rot)=       0.01712001 Eh     10.74 kcal/mol|
|  sn= 8 | S(rot)=       0.01699394 Eh     10.66 kcal/mol|
|  sn= 9 | S(rot)=       0.01688273 Eh     10.59 kcal/mol|
|  sn=10 | S(rot)=       0.01678325 Eh     10.53 kcal/mol|
|  sn=11 | S(rot)=       0.01669326 Eh     10.48 kcal/mol|
|  sn=12 | S(rot)=       0.01661110 Eh     10.42 kcal/mol|
 --------------------------------------------------------


-------------------
GIBBS FREE ENERGY
-------------------

The Gibbs free energy is G = H - T*S

Total enthalpy                    ...  -2379.03287804 Eh 
Total entropy correction          ...     -0.14411528 Eh    -90.43 kcal/mol
-----------------------------------------------------------------------
Final Gibbs free energy         ...  -2379.17699332 Eh

For completeness - the Gibbs free energy minus the electronic energy
G-E(el)                           ...      0.89171174 Eh    559.56 kcal/mol


Timings for individual modules:

Sum of individual times         ...    29485.719 sec (= 491.429 min)
GTO integral calculation        ...       12.731 sec (=   0.212 min)   0.0 %
SCF iterations                  ...      259.193 sec (=   4.320 min)   0.9 %
SCF Gradient evaluation         ...       55.599 sec (=   0.927 min)   0.2 %
Geometry relaxation             ...        2.180 sec (=   0.036 min)   0.0 %
Analytical frequency calculation...    29156.017 sec (= 485.934 min)  98.9 %
                             ****ORCA TERMINATED NORMALLY****
TOTAL RUN TIME: 0 days 8 hours 11 minutes 39 seconds 162 msec
