
                                 *****************
                                 * O   R   C   A *
                                 *****************

           --- An Ab Initio, DFT and Semiempirical electronic structure package ---

                  #######################################################
                  #                        -***-                        #
                  #          Department of theory and spectroscopy      #
                  #               Directorship: Frank Neese             #
                  #        Max Planck Institute fuer Kohlenforschung    #
                  #                Kaiser Wilhelm Platz 1               #
                  #                 D-45470 Muelheim/Ruhr               #
                  #                      Germany                        #
                  #                                                     #
                  #                  All rights reserved                #
                  #                        -***-                        #
                  #######################################################


                         Program Version 4.2.0 -  RELEASE  -


 With contributions from (in alphabetic order):
   Daniel Aravena         : Magnetic Suceptibility
   Michael Atanasov       : Ab Initio Ligand Field Theory (pilot matlab implementation)
   Alexander A. Auer      : GIAO ZORA, VPT2
   Ute Becker             : Parallelization
   Giovanni Bistoni       : ED, misc. LED, open-shell LED, HFLED
   Martin Brehm           : Molecular dynamics
   Dmytro Bykov           : SCF Hessian
   Vijay G. Chilkuri      : MRCI spin determinant printing, contributions to CSF-ICE
   Dipayan Datta          : RHF DLPNO-CCSD density
   Achintya Kumar Dutta   : EOM-CC, STEOM-CC
   Dmitry Ganyushin       : Spin-Orbit,Spin-Spin,Magnetic field MRCI
   Miquel Garcia          : C-PCM Hessian, Gaussian charge scheme
   Yang Guo               : DLPNO-NEVPT2, CIM, IAO-localization
   Andreas Hansen         : Spin unrestricted coupled pair/coupled cluster methods
   Benjamin Helmich-Paris : CASSCF linear response (MC-RPA)
   Lee Huntington         : MR-EOM, pCC
   Robert Izsak           : Overlap fitted RIJCOSX, COSX-SCS-MP3, EOM
   Christian Kollmar      : KDIIS, OOCD, Brueckner-CCSD(T), CCSD density
   Simone Kossmann        : Meta GGA functionals, TD-DFT gradient, OOMP2, MP2 Hessian
   Martin Krupicka        : AUTO-CI
   Lucas Lang             : DCDCAS
   Dagmar Lenk            : GEPOL surface, SMD
   Dimitrios Liakos       : Extrapolation schemes; Compound Job, initial MDCI parallelization
   Dimitrios Manganas     : Further ROCIS development; embedding schemes
   Dimitrios Pantazis     : SARC Basis sets
   Taras Petrenko         : DFT Hessian,TD-DFT gradient, ASA, ECA, R-Raman, ABS, FL, XAS/XES, NRVS
   Peter Pinski           : DLPNO-MP2, DLPNO-MP2 Gradient
   Christoph Reimann      : Effective Core Potentials
   Marius Retegan         : Local ZFS, SOC
   Christoph Riplinger    : Optimizer, TS searches, QM/MM, DLPNO-CCSD(T), (RO)-DLPNO pert. Triples
   Tobias Risthaus        : Range-separated hybrids, TD-DFT gradient, RPA, STAB
   Michael Roemelt        : Original ROCIS implementation
   Masaaki Saitow         : Open-shell DLPNO-CCSD energy and density
   Barbara Sandhoefer     : DKH picture change effects
   Avijit Sen             : IP-ROCIS
   Kantharuban Sivalingam : CASSCF convergence, NEVPT2, FIC-MRCI
   Bernardo de Souza      : ESD, SOC TD-DFT
   Georgi Stoychev        : AutoAux, RI-MP2 NMR
   Willem Van den Heuvel  : Paramagnetic NMR
   Boris Wezisla          : Elementary symmetry handling
   Frank Wennmohs         : Technical directorship


 We gratefully acknowledge several colleagues who have allowed us to
 interface, adapt or use parts of their codes:
   Stefan Grimme, W. Hujo, H. Kruse,             : VdW corrections, initial TS optimization,
                  C. Bannwarth                     DFT functionals, gCP, sTDA/sTD-DF
   Ed Valeev, F. Pavosevic, A. Kumar             : LibInt (2-el integral package), F12 methods
   Garnet Chan, S. Sharma, J. Yang, R. Olivares  : DMRG
   Ulf Ekstrom                                   : XCFun DFT Library
   Mihaly Kallay                                 : mrcc  (arbitrary order and MRCC methods)
   Andreas Klamt, Michael Diedenhofen            : otool_cosmo (COSMO solvation model)
   Jiri Pittner, Ondrej Demel                    : Mk-CCSD
   Frank Weinhold                                : gennbo (NPA and NBO analysis)
   Christopher J. Cramer and Donald G. Truhlar   : smd solvation model
   Lars Goerigk                                  : TD-DFT with DH, B97 family of functionals
   V. Asgeirsson, H. Jonsson                     : NEB implementation
   FAccTs GmbH                                   : IRC, NEB, NEB-TS, Multilevel, MM, QM/MM, CI optimization
   S Lehtola, MJT Oliveira, MAL Marques          : LibXC Library


 Your calculation uses the libint2 library for the computation of 2-el integrals
 For citations please refer to: http://libint.valeyev.net

 Your ORCA version has been built with support for libXC version: 4.2.3
 For citations please refer to: https://tddft.org/programs/libxc/

 This ORCA versions uses:
   CBLAS   interface :  Fast vector & matrix operations
   LAPACKE interface :  Fast linear algebra routines
   SCALAPACK package :  Parallel linear algebra routines




***************************************
The coordinates will be read from file: 71.xyz
***************************************


Your calculation utilizes the atom-pairwise dispersion correction
with the Becke-Johnson damping scheme (D3BJ)
Cite in your paper:
S.Grimme, S.Ehrlich, L.Goerigk, J Comput Chem, (2011), 32, 1456–1465 
S.Grimme, J.Antony, S.Ehrlich and H.Krieg, J.Chem.Phys., 132, (2010), 154104 
   

----- Orbital basis set information -----
Your calculation utilizes the basis: def2-TZVP
   F. Weigend and R. Ahlrichs, Phys. Chem. Chem. Phys. 7, 3297 (2005).

----- AuxJ basis set information -----
Your calculation utilizes the auxiliary basis: def2/J
   F. Weigend, Phys. Chem. Chem. Phys. 8, 1057 (2006).

================================================================================
                                        WARNINGS
                       Please study these warnings very carefully!
================================================================================


WARNING: Geometry Optimization
  ===> : Switching off AutoStart
         For restart on a previous wavefunction, please use MOREAD

INFO   : the flag for use of LIBINT has been found!

================================================================================
                                       INPUT FILE
================================================================================
NAME = 71.inp
|  1> !RI BP86 def2-tzvp def2/J D3BJ TIGHTSCF TightOpt Grid5 FinalGrid6 freq
|  2> %maxcore 4000
|  3> %pal nprocs 24
|  4> end
|  5> * xyzfile 0 1 71.xyz 
|  6> 
|  7>                          ****END OF INPUT****
================================================================================

                       *****************************
                       * Geometry Optimization Run *
                       *****************************

Geometry optimization settings:
Update method            Update   .... BFGS
Choice of coordinates    CoordSys .... Z-matrix Internals
Initial Hessian          InHess   .... Almoef's Model

Convergence Tolerances:
Energy Change            TolE     ....  1.0000e-06 Eh
Max. Gradient            TolMAXG  ....  1.0000e-04 Eh/bohr
RMS Gradient             TolRMSG  ....  3.0000e-05 Eh/bohr
Max. Displacement        TolMAXD  ....  1.0000e-03 bohr
RMS Displacement         TolRMSD  ....  6.0000e-04 bohr
Strict Convergence                ....  False
------------------------------------------------------------------------------
                        ORCA OPTIMIZATION COORDINATE SETUP
------------------------------------------------------------------------------

The optimization will be done in new redundant internal coordinates
Making redundant internal coordinates   ...  (new redundants) done
Evaluating the initial hessian          ...  (Almloef) done
Evaluating the coordinates              ...  done
Calculating the B-matrix                .... done
Calculating the G-matrix                .... done
Diagonalizing the G-matrix              .... done
Small eigenvalue found = 1.139e-03
Small eigenvalue found = 1.923e-03
Small eigenvalue found = 2.840e-03
Small eigenvalue found = 3.350e-03
Small eigenvalue found = 3.970e-03
Small eigenvalue found = 5.848e-03
Small eigenvalue found = 6.379e-03
Small eigenvalue found = 7.500e-03
Small eigenvalue found = 9.042e-03
Small eigenvalue found = 9.196e-03
Small eigenvalue found = 1.172e-02
Small eigenvalue found = 1.436e-02
Small eigenvalue found = 1.674e-02
Small eigenvalue found = 1.752e-02
Small eigenvalue found = 1.964e-02
Small eigenvalue found = 2.136e-02
Small eigenvalue found = 2.343e-02
Small eigenvalue found = 2.812e-02
The first mode is                       ....  327
The number of degrees of freedom        ....  339

    -----------------------------------------------------------------
                    Redundant Internal Coordinates


    -----------------------------------------------------------------
         Definition                    Initial Value    Approx d2E/dq
    -----------------------------------------------------------------
      1. B(C   1,O   0)                  1.2274         1.016925   
      2. B(C   2,C   1)                  1.5524         0.344045   
      3. B(C   3,C   2)                  1.5256         0.379610   
      4. B(C   4,C   3)                  1.5338         0.368366   
      5. B(C   5,C   4)                  1.5328         0.369771   
      6. B(N   6,C   2)                  1.4829         0.397728   
      7. B(N   6,C   5)                  1.4837         0.396645   
      8. B(C   7,N   6)                  1.3446         0.661138   
      9. B(O   8,C   7)                  1.2581         0.908325   
     10. B(N   9,C   1)                  1.3603         0.624104   
     11. B(C  10,N   9)                  1.4612         0.430809   
     12. B(C  11,C  10)                  1.5412         0.358557   
     13. B(N  12,C  11)                  1.3738         0.593909   
     14. B(C  13,N  12)                  1.4610         0.431124   
     15. B(C  14,C  13)                  1.5395         0.360714   
     16. B(N  15,C  14)                  1.3727         0.596398   
     17. B(C  16,N  15)                  1.4521         0.445394   
     18. B(C  17,C  16)                  1.5300         0.373565   
     19. B(C  18,C  17)                  1.5459         0.352358   
     20. B(C  19,C  18)                  1.5380         0.362727   
     21. B(N  20,C  19)                  1.3618         0.620718   
     22. B(C  21,N  20)                  1.4612         0.430838   
     23. B(C  22,C  21)                  1.5350         0.366747   
     24. B(N  23,C  22)                  1.3702         0.601792   
     25. B(C  24,N  23)                  1.4504         0.448175   
     26. B(C  24,C   7)                  1.5281         0.376141   
     27. B(C  25,C  24)                  1.5438         0.355146   
     28. B(O  26,C  22)                  1.2289         1.011380   
     29. B(C  27,C  21)                  1.5430         0.356088   
     30. B(C  28,C  27)                  1.5357         0.365813   
     31. B(C  29,C  28)                  1.5335         0.368836   
     32. B(C  30,C  28)                  1.5329         0.369566   
     33. B(O  31,C  19)                  1.2307         1.004602   
     34. B(C  32,C  18)                  1.5497         0.347445   
     35. B(C  33,C  32)                  1.5102         0.401779   
     36. B(C  34,C  33)                  1.5284         0.375775   
     37. B(C  35,C  34)                  1.5409         0.358931   
     38. B(C  36,C  35)                  1.5357         0.365800   
     39. B(C  37,C  36)                  1.5312         0.371910   
     40. B(C  38,C  37)                  1.5319         0.371025   
     41. B(C  39,C  38)                  1.5331         0.369353   
     42. B(C  40,C  39)                  1.5317         0.371225   
     43. B(C  41,C  40)                  1.5289         0.375150   
     44. B(O  42,C  32)                  1.2181         1.052113   
     45. B(O  43,C  17)                  1.4491         0.450348   
     46. B(O  44,C  14)                  1.2276         1.016246   
     47. B(C  45,C  13)                  1.5391         0.361338   
     48. B(C  46,C  45)                  1.5292         0.374658   
     49. B(O  47,C  11)                  1.2256         1.023761   
     50. B(C  48,C  10)                  1.5409         0.358963   
     51. B(C  49,C  48)                  1.5329         0.369576   
     52. B(C  50,C  48)                  1.5318         0.371155   
     53. B(H  51,C   2)                  1.0994         0.347868   
     54. B(H  52,C   3)                  1.0996         0.347636   
     55. B(H  53,C   3)                  1.0950         0.353531   
     56. B(H  54,C   4)                  1.0987         0.348805   
     57. B(H  55,C   4)                  1.0966         0.351496   
     58. B(H  56,C   5)                  1.0982         0.349431   
     59. B(H  57,C   5)                  1.0998         0.347370   
     60. B(H  58,N   9)                  1.0265         0.407222   
     61. B(H  59,C  10)                  1.0993         0.347979   
     62. B(H  60,N  12)                  1.0171         0.421570   
     63. B(H  61,C  13)                  1.1036         0.342593   
     64. B(H  62,N  15)                  1.0172         0.421424   
     65. B(H  63,C  16)                  1.1005         0.346514   
     66. B(H  64,C  16)                  1.0990         0.348342   
     67. B(H  65,C  17)                  1.1025         0.343946   
     68. B(H  66,C  18)                  1.0995         0.347689   
     69. B(H  67,N  20)                  1.0230         0.412490   
     70. B(H  68,C  21)                  1.0987         0.348750   
     71. B(H  69,H  60)                  4.8749         0.000000   
     72. B(H  69,N  23)                  1.0188         0.418996   
     73. B(H  70,C  24)                  1.0988         0.348663   
     74. B(H  71,C  25)                  1.0961         0.352172   
     75. B(H  72,C  25)                  1.0976         0.350201   
     76. B(H  73,C  25)                  1.0977         0.350010   
     77. B(H  74,C  27)                  1.1038         0.342310   
     78. B(H  75,C  27)                  1.1001         0.346962   
     79. B(H  76,C  28)                  1.1047         0.341140   
     80. B(H  77,C  29)                  1.0981         0.349490   
     81. B(H  78,C  29)                  1.1014         0.345286   
     82. B(H  79,C  29)                  1.0996         0.347588   
     83. B(H  80,C  30)                  1.1006         0.346389   
     84. B(H  81,C  30)                  1.0996         0.347653   
     85. B(H  82,C  30)                  1.1013         0.345481   
     86. B(H  83,H  71)                  4.2542         0.000001   
     87. B(H  83,C  33)                  1.1046         0.341354   
     88. B(H  84,C  33)                  1.1032         0.343080   
     89. B(H  85,C  34)                  1.1001         0.347027   
     90. B(H  86,C  34)                  1.1009         0.345932   
     91. B(H  87,C  35)                  1.1041         0.341980   
     92. B(H  88,C  35)                  1.1009         0.346014   
     93. B(H  89,C  36)                  1.1034         0.342759   
     94. B(H  90,C  36)                  1.1044         0.341525   
     95. B(H  91,C  37)                  1.1008         0.346060   
     96. B(H  92,C  37)                  1.1058         0.339786   
     97. B(H  93,C  38)                  1.1032         0.343065   
     98. B(H  94,C  38)                  1.1041         0.341906   
     99. B(H  95,C  39)                  1.1045         0.341404   
    100. B(H  96,C  39)                  1.1035         0.342663   
    101. B(H  97,C  40)                  1.1032         0.343085   
    102. B(H  98,H  73)                  2.3600         0.000649   
    103. B(H  98,C  40)                  1.1017         0.344897   
    104. B(H  99,H  62)                  4.3985         0.000000   
    105. B(H  99,C  41)                  1.0994         0.347860   
    106. B(H 100,C  41)                  1.1005         0.346462   
    107. B(H 101,H  52)                  2.7695         0.000144   
    108. B(H 101,C  41)                  1.1013         0.345477   
    109. B(H 102,O   8)                  2.1634         0.006251   
    110. B(H 102,O  43)                  0.9794         0.484174   
    111. B(H 103,C  45)                  1.1013         0.345461   
    112. B(H 104,C  45)                  1.1003         0.346731   
    113. B(H 105,C  46)                  1.0989         0.348459   
    114. B(H 106,C  46)                  1.0962         0.352004   
    115. B(H 107,C  46)                  1.1005         0.346496   
    116. B(H 108,C  48)                  1.1080         0.337024   
    117. B(H 109,C  49)                  1.0995         0.347758   
    118. B(H 110,C  49)                  1.1004         0.346622   
    119. B(H 111,C  49)                  1.0986         0.348892   
    120. B(H 112,C  50)                  1.0980         0.349640   
    121. B(H 113,C  50)                  1.0990         0.348428   
    122. B(H 114,C  50)                  1.0998         0.347355   
    123. A(O   0,C   1,N   9)          124.7686         0.469201   
    124. A(C   2,C   1,N   9)          112.9510         0.388965   
    125. A(O   0,C   1,C   2)          122.2479         0.424013   
    126. A(C   1,C   2,H  51)          107.2884         0.318174   
    127. A(N   6,C   2,H  51)          107.9620         0.323871   
    128. A(C   1,C   2,N   6)          113.5023         0.359884   
    129. A(C   1,C   2,C   3)          111.7223         0.359264   
    130. A(C   3,C   2,H  51)          113.4527         0.323334   
    131. A(C   3,C   2,N   6)          102.9619         0.365983   
    132. A(C   4,C   3,H  53)          112.8661         0.322597   
    133. A(C   4,C   3,H  52)          111.1538         0.321709   
    134. A(C   2,C   3,C   4)          102.6989         0.363475   
    135. A(C   2,C   3,H  53)          110.7814         0.324192   
    136. A(C   2,C   3,H  52)          109.7015         0.323298   
    137. A(H  52,C   3,H  53)          109.4663         0.288404   
    138. A(H  54,C   4,H  55)          108.2220         0.288295   
    139. A(C   3,C   4,H  55)          113.4763         0.322292   
    140. A(C   3,C   4,C   5)          103.5229         0.361848   
    141. A(C   3,C   4,H  54)          109.4017         0.321886   
    142. A(C   5,C   4,H  55)          111.6956         0.322493   
    143. A(C   5,C   4,H  54)          110.4701         0.322087   
    144. A(H  56,C   5,H  57)          108.3535         0.287844   
    145. A(C   4,C   5,N   6)          103.7586         0.364171   
    146. A(C   4,C   5,H  56)          113.0703         0.322182   
    147. A(N   6,C   5,H  57)          109.9482         0.323650   
    148. A(N   6,C   5,H  56)          110.4784         0.323964   
    149. A(C   4,C   5,H  57)          111.1766         0.321870   
    150. A(C   5,N   6,C   7)          125.3519         0.400267   
    151. A(C   2,N   6,C   7)          123.0065         0.400459   
    152. A(C   2,N   6,C   5)          111.1258         0.366446   
    153. A(O   8,C   7,C  24)          120.5160         0.422217   
    154. A(N   6,C   7,O   8)          122.5117         0.464473   
    155. A(N   6,C   7,C  24)          116.8664         0.399102   
    156. A(C   1,N   9,C  10)          122.3644         0.402032   
    157. A(C  10,N   9,H  58)          118.7447         0.333950   
    158. A(C   1,N   9,H  58)          115.9921         0.355386   
    159. A(C  48,C  10,H  59)          108.9672         0.320403   
    160. A(C  11,C  10,H  59)          106.5255         0.320344   
    161. A(N   9,C  10,C  11)          104.6997         0.367418   
    162. A(N   9,C  10,C  48)          113.2311         0.367490   
    163. A(N   9,C  10,H  59)          106.3620         0.328174   
    164. A(C  11,C  10,C  48)          116.4051         0.358372   
    165. A(N  12,C  11,O  47)          122.8611         0.465528   
    166. A(C  10,C  11,O  47)          122.1309         0.427673   
    167. A(C  10,C  11,N  12)          114.5704         0.388404   
    168. A(C  13,N  12,H  60)          117.8402         0.335918   
    169. A(C  11,N  12,C  13)          121.3912         0.398589   
    170. A(C  11,N  12,H  60)          117.8163         0.354486   
    171. A(C  14,C  13,C  45)          112.5238         0.359141   
    172. A(N  12,C  13,H  61)          105.1596         0.327371   
    173. A(C  14,C  13,H  61)          107.9295         0.319842   
    174. A(N  12,C  13,C  14)          109.9140         0.367843   
    175. A(C  45,C  13,H  61)          108.1273         0.319932   
    176. A(N  12,C  13,C  45)          112.7898         0.367952   
    177. A(C  13,C  14,N  15)          115.2461         0.389094   
    178. A(N  15,C  14,O  44)          122.5409         0.465257   
    179. A(C  13,C  14,O  44)          122.2125         0.427568   
    180. A(C  14,N  15,H  62)          118.4987         0.354716   
    181. A(C  16,N  15,H  62)          119.7399         0.337725   
    182. A(C  14,N  15,C  16)          120.9130         0.401175   
    183. A(H  63,C  16,H  64)          108.3621         0.287592   
    184. A(C  17,C  16,H  64)          108.5613         0.322556   
    185. A(N  15,C  16,H  63)          109.3570         0.329753   
    186. A(C  17,C  16,H  63)          109.9104         0.322278   
    187. A(N  15,C  16,C  17)          113.8672         0.372140   
    188. A(N  15,C  16,H  64)          106.5992         0.330040   
    189. A(O  43,C  17,H  65)          108.8490         0.329951   
    190. A(C  18,C  17,H  65)          107.2922         0.318825   
    191. A(C  16,C  17,H  65)          109.2433         0.321886   
    192. A(C  16,C  17,C  18)          110.8245         0.359743   
    193. A(C  18,C  17,O  43)          108.1830         0.369120   
    194. A(C  16,C  17,O  43)          112.3031         0.372850   
    195. A(C  19,C  18,H  66)          105.3743         0.320906   
    196. A(C  17,C  18,H  66)          106.7370         0.319389   
    197. A(C  17,C  18,C  32)          108.5296         0.355338   
    198. A(C  17,C  18,C  19)          114.8708         0.357945   
    199. A(C  19,C  18,C  32)          115.7213         0.357091   
    200. A(C  32,C  18,H  66)          104.6688         0.318658   
    201. A(C  18,C  19,N  20)          113.5039         0.392203   
    202. A(N  20,C  19,O  31)          124.5700         0.467687   
    203. A(C  18,C  19,O  31)          121.9211         0.427112   
    204. A(C  19,N  20,H  67)          114.5050         0.355834   
    205. A(C  19,N  20,C  21)          126.7092         0.401651   
    206. A(C  21,N  20,H  67)          118.4107         0.334668   
    207. A(C  27,C  21,H  68)          109.7763         0.320098   
    208. A(C  22,C  21,H  68)          106.3434         0.321646   
    209. A(N  20,C  21,H  68)          110.2157         0.328298   
    210. A(N  20,C  21,C  22)          107.1975         0.368849   
    211. A(C  22,C  21,C  27)          111.1537         0.359260   
    212. A(N  20,C  21,C  27)          111.9774         0.366987   
    213. A(C  21,C  22,N  23)          114.0734         0.390837   
    214. A(C  21,C  22,O  26)          123.1312         0.428473   
    215. A(N  23,C  22,O  26)          122.7954         0.465615   
    216. A(C  22,N  23,C  24)          122.1968         0.402253   
    217. A(C  24,N  23,H  69)          114.2734         0.337751   
    218. A(C  22,N  23,H  69)          120.2880         0.354910   
    219. A(C  25,C  24,H  70)          109.4780         0.319946   
    220. A(N  23,C  24,H  70)          108.8863         0.330430   
    221. A(C   7,C  24,H  70)          110.9613         0.322968   
    222. A(N  23,C  24,C  25)          110.9509         0.369313   
    223. A(C   7,C  24,N  23)          107.9737         0.372980   
    224. A(C   7,C  24,C  25)          108.5868         0.360649   
    225. A(H  71,C  25,H  73)          109.3731         0.288537   
    226. A(C  24,C  25,H  73)          109.5661         0.320148   
    227. A(H  71,C  25,H  72)          108.6144         0.288562   
    228. A(C  24,C  25,H  72)          111.8397         0.320177   
    229. A(C  24,C  25,H  71)          108.9232         0.320471   
    230. A(H  72,C  25,H  73)          108.4904         0.288284   
    231. A(C  28,C  27,H  75)          110.0675         0.321241   
    232. A(C  21,C  27,C  28)          114.8553         0.359104   
    233. A(H  74,C  27,H  75)          106.8986         0.286867   
    234. A(C  21,C  27,H  75)          107.4339         0.319829   
    235. A(C  28,C  27,H  74)          109.2048         0.320533   
    236. A(C  21,C  27,H  74)          108.0686         0.319125   
    237. A(C  29,C  28,C  30)          110.9771         0.361893   
    238. A(C  27,C  28,C  30)          109.4291         0.361385   
    239. A(C  27,C  28,C  29)          112.1456         0.361263   
    240. A(C  30,C  28,H  76)          107.9926         0.320889   
    241. A(C  29,C  28,H  76)          107.8431         0.320785   
    242. A(C  27,C  28,H  76)          108.3181         0.320354   
    243. A(C  28,C  29,H  79)          110.5901         0.321769   
    244. A(H  78,C  29,H  79)          107.8132         0.287335   
    245. A(H  77,C  29,H  79)          107.4187         0.287880   
    246. A(H  77,C  29,H  78)          108.3815         0.287581   
    247. A(C  28,C  29,H  78)          110.6943         0.321419   
    248. A(C  28,C  29,H  77)          111.7919         0.322057   
    249. A(H  81,C  30,H  82)          107.7514         0.287369   
    250. A(H  80,C  30,H  82)          107.7081         0.287206   
    251. A(C  28,C  30,H  82)          110.7219         0.321553   
    252. A(H  80,C  30,H  81)          107.9413         0.287487   
    253. A(C  28,C  30,H  81)          111.0743         0.321883   
    254. A(C  28,C  30,H  80)          111.4855         0.321691   
    255. A(C  33,C  32,O  42)          123.2157         0.438666   
    256. A(C  18,C  32,O  42)          118.3244         0.427354   
    257. A(C  18,C  32,C  33)          118.4301         0.363369   
    258. A(C  32,C  33,C  34)          114.6084         0.368280   
    259. A(C  34,C  33,H  84)          111.6374         0.322064   
    260. A(H  83,C  33,H  84)          104.2796         0.286238   
    261. A(C  32,C  33,H  84)          108.6654         0.325620   
    262. A(C  34,C  33,H  83)          111.3401         0.321798   
    263. A(C  32,C  33,H  83)          105.6411         0.325350   
    264. A(C  33,C  34,C  35)          113.6842         0.361241   
    265. A(H  85,C  34,H  86)          105.4709         0.287347   
    266. A(C  35,C  34,H  86)          109.9168         0.320090   
    267. A(C  33,C  34,H  86)          108.8637         0.322501   
    268. A(C  35,C  34,H  85)          110.2704         0.320255   
    269. A(C  33,C  34,H  85)          108.2927         0.322668   
    270. A(C  34,C  35,C  36)          113.8202         0.359588   
    271. A(H  87,C  35,H  88)          105.7667         0.286701   
    272. A(C  36,C  35,H  88)          107.9452         0.321096   
    273. A(C  34,C  35,H  88)          109.3075         0.320102   
    274. A(C  36,C  35,H  87)          109.7888         0.320480   
    275. A(C  34,C  35,H  87)          109.8810         0.319489   
    276. A(C  35,C  36,C  37)          115.5048         0.361773   
    277. A(H  89,C  36,H  90)          105.9976         0.286219   
    278. A(C  37,C  36,H  90)          108.4694         0.321280   
    279. A(C  35,C  36,H  90)          108.3621         0.320411   
    280. A(C  37,C  36,H  89)          108.9437         0.321470   
    281. A(C  35,C  36,H  89)          109.1441         0.320600   
    282. A(C  36,C  37,C  38)          112.5309         0.362650   
    283. A(H  91,C  37,H  92)          106.4086         0.286419   
    284. A(C  38,C  37,H  92)          109.4769         0.320887   
    285. A(C  36,C  37,H  92)          109.6131         0.321012   
    286. A(C  38,C  37,H  91)          109.0276         0.321849   
    287. A(C  36,C  37,H  91)          109.5955         0.321974   
    288. A(C  37,C  38,C  39)          114.3581         0.362223   
    289. A(H  93,C  38,H  94)          106.0184         0.286309   
    290. A(C  39,C  38,H  94)          109.2578         0.320976   
    291. A(C  37,C  38,H  94)          108.7917         0.321213   
    292. A(C  39,C  38,H  93)          108.9950         0.321154   
    293. A(C  37,C  38,H  93)          109.0900         0.321391   
    294. A(C  38,C  39,C  40)          114.4313         0.362256   
    295. A(H  95,C  39,H  96)          105.8379         0.286191   
    296. A(C  40,C  39,H  96)          108.8926         0.321358   
    297. A(C  38,C  39,H  96)          109.0843         0.321092   
    298. A(C  40,C  39,H  95)          109.1428         0.321164   
    299. A(C  38,C  39,H  95)          109.1015         0.320899   
    300. A(C  39,C  40,C  41)          112.6201         0.363221   
    301. A(H  97,C  40,H  98)          105.5859         0.286701   
    302. A(C  41,C  40,H  98)          109.3976         0.322255   
    303. A(C  39,C  40,H  98)          110.1445         0.321700   
    304. A(C  41,C  40,H  97)          109.5966         0.321977   
    305. A(C  39,C  40,H  97)          109.2540         0.321423   
    306. A(H 100,C  41,H 101)          107.3484         0.287215   
    307. A(H  99,C  41,H 101)          107.8708         0.287395   
    308. A(C  40,C  41,H 101)          110.6372         0.322343   
    309. A(H  99,C  41,H 100)          107.8399         0.287523   
    310. A(C  40,C  41,H 100)          111.3881         0.322494   
    311. A(C  40,C  41,H  99)          111.5762         0.322707   
    312. A(C  17,O  43,H 102)          110.2193         0.346307   
    313. A(C  13,C  45,C  46)          113.4672         0.361470   
    314. A(C  46,C  45,H 104)          109.4808         0.322465   
    315. A(C  13,C  45,H 104)          106.5630         0.320560   
    316. A(C  46,C  45,H 103)          110.3550         0.322271   
    317. A(C  13,C  45,H 103)          109.1064         0.320368   
    318. A(H 103,C  45,H 104)          107.6460         0.287247   
    319. A(H 106,C  46,H 107)          108.6712         0.288061   
    320. A(H 105,C  46,H 107)          107.6580         0.287605   
    321. A(C  45,C  46,H 107)          110.5335         0.322429   
    322. A(H 105,C  46,H 106)          108.3719         0.288315   
    323. A(C  45,C  46,H 106)          110.9950         0.323264   
    324. A(C  45,C  46,H 105)          110.5120         0.322728   
    325. A(C  50,C  48,H 108)          107.2171         0.320477   
    326. A(C  49,C  48,H 108)          109.0442         0.320254   
    327. A(C  10,C  48,H 108)          108.6762         0.318734   
    328. A(C  49,C  48,C  50)          111.2812         0.362282   
    329. A(C  10,C  48,C  50)          110.3335         0.360486   
    330. A(C  10,C  48,C  49)          110.1979         0.360224   
    331. A(H 110,C  49,H 111)          107.7862         0.287677   
    332. A(H 109,C  49,H 111)          107.8815         0.287824   
    333. A(C  48,C  49,H 111)          110.8090         0.322072   
    334. A(H 109,C  49,H 110)          107.5818         0.287531   
    335. A(C  48,C  49,H 110)          110.2651         0.321728   
    336. A(C  48,C  49,H 109)          112.3442         0.321901   
    337. A(H 113,C  50,H 114)          108.2220         0.287712   
    338. A(H 112,C  50,H 114)          107.7999         0.287869   
    339. A(C  48,C  50,H 114)          110.5209         0.322064   
    340. A(H 112,C  50,H 113)          108.2566         0.288008   
    341. A(C  48,C  50,H 113)          110.6476         0.322227   
    342. A(C  48,C  50,H 112)          111.2809         0.322411   
    343. D(H  51,C   2,C   1,N   9)    -62.4487         0.008973   
    344. D(C   3,C   2,C   1,N   9)    172.6137         0.008973   
    345. D(N   6,C   2,C   1,N   9)     56.7305         0.008973   
    346. D(N   6,C   2,C   1,O   0)   -125.2520         0.008973   
    347. D(C   3,C   2,C   1,O   0)     -9.3688         0.008973   
    348. D(H  51,C   2,C   1,O   0)    115.5689         0.008973   
    349. D(C   4,C   3,C   2,N   6)     35.6370         0.011486   
    350. D(H  53,C   3,C   2,H  51)    -87.1851         0.011486   
    351. D(H  53,C   3,C   2,C   1)     34.2507         0.011486   
    352. D(C   4,C   3,C   2,H  51)    152.0475         0.011486   
    353. D(H  53,C   3,C   2,N   6)    156.4043         0.011486   
    354. D(H  52,C   3,C   2,H  51)     33.7785         0.011486   
    355. D(C   4,C   3,C   2,C   1)    -86.5167         0.011486   
    356. D(H  52,C   3,C   2,C   1)    155.2143         0.011486   
    357. D(H  52,C   3,C   2,N   6)    -82.6321         0.011486   
    358. D(H  55,C   4,C   3,H  53)     79.6871         0.010853   
    359. D(H  55,C   4,C   3,H  52)    -43.7477         0.010853   
    360. D(H  54,C   4,C   3,H  52)   -164.7056         0.010853   
    361. D(H  55,C   4,C   3,C   2)   -160.9889         0.010853   
    362. D(H  54,C   4,C   3,H  53)    -41.2708         0.010853   
    363. D(C   5,C   4,C   3,C   2)    -39.7248         0.010853   
    364. D(H  54,C   4,C   3,C   2)     78.0532         0.010853   
    365. D(C   5,C   4,C   3,H  53)   -159.0488         0.010853   
    366. D(C   5,C   4,C   3,H  52)     77.5163         0.010853   
    367. D(N   6,C   5,C   4,C   3)     27.9730         0.010931   
    368. D(H  57,C   5,C   4,C   3)    -90.1616         0.010931   
    369. D(H  56,C   5,C   4,H  55)    -89.8491         0.010931   
    370. D(H  56,C   5,C   4,C   3)    147.6949         0.010931   
    371. D(H  57,C   5,C   4,H  54)    152.8078         0.010931   
    372. D(H  56,C   5,C   4,H  54)     30.6643         0.010931   
    373. D(H  57,C   5,C   4,H  55)     32.2944         0.010931   
    374. D(N   6,C   5,C   4,H  54)    -89.0576         0.010931   
    375. D(N   6,C   5,C   4,H  55)    150.4291         0.010931   
    376. D(C   5,N   6,C   2,C   3)    -18.8991         0.013509   
    377. D(C   7,N   6,C   5,H  57)    -58.6758         0.013437   
    378. D(C   7,N   6,C   5,H  56)     60.8699         0.013437   
    379. D(C   7,N   6,C   5,C   4)   -177.6572         0.013437   
    380. D(C   2,N   6,C   5,H  57)    113.2580         0.013437   
    381. D(C   2,N   6,C   5,H  56)   -127.1962         0.013437   
    382. D(C   7,N   6,C   2,H  51)     32.9963         0.013509   
    383. D(C   2,N   6,C   5,C   4)     -5.7233         0.013437   
    384. D(C   7,N   6,C   2,C   3)    153.2573         0.013509   
    385. D(C   5,N   6,C   2,C   1)    102.0470         0.013509   
    386. D(C   7,N   6,C   2,C   1)    -85.7966         0.013509   
    387. D(C   5,N   6,C   2,H  51)   -139.1602         0.013509   
    388. D(C  24,C   7,N   6,C   5)      7.2773         0.035780   
    389. D(C  24,C   7,N   6,C   2)   -163.7436         0.035780   
    390. D(O   8,C   7,N   6,C   5)   -176.4494         0.035780   
    391. D(O   8,C   7,N   6,C   2)     12.5297         0.035780   
    392. D(H  58,N   9,C   1,O   0)   -174.3949         0.031573   
    393. D(C  10,N   9,C   1,C   2)    164.0242         0.031573   
    394. D(H  58,N   9,C   1,C   2)      3.5641         0.031573   
    395. D(C  10,N   9,C   1,O   0)    -13.9347         0.031573   
    396. D(H  59,C  10,N   9,C   1)     -3.1468         0.015824   
    397. D(C  48,C  10,N   9,H  58)    -83.5525         0.015824   
    398. D(C  48,C  10,N   9,C   1)    116.5003         0.015824   
    399. D(C  11,C  10,N   9,C   1)   -115.6975         0.015824   
    400. D(H  59,C  10,N   9,H  58)    156.8004         0.015824   
    401. D(C  11,C  10,N   9,H  58)     44.2497         0.015824   
    402. D(O  47,C  11,C  10,N   9)     90.2281         0.009674   
    403. D(N  12,C  11,C  10,H  59)    165.1848         0.009674   
    404. D(N  12,C  11,C  10,C  48)     43.4602         0.009674   
    405. D(N  12,C  11,C  10,N   9)    -82.3811         0.009674   
    406. D(O  47,C  11,C  10,H  59)    -22.2060         0.009674   
    407. D(O  47,C  11,C  10,C  48)   -143.9306         0.009674   
    408. D(H  60,N  12,C  11,O  47)    164.1646         0.028381   
    409. D(H  60,N  12,C  11,C  10)    -23.2867         0.028381   
    410. D(C  13,N  12,C  11,O  47)      4.0294         0.028381   
    411. D(C  13,N  12,C  11,C  10)    176.5780         0.028381   
    412. D(H  61,C  13,N  12,C  11)    -32.6135         0.015847   
    413. D(H  61,C  13,N  12,H  60)    167.2558         0.015847   
    414. D(C  45,C  13,N  12,H  60)    -75.1325         0.015847   
    415. D(C  45,C  13,N  12,C  11)     84.9982         0.015847   
    416. D(C  14,C  13,N  12,C  11)   -148.5505         0.015847   
    417. D(C  14,C  13,N  12,H  60)     51.3188         0.015847   
    418. D(O  44,C  14,C  13,C  45)    -21.4977         0.009781   
    419. D(O  44,C  14,C  13,N  12)   -148.0989         0.009781   
    420. D(N  15,C  14,C  13,H  61)    -82.5257         0.009781   
    421. D(N  15,C  14,C  13,C  45)    158.2523         0.009781   
    422. D(O  44,C  14,C  13,H  61)     97.7243         0.009781   
    423. D(N  15,C  14,C  13,N  12)     31.6511         0.009781   
    424. D(H  62,N  15,C  14,O  44)    176.0152         0.028636   
    425. D(H  62,N  15,C  14,C  13)     -3.7340         0.028636   
    426. D(C  16,N  15,C  14,O  44)      6.5891         0.028636   
    427. D(C  16,N  15,C  14,C  13)   -173.1601         0.028636   
    428. D(H  64,C  16,N  15,H  62)   -157.7290         0.016919   
    429. D(H  64,C  16,N  15,C  14)     11.5672         0.016919   
    430. D(H  63,C  16,N  15,H  62)    -40.7836         0.016919   
    431. D(H  63,C  16,N  15,C  14)    128.5126         0.016919   
    432. D(C  17,C  16,N  15,C  14)   -108.1103         0.016919   
    433. D(C  17,C  16,N  15,H  62)     82.5935         0.016919   
    434. D(H  65,C  17,C  16,H  64)    -62.4374         0.011143   
    435. D(H  65,C  17,C  16,H  63)    179.1997         0.011143   
    436. D(H  65,C  17,C  16,N  15)     56.1240         0.011143   
    437. D(O  43,C  17,C  16,H  64)    176.6950         0.011143   
    438. D(O  43,C  17,C  16,H  63)     58.3321         0.011143   
    439. D(O  43,C  17,C  16,N  15)    -64.7436         0.011143   
    440. D(C  18,C  17,C  16,H  64)     55.5719         0.011143   
    441. D(C  18,C  17,C  16,H  63)    -62.7910         0.011143   
    442. D(C  18,C  17,C  16,N  15)    174.1333         0.011143   
    443. D(H  66,C  18,C  17,H  65)     56.4713         0.009992   
    444. D(H  66,C  18,C  17,O  43)    173.7556         0.009992   
    445. D(H  66,C  18,C  17,C  16)    -62.7194         0.009992   
    446. D(C  32,C  18,C  17,O  43)     61.4416         0.009992   
    447. D(C  32,C  18,C  17,C  16)   -175.0335         0.009992   
    448. D(C  32,C  18,C  17,H  65)    -55.8428         0.009992   
    449. D(C  19,C  18,C  17,H  65)    172.8661         0.009992   
    450. D(C  19,C  18,C  17,O  43)    -69.8495         0.009992   
    451. D(C  19,C  18,C  17,C  16)     53.6754         0.009992   
    452. D(O  31,C  19,C  18,H  66)    -19.9356         0.009882   
    453. D(O  31,C  19,C  18,C  32)     95.1499         0.009882   
    454. D(O  31,C  19,C  18,C  17)   -137.1074         0.009882   
    455. D(N  20,C  19,C  18,H  66)    159.2897         0.009882   
    456. D(N  20,C  19,C  18,C  17)     42.1179         0.009882   
    457. D(N  20,C  19,C  18,C  32)    -85.6247         0.009882   
    458. D(H  67,N  20,C  19,O  31)   -177.9996         0.031205   
    459. D(H  67,N  20,C  19,C  18)      2.7989         0.031205   
    460. D(C  21,N  20,C  19,O  31)      9.1984         0.031205   
    461. D(C  21,N  20,C  19,C  18)   -170.0031         0.031205   
    462. D(H  68,C  21,N  20,H  67)    119.7516         0.015826   
    463. D(H  68,C  21,N  20,C  19)    -67.6963         0.015826   
    464. D(C  27,C  21,N  20,H  67)   -117.7399         0.015826   
    465. D(C  27,C  21,N  20,C  19)     54.8122         0.015826   
    466. D(C  22,C  21,N  20,H  67)      4.4190         0.015826   
    467. D(C  22,C  21,N  20,C  19)    176.9711         0.015826   
    468. D(N  23,C  22,C  21,C  27)     76.4921         0.010085   
    469. D(N  23,C  22,C  21,N  20)    -46.1795         0.010085   
    470. D(O  26,C  22,C  21,H  68)     15.9590         0.010085   
    471. D(O  26,C  22,C  21,C  27)   -103.4830         0.010085   
    472. D(O  26,C  22,C  21,N  20)    133.8454         0.010085   
    473. D(N  23,C  22,C  21,H  68)   -164.0659         0.010085   
    474. D(H  69,N  23,C  22,O  26)   -175.5574         0.029194   
    475. D(H  69,N  23,C  22,C  21)      4.4674         0.029194   
    476. D(C  24,N  23,C  22,O  26)    -17.0679         0.029194   
    477. D(C  24,N  23,C  22,C  21)    162.9569         0.029194   
    478. D(H  70,C  24,N  23,H  69)   -140.6456         0.017133   
    479. D(H  70,C  24,N  23,C  22)     59.6782         0.017133   
    480. D(C  25,C  24,N  23,H  69)     98.8001         0.017133   
    481. D(C  25,C  24,N  23,C  22)    -60.8761         0.017133   
    482. D(C   7,C  24,N  23,H  69)    -20.0833         0.017133   
    483. D(C   7,C  24,N  23,C  22)   -179.7594         0.017133   
    484. D(H  70,C  24,C   7,O   8)    145.9735         0.010571   
    485. D(H  70,C  24,C   7,N   6)    -37.6743         0.010571   
    486. D(C  25,C  24,C   7,O   8)    -93.6586         0.010571   
    487. D(C  25,C  24,C   7,N   6)     82.6936         0.010571   
    488. D(N  23,C  24,C   7,O   8)     26.7187         0.010571   
    489. D(N  23,C  24,C   7,N   6)   -156.9291         0.010571   
    490. D(H  73,C  25,C  24,H  70)   -179.0297         0.010139   
    491. D(H  73,C  25,C  24,N  23)    -58.8266         0.010139   
    492. D(H  73,C  25,C  24,C   7)     59.6868         0.010139   
    493. D(H  72,C  25,C  24,H  70)     60.6357         0.010139   
    494. D(H  72,C  25,C  24,N  23)   -179.1611         0.010139   
    495. D(H  72,C  25,C  24,C   7)    -60.6478         0.010139   
    496. D(H  71,C  25,C  24,H  70)    -59.4254         0.010139   
    497. D(H  71,C  25,C  24,N  23)     60.7778         0.010139   
    498. D(H  71,C  25,C  24,C   7)    179.2911         0.010139   
    499. D(H  75,C  27,C  21,H  68)     61.6184         0.010189   
    500. D(H  75,C  27,C  21,C  22)    178.9904         0.010189   
    501. D(H  75,C  27,C  21,N  20)    -61.1398         0.010189   
    502. D(H  74,C  27,C  21,H  68)    176.6381         0.010189   
    503. D(H  74,C  27,C  21,C  22)    -65.9899         0.010189   
    504. D(H  74,C  27,C  21,N  20)     53.8799         0.010189   
    505. D(C  28,C  27,C  21,H  68)    -61.1901         0.010189   
    506. D(C  28,C  27,C  21,C  22)     56.1819         0.010189   
    507. D(C  28,C  27,C  21,N  20)    176.0517         0.010189   
    508. D(H  76,C  28,C  27,H  75)    179.5409         0.010713   
    509. D(H  76,C  28,C  27,H  74)     62.4791         0.010713   
    510. D(H  76,C  28,C  27,C  21)    -59.0762         0.010713   
    511. D(C  30,C  28,C  27,H  75)     62.0371         0.010713   
    512. D(C  30,C  28,C  27,H  74)    -55.0247         0.010713   
    513. D(C  30,C  28,C  27,C  21)   -176.5800         0.010713   
    514. D(C  29,C  28,C  27,H  75)    -61.5635         0.010713   
    515. D(C  29,C  28,C  27,H  74)   -178.6254         0.010713   
    516. D(C  29,C  28,C  27,C  21)     59.8193         0.010713   
    517. D(H  79,C  29,C  28,C  30)     52.7184         0.010879   
    518. D(H  79,C  29,C  28,C  27)    175.4474         0.010879   
    519. D(H  78,C  29,C  28,H  76)    175.1999         0.010879   
    520. D(H  78,C  29,C  28,C  30)    -66.7039         0.010879   
    521. D(H  78,C  29,C  28,C  27)     56.0250         0.010879   
    522. D(H  77,C  29,C  28,H  76)     54.2649         0.010879   
    523. D(H  77,C  29,C  28,C  30)    172.3611         0.010879   
    524. D(H  79,C  29,C  28,H  76)    -65.3777         0.010879   
    525. D(H  77,C  29,C  28,C  27)    -64.9100         0.010879   
    526. D(H  82,C  30,C  28,H  76)    179.5411         0.010920   
    527. D(H  82,C  30,C  28,C  29)     61.5357         0.010920   
    528. D(H  82,C  30,C  28,C  27)    -62.7510         0.010920   
    529. D(H  81,C  30,C  28,H  76)     59.8634         0.010920   
    530. D(H  81,C  30,C  28,C  29)    -58.1421         0.010920   
    531. D(H  81,C  30,C  28,C  27)    177.5713         0.010920   
    532. D(H  80,C  30,C  28,H  76)    -60.5648         0.010920   
    533. D(H  80,C  30,C  28,C  29)   -178.5702         0.010920   
    534. D(H  80,C  30,C  28,C  27)     57.1432         0.010920   
    535. D(O  42,C  32,C  18,H  66)    -47.4787         0.009134   
    536. D(O  42,C  32,C  18,C  19)   -162.9650         0.009134   
    537. D(O  42,C  32,C  18,C  17)     66.2053         0.009134   
    538. D(C  33,C  32,C  18,H  66)    134.4445         0.009134   
    539. D(C  33,C  32,C  18,C  19)     18.9582         0.009134   
    540. D(C  33,C  32,C  18,C  17)   -111.8715         0.009134   
    541. D(H  84,C  33,C  32,O  42)    133.6472         0.011975   
    542. D(H  84,C  33,C  32,C  18)    -48.3764         0.011975   
    543. D(H  83,C  33,C  32,O  42)   -114.9490         0.011975   
    544. D(H  83,C  33,C  32,C  18)     63.0274         0.011975   
    545. D(C  34,C  33,C  32,O  42)      7.9993         0.011975   
    546. D(C  34,C  33,C  32,C  18)   -174.0243         0.011975   
    547. D(H  86,C  34,C  33,H  84)   -159.9005         0.011268   
    548. D(H  86,C  34,C  33,H  83)     84.0042         0.011268   
    549. D(H  86,C  34,C  33,C  32)    -35.8183         0.011268   
    550. D(H  85,C  34,C  33,H  84)    -45.7057         0.011268   
    551. D(H  85,C  34,C  33,H  83)   -161.8010         0.011268   
    552. D(H  85,C  34,C  33,C  32)     78.3766         0.011268   
    553. D(C  35,C  34,C  33,H  84)     77.2134         0.011268   
    554. D(C  35,C  34,C  33,H  83)    -38.8819         0.011268   
    555. D(C  35,C  34,C  33,C  32)   -158.7043         0.011268   
    556. D(H  88,C  35,C  34,H  86)     92.2996         0.010340   
    557. D(H  88,C  35,C  34,H  85)    -23.5664         0.010340   
    558. D(H  88,C  35,C  34,C  33)   -145.3941         0.010340   
    559. D(H  87,C  35,C  34,H  86)   -152.0518         0.010340   
    560. D(H  87,C  35,C  34,H  85)     92.0823         0.010340   
    561. D(H  87,C  35,C  34,C  33)    -29.7454         0.010340   
    562. D(C  36,C  35,C  34,H  86)    -28.4665         0.010340   
    563. D(C  36,C  35,C  34,H  85)   -144.3324         0.010340   
    564. D(C  36,C  35,C  34,C  33)     93.8399         0.010340   
    565. D(H  90,C  36,C  35,H  87)   -174.1538         0.010712   
    566. D(H  90,C  36,C  35,C  34)     62.2109         0.010712   
    567. D(H  89,C  36,C  35,H  88)     55.6842         0.010712   
    568. D(H  89,C  36,C  35,H  87)    -59.1546         0.010712   
    569. D(H  89,C  36,C  35,C  34)    177.2101         0.010712   
    570. D(C  37,C  36,C  35,H  88)    178.8021         0.010712   
    571. D(C  37,C  36,C  35,H  87)     63.9633         0.010712   
    572. D(H  90,C  36,C  35,H  88)    -59.3150         0.010712   
    573. D(C  37,C  36,C  35,C  34)    -59.6721         0.010712   
    574. D(H  92,C  37,C  36,H  90)    177.8098         0.011050   
    575. D(H  92,C  37,C  36,H  89)     62.8589         0.011050   
    576. D(H  92,C  37,C  36,C  35)    -60.3648         0.011050   
    577. D(H  91,C  37,C  36,H  90)    -65.7556         0.011050   
    578. D(H  91,C  37,C  36,H  89)    179.2935         0.011050   
    579. D(H  91,C  37,C  36,C  35)     56.0698         0.011050   
    580. D(C  38,C  37,C  36,H  90)     55.7341         0.011050   
    581. D(C  38,C  37,C  36,H  89)    -59.2168         0.011050   
    582. D(C  38,C  37,C  36,C  35)    177.5595         0.011050   
    583. D(H  94,C  38,C  37,H  92)    175.4235         0.011001   
    584. D(H  94,C  38,C  37,H  91)     59.3888         0.011001   
    585. D(H  94,C  38,C  37,C  36)    -62.4238         0.011001   
    586. D(H  93,C  38,C  37,H  92)    -69.3493         0.011001   
    587. D(H  93,C  38,C  37,H  91)    174.6160         0.011001   
    588. D(H  93,C  38,C  37,C  36)     52.8034         0.011001   
    589. D(C  39,C  38,C  37,H  92)     52.9789         0.011001   
    590. D(C  39,C  38,C  37,H  91)    -63.0558         0.011001   
    591. D(C  39,C  38,C  37,C  36)    175.1316         0.011001   
    592. D(H  95,C  39,C  38,H  94)    174.9903         0.010908   
    593. D(H  95,C  39,C  38,H  93)     59.5608         0.010908   
    594. D(H  95,C  39,C  38,C  37)    -62.8192         0.010908   
    595. D(C  40,C  39,C  38,H  94)    -62.4293         0.010908   
    596. D(C  40,C  39,C  38,H  93)   -177.8588         0.010908   
    597. D(C  40,C  39,C  38,C  37)     59.7612         0.010908   
    598. D(H  96,C  39,C  38,H  94)     59.8124         0.010908   
    599. D(H  96,C  39,C  38,H  93)    -55.6171         0.010908   
    600. D(H  96,C  39,C  38,C  37)   -177.9971         0.010908   
    601. D(H  98,C  40,C  39,H  95)     61.9066         0.011012   
    602. D(H  98,C  40,C  39,C  38)    -60.6513         0.011012   
    603. D(H  97,C  40,C  39,H  96)    -67.4488         0.011012   
    604. D(H  97,C  40,C  39,H  95)    177.4553         0.011012   
    605. D(H  97,C  40,C  39,C  38)     54.8973         0.011012   
    606. D(C  41,C  40,C  39,H  96)     54.5847         0.011012   
    607. D(C  41,C  40,C  39,H  95)    -60.5113         0.011012   
    608. D(H  98,C  40,C  39,H  96)    177.0026         0.011012   
    609. D(C  41,C  40,C  39,C  38)    176.9308         0.011012   
    610. D(H 101,C  41,C  40,H  98)    -64.8397         0.011232   
    611. D(H 101,C  41,C  40,H  97)    179.8371         0.011232   
    612. D(H 101,C  41,C  40,C  39)     57.9975         0.011232   
    613. D(H 100,C  41,C  40,H  98)    175.8396         0.011232   
    614. D(H 100,C  41,C  40,H  97)     60.5165         0.011232   
    615. D(H 100,C  41,C  40,C  39)    -61.3232         0.011232   
    616. D(H  99,C  41,C  40,H  98)     55.2630         0.011232   
    617. D(H  99,C  41,C  40,H  97)    -60.0601         0.011232   
    618. D(H  99,C  41,C  40,C  39)    178.1003         0.011232   
    619. D(H 102,O  43,C  17,H  65)    -82.7407         0.015973   
    620. D(H 102,O  43,C  17,C  18)    160.9814         0.015973   
    621. D(H 102,O  43,C  17,C  16)     38.3536         0.015973   
    622. D(H 104,C  45,C  13,H  61)     78.3784         0.010470   
    623. D(H 104,C  45,C  13,C  14)   -162.5150         0.010470   
    624. D(H 104,C  45,C  13,N  12)    -37.4715         0.010470   
    625. D(H 103,C  45,C  13,H  61)   -165.6632         0.010470   
    626. D(H 103,C  45,C  13,C  14)    -46.5565         0.010470   
    627. D(H 103,C  45,C  13,N  12)     78.4869         0.010470   
    628. D(C  46,C  45,C  13,H  61)    -42.1799         0.010470   
    629. D(C  46,C  45,C  13,C  14)     76.9268         0.010470   
    630. D(C  46,C  45,C  13,N  12)   -158.0298         0.010470   
    631. D(H 107,C  46,C  45,H 104)    -60.4211         0.011205   
    632. D(H 107,C  46,C  45,H 103)   -178.7282         0.011205   
    633. D(H 107,C  46,C  45,C  13)     58.4745         0.011205   
    634. D(H 106,C  46,C  45,H 104)    178.9215         0.011205   
    635. D(H 106,C  46,C  45,H 103)     60.6143         0.011205   
    636. D(H 106,C  46,C  45,C  13)    -62.1830         0.011205   
    637. D(H 105,C  46,C  45,H 104)     58.6549         0.011205   
    638. D(H 105,C  46,C  45,H 103)    -59.6523         0.011205   
    639. D(H 105,C  46,C  45,C  13)    177.5504         0.011205   
    640. D(H 108,C  48,C  10,H  59)    178.2836         0.010342   
    641. D(H 108,C  48,C  10,C  11)    -61.2886         0.010342   
    642. D(H 108,C  48,C  10,N   9)     60.1398         0.010342   
    643. D(C  50,C  48,C  10,H  59)     60.9951         0.010342   
    644. D(C  50,C  48,C  10,C  11)   -178.5771         0.010342   
    645. D(C  50,C  48,C  10,N   9)    -57.1487         0.010342   
    646. D(C  49,C  48,C  10,H  59)    -62.2866         0.010342   
    647. D(C  49,C  48,C  10,C  11)     58.1412         0.010342   
    648. D(C  49,C  48,C  10,N   9)    179.5696         0.010342   
    649. D(H 111,C  49,C  48,C  50)     58.4343         0.010920   
    650. D(H 111,C  49,C  48,C  10)   -178.8385         0.010920   
    651. D(H 110,C  49,C  48,H 108)   -178.8854         0.010920   
    652. D(H 110,C  49,C  48,C  50)    -60.8186         0.010920   
    653. D(H 110,C  49,C  48,C  10)     61.9087         0.010920   
    654. D(H 109,C  49,C  48,H 108)     61.1214         0.010920   
    655. D(H 109,C  49,C  48,C  50)    179.1882         0.010920   
    656. D(H 111,C  49,C  48,H 108)    -59.6325         0.010920   
    657. D(H 109,C  49,C  48,C  10)    -58.0846         0.010920   
    658. D(H 114,C  50,C  48,H 108)   -179.6543         0.011008   
    659. D(H 114,C  50,C  48,C  49)     61.1823         0.011008   
    660. D(H 114,C  50,C  48,C  10)    -61.4670         0.011008   
    661. D(H 113,C  50,C  48,H 108)     60.4879         0.011008   
    662. D(H 113,C  50,C  48,C  49)    -58.6756         0.011008   
    663. D(H 113,C  50,C  48,C  10)    178.6751         0.011008   
    664. D(H 112,C  50,C  48,H 108)    -59.9131         0.011008   
    665. D(H 112,C  50,C  48,C  49)   -179.0766         0.011008   
    666. D(H 112,C  50,C  48,C  10)     58.2741         0.011008   
    -----------------------------------------------------------------

Number of atoms                         .... 115
Number of degrees of freedom            .... 666

         *************************************************************
         *                GEOMETRY OPTIMIZATION CYCLE   1            *
         *************************************************************
---------------------------------
CARTESIAN COORDINATES (ANGSTROEM)
---------------------------------
  O      6.633724    0.108446    0.545168
  C      5.414385    0.104909    0.404753
  C      4.662713    1.242618   -0.337274
  C      5.581465    2.422187   -0.640720
  C      5.493916    3.256763    0.643191
  C      4.013613    3.164958    1.030110
  N      3.582274    1.861203    0.468414
  C      2.333307    1.366028    0.521867
  O      2.039559    0.223511    0.084493
  N      4.587539   -0.888406    0.829100
  C      5.085844   -2.199893    1.237503
  C      4.493639   -3.181404    0.207392
  N      3.203084   -3.573499    0.468274
  C      2.471384   -4.442663   -0.450250
  C      0.968508   -4.112576   -0.399476
  N      0.666021   -2.799507   -0.137647
  C     -0.706422   -2.379985    0.083930
  C     -1.297920   -1.564128   -1.067342
  C     -2.798285   -1.280489   -0.825864
  C     -3.123074   -0.624659    0.526878
  N     -2.250036    0.360246    0.876475
  C     -2.160592    1.028459    2.172830
  C     -0.977947    2.004319    2.099777
  N      0.157211    1.466797    1.552085
  C      1.245891    2.292187    1.064968
  C      0.770282    3.215446   -0.077230
  O     -1.039894    3.165635    2.496869
  C     -1.982254    0.023023    3.329677
  C     -1.785438    0.659390    4.713411
  C     -2.974734    1.537857    5.120125
  C     -1.536624   -0.441827    5.750382
  O     -4.078529   -0.986784    1.212916
  C     -3.371501   -0.564744   -2.075192
  C     -3.796479    0.878571   -1.945185
  C     -4.479606    1.455035   -3.184958
  C     -4.438763    2.993784   -3.255048
  C     -3.255699    3.546661   -4.063217
  C     -1.866780    3.160679   -3.546935
  C     -0.740236    3.697400   -4.435438
  C      0.670395    3.436234   -3.894802
  C      1.011655    1.955236   -3.704164
  C      2.450754    1.739003   -3.235512
  O     -3.423782   -1.183972   -3.122901
  O     -0.621048   -0.295445   -1.246911
  O      0.104616   -4.966610   -0.576333
  C      2.755344   -5.936316   -0.211316
  C      2.460080   -6.814541   -1.427880
  O      5.079726   -3.470337   -0.829461
  C      4.815768   -2.517750    2.720836
  C      5.355646   -3.909133    3.070773
  C      5.433544   -1.440115    3.617146
  H      4.206153    0.801405   -1.234815
  H      5.193898    2.981269   -1.504616
  H      6.598325    2.077393   -0.855576
  H      6.122976    2.799555    1.419291
  H      5.814529    4.297031    0.510729
  H      3.850349    3.188437    2.115840
  H      3.432669    3.980305    0.574844
  H      3.600314   -0.796261    0.563299
  H      6.171791   -2.185358    1.067175
  H      2.873339   -3.512221    1.428484
  H      2.843379   -4.178909   -1.455195
  H      1.428529   -2.155833    0.059700
  H     -0.765299   -1.804477    1.020069
  H     -1.299719   -3.297352    0.203588
  H     -1.220334   -2.144582   -2.001443
  H     -3.305768   -2.255724   -0.806343
  H     -1.530775    0.557886    0.176344
  H     -3.056215    1.640578    2.347046
  H      0.146947    0.521005    1.173595
  H      1.628002    2.902856    1.894670
  H     -0.019101    3.873831    0.303230
  H      1.586923    3.836596   -0.467062
  H      0.372201    2.607340   -0.899887
  H     -1.112854   -0.615980    3.096921
  H     -2.866863   -0.630941    3.337312
  H     -0.887444    1.301724    4.675621
  H     -3.082162    2.409361    4.460692
  H     -3.912809    0.961452    5.089573
  H     -2.844622    1.914584    6.144979
  H     -0.668737   -1.061998    5.479441
  H     -1.349060   -0.012930    6.745336
  H     -2.411179   -1.106309    5.830616
  H     -2.877491    1.438294   -1.695772
  H     -4.429417    0.980760   -1.047436
  H     -5.520752    1.100251   -3.201905
  H     -4.008527    1.026077   -4.082799
  H     -4.424361    3.415842   -2.234952
  H     -5.367279    3.361835   -3.717964
  H     -3.329100    4.646833   -4.105665
  H     -3.351725    3.194756   -5.105655
  H     -1.786229    2.064372   -3.488284
  H     -1.735529    3.539125   -2.516227
  H     -0.876311    4.783361   -4.574028
  H     -0.834395    3.247950   -5.439527
  H      0.791477    3.962743   -2.931434
  H      1.408574    3.887726   -4.579625
  H      0.847323    1.418859   -4.654054
  H      0.318513    1.496154   -2.981230
  H      2.666940    0.673518   -3.072058
  H      3.174228    2.120745   -3.971704
  H      2.634543    2.270283   -2.288522
  H      0.341642   -0.401839   -1.101479
  H      2.173788   -6.279124    0.658817
  H      3.821698   -6.015286    0.048124
  H      2.720066   -7.861678   -1.219096
  H      1.398317   -6.769150   -1.696639
  H      3.056777   -6.488593   -2.293198
  H      3.721468   -2.500512    2.893861
  H      4.912563   -4.698521    2.446730
  H      6.445799   -3.942735    2.924881
  H      5.149980   -4.154621    4.121665
  H      5.034662   -0.445591    3.377411
  H      5.223765   -1.649253    4.675441
  H      6.524612   -1.406034    3.483029

----------------------------
CARTESIAN COORDINATES (A.U.)
----------------------------
  NO LB      ZA    FRAG     MASS         X           Y           Z
   0 O     8.0000    0    15.999   12.535922    0.204934    1.030217
   1 C     6.0000    0    12.011   10.231704    0.198250    0.764872
   2 C     6.0000    0    12.011    8.811251    2.348207   -0.637355
   3 C     6.0000    0    12.011   10.547440    4.577271   -1.210785
   4 C     6.0000    0    12.011   10.381997    6.154391    1.215455
   5 C     6.0000    0    12.011    7.584629    5.980903    1.946626
   6 N     7.0000    0    14.007    6.769517    3.517165    0.885174
   7 C     6.0000    0    12.011    4.409310    2.581419    0.986186
   8 O     8.0000    0    15.999    3.854207    0.422374    0.159669
   9 N     7.0000    0    14.007    8.669192   -1.678845    1.566771
  10 C     6.0000    0    12.011    9.610852   -4.157195    2.338542
  11 C     6.0000    0    12.011    8.491747   -6.011983    0.391913
  12 N     7.0000    0    14.007    6.052952   -6.752935    0.884909
  13 C     6.0000    0    12.011    4.670240   -8.395416   -0.850850
  14 C     6.0000    0    12.011    1.830215   -7.771642   -0.754899
  15 N     7.0000    0    14.007    1.258596   -5.290302   -0.260116
  16 C     6.0000    0    12.011   -1.334944   -4.497520    0.158606
  17 C     6.0000    0    12.011   -2.452714   -2.955774   -2.016984
  18 C     6.0000    0    12.011   -5.287992   -2.419773   -1.560656
  19 C     6.0000    0    12.011   -5.901755   -1.180435    0.995656
  20 N     7.0000    0    14.007   -4.251953    0.680767    1.656297
  21 C     6.0000    0    12.011   -4.082927    1.943505    4.106053
  22 C     6.0000    0    12.011   -1.848051    3.787615    3.968004
  23 N     7.0000    0    14.007    0.297086    2.771846    2.933016
  24 C     6.0000    0    12.011    2.354394    4.331606    2.012498
  25 C     6.0000    0    12.011    1.455622    6.076312   -0.145944
  26 O     8.0000    0    15.999   -1.965116    5.982183    4.718398
  27 C     6.0000    0    12.011   -3.745918    0.043506    6.292178
  28 C     6.0000    0    12.011   -3.373988    1.246066    8.907057
  29 C     6.0000    0    12.011   -5.621433    2.906128    9.675633
  30 C     6.0000    0    12.011   -2.903799   -0.834932   10.866647
  31 O     8.0000    0    15.999   -7.707303   -1.864751    2.292078
  32 C     6.0000    0    12.011   -6.371214   -1.067212   -3.921544
  33 C     6.0000    0    12.011   -7.174306    1.660258   -3.675867
  34 C     6.0000    0    12.011   -8.465228    2.749618   -6.018698
  35 C     6.0000    0    12.011   -8.388046    5.657432   -6.151149
  36 C     6.0000    0    12.011   -6.152379    6.702218   -7.678367
  37 C     6.0000    0    12.011   -3.527704    5.972818   -6.702736
  38 C     6.0000    0    12.011   -1.398844    6.987074   -8.381763
  39 C     6.0000    0    12.011    1.266863    6.493542   -7.360109
  40 C     6.0000    0    12.011    1.911751    3.694860   -6.999855
  41 C     6.0000    0    12.011    4.631253    3.286239   -6.114231
  42 O     8.0000    0    15.999   -6.470011   -2.237383   -5.901428
  43 O     8.0000    0    15.999   -1.173610   -0.558311   -2.356321
  44 O     8.0000    0    15.999    0.197695   -9.385534   -1.089112
  45 C     6.0000    0    12.011    5.206845  -11.218011   -0.399330
  46 C     6.0000    0    12.011    4.648877  -12.877616   -2.698303
  47 O     8.0000    0    15.999    9.599291   -6.557987   -1.567455
  48 C     6.0000    0    12.011    9.100482   -4.757857    5.141636
  49 C     6.0000    0    12.011   10.120705   -7.387191    5.802920
  50 C     6.0000    0    12.011   10.267909   -2.721422    6.835415
  51 H     1.0000    0     1.008    7.948477    1.514435   -2.333462
  52 H     1.0000    0     1.008    9.815045    5.633782   -2.843311
  53 H     1.0000    0     1.008   12.469027    3.925704   -1.616804
  54 H     1.0000    0     1.008   11.570748    5.290393    2.682072
  55 H     1.0000    0     1.008   10.987868    8.120211    0.965139
  56 H     1.0000    0     1.008    7.276106    6.025273    3.998358
  57 H     1.0000    0     1.008    6.486803    7.521686    1.086297
  58 H     1.0000    0     1.008    6.803608   -1.504716    1.064481
  59 H     1.0000    0     1.008   11.662996   -4.129729    2.016668
  60 H     1.0000    0     1.008    5.429825   -6.637137    2.699443
  61 H     1.0000    0     1.008    5.373207   -7.896994   -2.749920
  62 H     1.0000    0     1.008    2.699528   -4.073934    0.112817
  63 H     1.0000    0     1.008   -1.446206   -3.409967    1.927651
  64 H     1.0000    0     1.008   -2.456113   -6.231093    0.384725
  65 H     1.0000    0     1.008   -2.306098   -4.052674   -3.782179
  66 H     1.0000    0     1.008   -6.246995   -4.262701   -1.523768
  67 H     1.0000    0     1.008   -2.892746    1.054251    0.333242
  68 H     1.0000    0     1.008   -5.775409    3.100243    4.435274
  69 H     1.0000    0     1.008    0.277690    0.984556    2.217773
  70 H     1.0000    0     1.008    3.076479    5.485603    3.580408
  71 H     1.0000    0     1.008   -0.036096    7.320480    0.573022
  72 H     1.0000    0     1.008    2.998850    7.250115   -0.882619
  73 H     1.0000    0     1.008    0.703358    4.927158   -1.700540
  74 H     1.0000    0     1.008   -2.102989   -1.164033    5.852333
  75 H     1.0000    0     1.008   -5.417585   -1.192305    6.306605
  76 H     1.0000    0     1.008   -1.677026    2.459903    8.835644
  77 H     1.0000    0     1.008   -5.824442    4.553033    8.429486
  78 H     1.0000    0     1.008   -7.394137    1.816882    9.617899
  79 H     1.0000    0     1.008   -5.375556    3.618039   11.612327
  80 H     1.0000    0     1.008   -1.263730   -2.006885   10.354643
  81 H     1.0000    0     1.008   -2.549355   -0.024434   12.746838
  82 H     1.0000    0     1.008   -4.556469   -2.090621   11.018267
  83 H     1.0000    0     1.008   -5.437670    2.717982   -3.204544
  84 H     1.0000    0     1.008   -8.370385    1.853369   -1.979367
  85 H     1.0000    0     1.008  -10.432709    2.079172   -6.050723
  86 H     1.0000    0     1.008   -7.575019    1.939005   -7.715372
  87 H     1.0000    0     1.008   -8.360830    6.455006   -4.223447
  88 H     1.0000    0     1.008  -10.142687    6.352948   -7.025934
  89 H     1.0000    0     1.008   -6.291088    8.781241   -7.758583
  90 H     1.0000    0     1.008   -6.333843    6.037214   -9.648290
  91 H     1.0000    0     1.008   -3.375484    3.901098   -6.591902
  92 H     1.0000    0     1.008   -3.279675    6.687978   -4.754980
  93 H     1.0000    0     1.008   -1.655988    9.039241   -8.643660
  94 H     1.0000    0     1.008   -1.576778    6.137736  -10.279216
  95 H     1.0000    0     1.008    1.495674    7.488498   -5.539608
  96 H     1.0000    0     1.008    2.661820    7.346738   -8.654236
  97 H     1.0000    0     1.008    1.601208    2.681254   -8.794888
  98 H     1.0000    0     1.008    0.601902    2.827322   -5.633708
  99 H     1.0000    0     1.008    5.039787    1.272765   -5.805349
 100 H     1.0000    0     1.008    5.998422    4.007628   -7.505433
 101 H     1.0000    0     1.008    4.978565    4.290213   -4.324679
 102 H     1.0000    0     1.008    0.645610   -0.759365   -2.081493
 103 H     1.0000    0     1.008    4.107863  -11.865824    1.244983
 104 H     1.0000    0     1.008    7.221962  -11.367243    0.090941
 105 H     1.0000    0     1.008    5.140180  -14.856419   -2.303758
 106 H     1.0000    0     1.008    2.642435  -12.791839   -3.206183
 107 H     1.0000    0     1.008    5.776470  -12.261664   -4.333516
 108 H     1.0000    0     1.008    7.032556   -4.725283    5.468604
 109 H     1.0000    0     1.008    9.283399   -8.878918    4.623650
 110 H     1.0000    0     1.008   12.180794   -7.450690    5.527225
 111 H     1.0000    0     1.008    9.732051   -7.851097    7.788819
 112 H     1.0000    0     1.008    9.514132   -0.842045    6.382382
 113 H     1.0000    0     1.008    9.871485   -3.116636    8.835303
 114 H     1.0000    0     1.008   12.329730   -2.657020    6.581971

--------------------------------
INTERNAL COORDINATES (ANGSTROEM)
--------------------------------
 O      0   0   0     0.000000000000     0.00000000     0.00000000
 C      1   0   0     1.227402718430     0.00000000     0.00000000
 C      2   1   0     1.552415483187   122.24788376     0.00000000
 C      3   2   1     1.525637163791   111.72226473   350.63122661
 C      4   3   2     1.533821939124   102.69886963   273.48333815
 C      5   4   3     1.532785895908   103.52292816   320.27519131
 N      3   2   1     1.482946065914   113.50228118   234.74802270
 C      7   3   2     1.344610020648   123.00650195   274.20343251
 O      8   7   3     1.258145150110   122.51170566    12.52973567
 N      2   1   3     1.360301765701   124.76863536   177.77761780
 C     10   2   1     1.461197128121   122.36439716   346.06529703
 C     11  10   2     1.541168811817   104.69970679   244.30252974
 N     12  11  10     1.373800976853   114.57042226   277.61886284
 C     13  12  11     1.460998369203   121.39121446   176.57803103
 C     14  13  12     1.539536352831   109.91395696   211.44947131
 N     15  14  13     1.372662396601   115.24611522    31.65112664
 C     16  15  14     1.452134302803   120.91296802   186.83993554
 C     17  16  15     1.530006731736   113.86722881   251.88970629
 C     18  17  16     1.545915886785   110.82446560   174.13333982
 C     19  18  17     1.538021752258   114.87083688    53.67542335
 N     20  19  18     1.361782723457   113.50387381    42.11792615
 C     21  20  19     1.461178947751   126.70918993   189.99688214
 C     22  21  20     1.535021480864   107.19747649   176.97107814
 N     23  22  21     1.370211567663   114.07342719   313.82052167
 C     24  23  22     1.450439804184   122.19678808   162.95694972
 C     25  24  23     1.543770908183   110.95086891   299.12393707
 O     23  22  21     1.228891138783   123.13116118   133.84541705
 C     22  21  20     1.543049776528   111.97744852    54.81217354
 C     28  22  21     1.535714899692   114.85525477   176.05170278
 C     29  28  22     1.533475260327   112.14559258    59.81934613
 C     29  28  22     1.532936494343   109.42905679   183.42000504
 O     20  19  18     1.230721450507   121.92114153   222.89258781
 C     19  18  17     1.549738145476   108.52961445   184.96652277
 C     33  19  18     1.510187161373   118.43006367   248.12846387
 C     34  33  19     1.528401191652   114.60839892   185.97569895
 C     35  34  33     1.540885283211   113.68420261   201.29567281
 C     36  35  34     1.535724812120   113.82020157    93.83987078
 C     37  36  35     1.531215960262   115.50479261   300.32792659
 C     38  37  36     1.531864348543   112.53085647   177.55953676
 C     39  38  37     1.533093502785   114.35810365   175.13164325
 C     40  39  38     1.531717470888   114.43125129    59.76117275
 C     41  40  39     1.528854229928   112.62011094   176.93076309
 O     33  19  18     1.218142893808   118.32438067    66.20529125
 O     18  17  16     1.449122944476   112.30306074   295.25639497
 O     15  14  13     1.227584739281   122.21250424   211.90105157
 C     14  13  12     1.539065406149   112.78982109    84.99816264
 C     46  14  13     1.529211812654   113.46718562   201.97021444
 O     12  11  10     1.225579053892   122.13092605    90.22808552
 C     11  10   2     1.540860841329   113.23108161   116.50031563
 C     49  11  10     1.532929566561   110.19793611   179.56960481
 C     49  11  10     1.531768598066   110.33346546   302.85133831
 H      3   2   1     1.099406880406   107.28840641   115.56889473
 H      4   3   2     1.099588807535   109.70152099   155.21432161
 H      4   3   2     1.095011831831   110.78136221    34.25071122
 H      5   4   3     1.098675149202   109.40168318    78.05323112
 H      5   4   3     1.096583172262   113.47632094   199.01110602
 H      6   5   4     1.098187205641   113.07032585   147.69489054
 H      6   5   4     1.099797469657   111.17661692   269.83837748
 H     10   2   1     1.026524709631   115.99211975   185.60513551
 H     11  10   2     1.099320519081   106.36196481   356.85318449
 H     13  12  11     1.017098503302   117.81627467   336.71326530
 H     14  13  12     1.103566706885   105.15961418   327.38645634
 H     16  15  14     1.017192850998   118.49865697   356.26602887
 H     17  16  15     1.100468840869   109.35699012   128.51260523
 H     17  16  15     1.099036911882   106.59921847    11.56719949
 H     18  17  16     1.102493394044   109.24334654    56.12402891
 H     19  18  17     1.099546991053   106.73697348   297.28059057
 H     21  20  19     1.023025269021   114.50497641     2.79887511
 H     22  21  20     1.098718109630   110.21573336   292.30369634
 H     24  23  22     1.018765959426   120.28796563     4.46736857
 H     25  24  23     1.098786109126   108.88632297    59.67820650
 H     26  25  24     1.096059595574   108.92317827    60.77775672
 H     26  25  24     1.097587542836   111.83971245   180.83885334
 H     26  25  24     1.097736564007   109.56608254   301.17342438
 H     28  22  21     1.103791794530   108.06863700    53.87991467
 H     28  22  21     1.100117190612   107.43390394   298.86022665
 H     29  28  22     1.104723485107   108.31809474   300.92381079
 H     30  29  28     1.098140752221   111.79188643   295.09000342
 H     30  29  28     1.101435121560   110.69433644    56.02498509
 H     30  29  28     1.099626695316   110.59014992   175.44735782
 H     31  29  28     1.100567341742   111.48547838    57.14315585
 H     31  29  28     1.099575358117   111.07430729   177.57127123
 H     31  29  28     1.101281378335   110.72188328   297.24902039
 H     34  33  19     1.104552583330   105.64111615    63.02743740
 H     34  33  19     1.103180120607   108.66535698   311.62364844
 H     35  34  33     1.100065941807   108.29265632    78.37656287
 H     35  34  33     1.100926113676   108.86371986   324.18173212
 H     36  35  34     1.104054346893   109.88101811   330.25458607
 H     36  35  34     1.100861525421   109.30746582   214.60594260
 H     37  36  35     1.103434587875   109.14409029   177.21007245
 H     37  36  35     1.104416522827   108.36206437    62.21086074
 H     38  37  36     1.100825910309   109.59552069    56.06980629
 H     38  37  36     1.105806423119   109.61307964   299.63523337
 H     39  38  37     1.103191993326   109.09003271    52.80338352
 H     39  38  37     1.104113260638   108.79169869   297.57621643
 H     40  39  38     1.104513062841   109.10148775   297.18076965
 H     40  39  38     1.103510656371   109.08431942   182.00289106
 H     41  40  39     1.103175916259   109.25402026    54.89730578
 H     41  40  39     1.101741978043   110.14447567   299.34866260
 H     42  41  40     1.099413851901   111.57617113   178.10027065
 H     42  41  40     1.100509853901   111.38813203   298.67681656
 H     42  41  40     1.101284479926   110.63717695    57.99749354
 H     44  18  17     0.979408772895   110.21925234    38.35364894
 H     46  14  13     1.101297486599   109.10639054    78.48693326
 H     46  14  13     1.100298374419   106.56295217   322.52846102
 H     47  46  14     1.098945014266   110.51195181   177.55039997
 H     47  46  14     1.096190168978   110.99503146   297.81700450
 H     47  46  14     1.100483226465   110.53349347    58.47447352
 H     49  11  10     1.108027700518   108.67624432    60.13983455
 H     50  49  11     1.099493298804   112.34417292   301.91541690
 H     50  49  11     1.100384252842   110.26506565    61.90870699
 H     50  49  11     1.098607473214   110.80899424   181.16154272
 H     51  49  11     1.098024077598   111.28093407    58.27410866
 H     51  49  11     1.098969629095   110.64764824   178.67512352
 H     51  49  11     1.099808885539   110.52085521   298.53297145

---------------------------
INTERNAL COORDINATES (A.U.)
---------------------------
 O      0   0   0     0.000000000000     0.00000000     0.00000000
 C      1   0   0     2.319454993863     0.00000000     0.00000000
 C      2   1   0     2.933640109283   122.24788376     0.00000000
 C      3   2   1     2.883036419298   111.72226473   350.63122661
 C      4   3   2     2.898503403144   102.69886963   273.48333815
 C      5   4   3     2.896545565203   103.52292816   320.27519131
 N      3   2   1     2.802361935953   113.50228118   234.74802270
 C      7   3   2     2.540944695950   123.00650195   274.20343251
 O      8   7   3     2.377549770428   122.51170566    12.52973567
 N      2   1   3     2.570597796665   124.76863536   177.77761780
 C     10   2   1     2.761262399822   122.36439716   346.06529703
 C     11  10   2     2.912386980474   104.69970679   244.30252974
 N     12  11  10     2.596107608766   114.57042226   277.61886284
 C     13  12  11     2.760886799899   121.39121446   176.57803103
 C     14  13  12     2.909302080066   109.91395696   211.44947131
 N     15  14  13     2.593956003907   115.24611522    31.65112664
 C     16  15  14     2.744136141970   120.91296802   186.83993554
 C     17  16  15     2.891293706037   113.86722881   251.88970629
 C     18  17  16     2.921357652101   110.82446560   174.13333982
 C     19  18  17     2.906439899781   114.87083688    53.67542335
 N     20  19  18     2.573396401239   113.50387381    42.11792615
 C     21  20  19     2.761228043900   126.70918993   189.99688214
 C     22  21  20     2.900770208519   107.19747649   176.97107814
 N     23  22  21     2.589324608414   114.07342719   313.82052167
 C     24  23  22     2.740934003646   122.19678808   162.95694972
 C     25  24  23     2.917304229982   110.95086891   299.12393707
 O     23  22  21     2.322267700703   123.13116118   133.84541705
 C     22  21  20     2.915941488647   111.97744852    54.81217354
 C     28  22  21     2.902080580200   114.85525477   176.05170278
 C     29  28  22     2.897848275162   112.14559258    59.81934613
 C     29  28  22     2.896830155002   109.42905679   183.42000504
 O     20  19  18     2.325726488600   121.92114153   222.89258781
 C     19  18  17     2.928580674241   108.52961445   184.96652277
 C     33  19  18     2.853840145960   118.43006367   248.12846387
 C     34  33  19     2.888259674982   114.60839892   185.97569895
 C     35  34  33     2.911851189058   113.68420261   201.29567281
 C     36  35  34     2.902099311975   113.82020157    93.83987078
 C     37  36  35     2.893578816785   115.50479261   300.32792659
 C     38  37  36     2.894804093064   112.53085647   177.55953676
 C     39  38  37     2.897126857958   114.35810365   175.13164325
 C     40  39  38     2.894526534520   114.43125129    59.76117275
 C     41  40  39     2.889115793251   112.62011094   176.93076309
 O     33  19  18     2.301956461279   118.32438067    66.20529125
 O     18  17  16     2.738445499442   112.30306074   295.25639497
 O     15  14  13     2.319798963421   122.21250424   211.90105157
 C     14  13  12     2.908412119814   112.78982109    84.99816264
 C     46  14  13     2.889791526674   113.46718562   201.97021444
 O     12  11  10     2.316008767327   122.13092605    90.22808552
 C     11  10   2     2.911805000595   113.23108161   116.50031563
 C     49  11  10     2.896817063391   110.19793611   179.56960481
 C     49  11  10     2.894623150886   110.33346546   302.85133831
 H      3   2   1     2.077577913715   107.28840641   115.56889473
 H      4   3   2     2.077921706167   109.70152099   155.21432161
 H      4   3   2     2.069272475565   110.78136221    34.25071122
 H      5   4   3     2.076195142137   109.40168318    78.05323112
 H      5   4   3     2.072241878642   113.47632094   199.01110602
 H      6   5   4     2.075273062438   113.07032585   147.69489054
 H      6   5   4     2.078316020431   111.17661692   269.83837748
[...]
      equations for an ideal gas
  (5) All vibrations are strictly harmonic

freq.      10.33  E(vib)   ...       0.58 
freq.      12.97  E(vib)   ...       0.57 
freq.      19.97  E(vib)   ...       0.56 
freq.      20.29  E(vib)   ...       0.56 
freq.      23.25  E(vib)   ...       0.56 
freq.      28.72  E(vib)   ...       0.55 
freq.      33.58  E(vib)   ...       0.55 
freq.      38.25  E(vib)   ...       0.54 
freq.      39.13  E(vib)   ...       0.54 
freq.      40.64  E(vib)   ...       0.54 
freq.      44.00  E(vib)   ...       0.53 
freq.      47.93  E(vib)   ...       0.53 
freq.      52.18  E(vib)   ...       0.52 
freq.      55.25  E(vib)   ...       0.52 
freq.      56.73  E(vib)   ...       0.52 
freq.      58.80  E(vib)   ...       0.51 
freq.      65.20  E(vib)   ...       0.50 
freq.      67.05  E(vib)   ...       0.50 
freq.      72.28  E(vib)   ...       0.50 
freq.      76.18  E(vib)   ...       0.49 
freq.      81.24  E(vib)   ...       0.48 
freq.      83.45  E(vib)   ...       0.48 
freq.      90.52  E(vib)   ...       0.47 
freq.      94.98  E(vib)   ...       0.47 
freq.     105.69  E(vib)   ...       0.45 
freq.     106.12  E(vib)   ...       0.45 
freq.     108.09  E(vib)   ...       0.45 
freq.     114.45  E(vib)   ...       0.44 
freq.     122.90  E(vib)   ...       0.43 
freq.     131.23  E(vib)   ...       0.42 
freq.     132.89  E(vib)   ...       0.42 
freq.     136.61  E(vib)   ...       0.42 
freq.     143.68  E(vib)   ...       0.41 
freq.     149.54  E(vib)   ...       0.40 
freq.     155.10  E(vib)   ...       0.40 
freq.     161.88  E(vib)   ...       0.39 
freq.     166.50  E(vib)   ...       0.39 
freq.     170.34  E(vib)   ...       0.38 
freq.     178.44  E(vib)   ...       0.37 
freq.     186.01  E(vib)   ...       0.37 
freq.     190.73  E(vib)   ...       0.36 
freq.     201.66  E(vib)   ...       0.35 
freq.     207.19  E(vib)   ...       0.34 
freq.     215.73  E(vib)   ...       0.34 
freq.     222.28  E(vib)   ...       0.33 
freq.     223.78  E(vib)   ...       0.33 
freq.     227.64  E(vib)   ...       0.33 
freq.     231.79  E(vib)   ...       0.32 
freq.     238.00  E(vib)   ...       0.32 
freq.     239.18  E(vib)   ...       0.31 
freq.     241.55  E(vib)   ...       0.31 
freq.     244.86  E(vib)   ...       0.31 
freq.     249.43  E(vib)   ...       0.31 
freq.     251.22  E(vib)   ...       0.30 
freq.     256.93  E(vib)   ...       0.30 
freq.     260.11  E(vib)   ...       0.30 
freq.     264.36  E(vib)   ...       0.29 
freq.     271.01  E(vib)   ...       0.29 
freq.     285.95  E(vib)   ...       0.27 
freq.     287.67  E(vib)   ...       0.27 
freq.     297.30  E(vib)   ...       0.27 
freq.     306.67  E(vib)   ...       0.26 
freq.     319.63  E(vib)   ...       0.25 
freq.     327.23  E(vib)   ...       0.24 
freq.     329.76  E(vib)   ...       0.24 
freq.     337.61  E(vib)   ...       0.24 
freq.     338.87  E(vib)   ...       0.23 
freq.     343.18  E(vib)   ...       0.23 
freq.     356.83  E(vib)   ...       0.22 
freq.     365.12  E(vib)   ...       0.22 
freq.     368.05  E(vib)   ...       0.21 
freq.     378.45  E(vib)   ...       0.21 
freq.     388.87  E(vib)   ...       0.20 
freq.     402.87  E(vib)   ...       0.19 
freq.     413.26  E(vib)   ...       0.19 
freq.     428.75  E(vib)   ...       0.18 
freq.     437.86  E(vib)   ...       0.17 
freq.     442.76  E(vib)   ...       0.17 
freq.     450.68  E(vib)   ...       0.17 
freq.     455.88  E(vib)   ...       0.16 
freq.     463.85  E(vib)   ...       0.16 
freq.     465.25  E(vib)   ...       0.16 
freq.     471.35  E(vib)   ...       0.15 
freq.     491.95  E(vib)   ...       0.14 
freq.     497.23  E(vib)   ...       0.14 
freq.     499.60  E(vib)   ...       0.14 
freq.     509.77  E(vib)   ...       0.14 
freq.     523.17  E(vib)   ...       0.13 
freq.     534.23  E(vib)   ...       0.13 
freq.     549.16  E(vib)   ...       0.12 
freq.     557.44  E(vib)   ...       0.12 
freq.     573.86  E(vib)   ...       0.11 
freq.     577.02  E(vib)   ...       0.11 
freq.     612.22  E(vib)   ...       0.10 
freq.     623.45  E(vib)   ...       0.09 
freq.     635.02  E(vib)   ...       0.09 
freq.     661.62  E(vib)   ...       0.08 
freq.     676.36  E(vib)   ...       0.08 
freq.     689.39  E(vib)   ...       0.07 
freq.     694.24  E(vib)   ...       0.07 
freq.     695.52  E(vib)   ...       0.07 
freq.     710.79  E(vib)   ...       0.07 
freq.     712.49  E(vib)   ...       0.07 
freq.     718.09  E(vib)   ...       0.07 
freq.     727.95  E(vib)   ...       0.06 
freq.     733.08  E(vib)   ...       0.06 
freq.     747.33  E(vib)   ...       0.06 
freq.     752.57  E(vib)   ...       0.06 
freq.     754.35  E(vib)   ...       0.06 
freq.     758.58  E(vib)   ...       0.06 
freq.     767.89  E(vib)   ...       0.06 
freq.     770.43  E(vib)   ...       0.05 
freq.     785.19  E(vib)   ...       0.05 
freq.     808.21  E(vib)   ...       0.05 
freq.     817.77  E(vib)   ...       0.05 
freq.     823.72  E(vib)   ...       0.05 
freq.     829.03  E(vib)   ...       0.04 
freq.     834.45  E(vib)   ...       0.04 
freq.     843.83  E(vib)   ...       0.04 
freq.     847.16  E(vib)   ...       0.04 
freq.     855.32  E(vib)   ...       0.04 
freq.     862.35  E(vib)   ...       0.04 
freq.     865.41  E(vib)   ...       0.04 
freq.     867.00  E(vib)   ...       0.04 
freq.     874.71  E(vib)   ...       0.04 
freq.     877.79  E(vib)   ...       0.04 
freq.     897.37  E(vib)   ...       0.03 
freq.     900.75  E(vib)   ...       0.03 
freq.     904.31  E(vib)   ...       0.03 
freq.     907.05  E(vib)   ...       0.03 
freq.     915.33  E(vib)   ...       0.03 
freq.     918.01  E(vib)   ...       0.03 
freq.     923.65  E(vib)   ...       0.03 
freq.     931.83  E(vib)   ...       0.03 
freq.     938.94  E(vib)   ...       0.03 
freq.     940.42  E(vib)   ...       0.03 
freq.     944.60  E(vib)   ...       0.03 
freq.     948.17  E(vib)   ...       0.03 
freq.     956.29  E(vib)   ...       0.03 
freq.     957.48  E(vib)   ...       0.03 
freq.     965.27  E(vib)   ...       0.03 
freq.     969.21  E(vib)   ...       0.03 
freq.     969.97  E(vib)   ...       0.03 
freq.     974.98  E(vib)   ...       0.03 
freq.     976.97  E(vib)   ...       0.03 
freq.    1007.67  E(vib)   ...       0.02 
freq.    1011.01  E(vib)   ...       0.02 
freq.    1018.36  E(vib)   ...       0.02 
freq.    1022.21  E(vib)   ...       0.02 
freq.    1027.72  E(vib)   ...       0.02 
freq.    1032.74  E(vib)   ...       0.02 
freq.    1034.18  E(vib)   ...       0.02 
freq.    1044.40  E(vib)   ...       0.02 
freq.    1054.32  E(vib)   ...       0.02 
freq.    1055.55  E(vib)   ...       0.02 
freq.    1059.34  E(vib)   ...       0.02 
freq.    1062.21  E(vib)   ...       0.02 
freq.    1068.34  E(vib)   ...       0.02 
freq.    1071.24  E(vib)   ...       0.02 
freq.    1074.32  E(vib)   ...       0.02 
freq.    1076.80  E(vib)   ...       0.02 
freq.    1079.16  E(vib)   ...       0.02 
freq.    1088.27  E(vib)   ...       0.02 
freq.    1091.89  E(vib)   ...       0.02 
freq.    1092.99  E(vib)   ...       0.02 
freq.    1099.55  E(vib)   ...       0.02 
freq.    1110.85  E(vib)   ...       0.01 
freq.    1120.12  E(vib)   ...       0.01 
freq.    1120.50  E(vib)   ...       0.01 
freq.    1123.18  E(vib)   ...       0.01 
freq.    1123.46  E(vib)   ...       0.01 
freq.    1133.40  E(vib)   ...       0.01 
freq.    1151.85  E(vib)   ...       0.01 
freq.    1153.30  E(vib)   ...       0.01 
freq.    1159.50  E(vib)   ...       0.01 
freq.    1159.59  E(vib)   ...       0.01 
freq.    1162.34  E(vib)   ...       0.01 
freq.    1170.30  E(vib)   ...       0.01 
freq.    1174.28  E(vib)   ...       0.01 
freq.    1178.55  E(vib)   ...       0.01 
freq.    1183.14  E(vib)   ...       0.01 
freq.    1193.15  E(vib)   ...       0.01 
freq.    1198.96  E(vib)   ...       0.01 
freq.    1199.50  E(vib)   ...       0.01 
freq.    1211.14  E(vib)   ...       0.01 
freq.    1215.35  E(vib)   ...       0.01 
freq.    1220.60  E(vib)   ...       0.01 
freq.    1226.90  E(vib)   ...       0.01 
freq.    1228.98  E(vib)   ...       0.01 
freq.    1234.01  E(vib)   ...       0.01 
freq.    1247.95  E(vib)   ...       0.01 
freq.    1251.44  E(vib)   ...       0.01 
freq.    1252.21  E(vib)   ...       0.01 
freq.    1254.43  E(vib)   ...       0.01 
freq.    1257.16  E(vib)   ...       0.01 
freq.    1264.30  E(vib)   ...       0.01 
freq.    1267.70  E(vib)   ...       0.01 
freq.    1271.29  E(vib)   ...       0.01 
freq.    1273.27  E(vib)   ...       0.01 
freq.    1274.80  E(vib)   ...       0.01 
freq.    1276.87  E(vib)   ...       0.01 
freq.    1284.39  E(vib)   ...       0.01 
freq.    1285.57  E(vib)   ...       0.01 
freq.    1287.76  E(vib)   ...       0.01 
freq.    1291.09  E(vib)   ...       0.01 
freq.    1292.54  E(vib)   ...       0.01 
freq.    1299.11  E(vib)   ...       0.01 
freq.    1301.66  E(vib)   ...       0.01 
freq.    1303.41  E(vib)   ...       0.01 
freq.    1306.17  E(vib)   ...       0.01 
freq.    1306.74  E(vib)   ...       0.01 
freq.    1307.32  E(vib)   ...       0.01 
freq.    1309.69  E(vib)   ...       0.01 
freq.    1313.68  E(vib)   ...       0.01 
freq.    1315.21  E(vib)   ...       0.01 
freq.    1319.02  E(vib)   ...       0.01 
freq.    1325.85  E(vib)   ...       0.01 
freq.    1329.51  E(vib)   ...       0.01 
freq.    1331.81  E(vib)   ...       0.01 
freq.    1335.99  E(vib)   ...       0.01 
freq.    1339.22  E(vib)   ...       0.01 
freq.    1342.15  E(vib)   ...       0.01 
freq.    1342.68  E(vib)   ...       0.01 
freq.    1343.78  E(vib)   ...       0.01 
freq.    1345.52  E(vib)   ...       0.01 
freq.    1351.53  E(vib)   ...       0.01 
freq.    1352.55  E(vib)   ...       0.01 
freq.    1353.20  E(vib)   ...       0.01 
freq.    1354.02  E(vib)   ...       0.01 
freq.    1357.66  E(vib)   ...       0.01 
freq.    1360.77  E(vib)   ...       0.01 
freq.    1365.41  E(vib)   ...       0.01 
freq.    1371.66  E(vib)   ...       0.01 
freq.    1375.67  E(vib)   ...       0.01 
freq.    1390.60  E(vib)   ...       0.00 
freq.    1408.18  E(vib)   ...       0.00 
freq.    1420.20  E(vib)   ...       0.00 
freq.    1425.89  E(vib)   ...       0.00 
freq.    1428.80  E(vib)   ...       0.00 
freq.    1428.94  E(vib)   ...       0.00 
freq.    1432.86  E(vib)   ...       0.00 
freq.    1433.08  E(vib)   ...       0.00 
freq.    1434.32  E(vib)   ...       0.00 
freq.    1438.35  E(vib)   ...       0.00 
freq.    1440.26  E(vib)   ...       0.00 
freq.    1441.38  E(vib)   ...       0.00 
freq.    1442.32  E(vib)   ...       0.00 
freq.    1445.05  E(vib)   ...       0.00 
freq.    1446.00  E(vib)   ...       0.00 
freq.    1446.52  E(vib)   ...       0.00 
freq.    1446.63  E(vib)   ...       0.00 
freq.    1448.16  E(vib)   ...       0.00 
freq.    1450.42  E(vib)   ...       0.00 
freq.    1451.43  E(vib)   ...       0.00 
freq.    1454.94  E(vib)   ...       0.00 
freq.    1455.34  E(vib)   ...       0.00 
freq.    1456.14  E(vib)   ...       0.00 
freq.    1457.46  E(vib)   ...       0.00 
freq.    1458.17  E(vib)   ...       0.00 
freq.    1462.45  E(vib)   ...       0.00 
freq.    1463.24  E(vib)   ...       0.00 
freq.    1464.35  E(vib)   ...       0.00 
freq.    1465.72  E(vib)   ...       0.00 
freq.    1466.11  E(vib)   ...       0.00 
freq.    1468.93  E(vib)   ...       0.00 
freq.    1476.78  E(vib)   ...       0.00 
freq.    1520.87  E(vib)   ...       0.00 
freq.    1535.66  E(vib)   ...       0.00 
freq.    1587.21  E(vib)   ...       0.00 
freq.    1686.05  E(vib)   ...       0.00 
freq.    1689.67  E(vib)   ...       0.00 
freq.    1690.41  E(vib)   ...       0.00 
freq.    1695.91  E(vib)   ...       0.00 
freq.    1702.04  E(vib)   ...       0.00 
freq.    1714.94  E(vib)   ...       0.00 
freq.    2892.92  E(vib)   ...       0.00 
freq.    2920.47  E(vib)   ...       0.00 
freq.    2931.23  E(vib)   ...       0.00 
freq.    2931.75  E(vib)   ...       0.00 
freq.    2931.94  E(vib)   ...       0.00 
freq.    2938.59  E(vib)   ...       0.00 
freq.    2939.45  E(vib)   ...       0.00 
freq.    2942.24  E(vib)   ...       0.00 
freq.    2949.49  E(vib)   ...       0.00 
freq.    2951.82  E(vib)   ...       0.00 
freq.    2952.90  E(vib)   ...       0.00 
freq.    2954.93  E(vib)   ...       0.00 
freq.    2959.38  E(vib)   ...       0.00 
freq.    2959.91  E(vib)   ...       0.00 
freq.    2960.77  E(vib)   ...       0.00 
freq.    2962.12  E(vib)   ...       0.00 
freq.    2964.35  E(vib)   ...       0.00 
freq.    2965.21  E(vib)   ...       0.00 
freq.    2968.73  E(vib)   ...       0.00 
freq.    2969.21  E(vib)   ...       0.00 
freq.    2970.40  E(vib)   ...       0.00 
freq.    2970.58  E(vib)   ...       0.00 
freq.    2971.05  E(vib)   ...       0.00 
freq.    2975.92  E(vib)   ...       0.00 
freq.    2977.07  E(vib)   ...       0.00 
freq.    2978.32  E(vib)   ...       0.00 
freq.    2983.08  E(vib)   ...       0.00 
freq.    2988.24  E(vib)   ...       0.00 
freq.    2989.98  E(vib)   ...       0.00 
freq.    2990.53  E(vib)   ...       0.00 
freq.    3000.97  E(vib)   ...       0.00 
freq.    3001.03  E(vib)   ...       0.00 
freq.    3003.52  E(vib)   ...       0.00 
freq.    3004.93  E(vib)   ...       0.00 
freq.    3007.43  E(vib)   ...       0.00 
freq.    3008.00  E(vib)   ...       0.00 
freq.    3009.99  E(vib)   ...       0.00 
freq.    3012.60  E(vib)   ...       0.00 
freq.    3013.66  E(vib)   ...       0.00 
freq.    3014.31  E(vib)   ...       0.00 
freq.    3017.75  E(vib)   ...       0.00 
freq.    3018.02  E(vib)   ...       0.00 
freq.    3022.31  E(vib)   ...       0.00 
freq.    3023.04  E(vib)   ...       0.00 
freq.    3027.04  E(vib)   ...       0.00 
freq.    3027.98  E(vib)   ...       0.00 
freq.    3029.83  E(vib)   ...       0.00 
freq.    3032.20  E(vib)   ...       0.00 
freq.    3033.97  E(vib)   ...       0.00 
freq.    3036.77  E(vib)   ...       0.00 
freq.    3039.92  E(vib)   ...       0.00 
freq.    3042.04  E(vib)   ...       0.00 
freq.    3045.37  E(vib)   ...       0.00 
freq.    3054.19  E(vib)   ...       0.00 
freq.    3058.12  E(vib)   ...       0.00 
freq.    3067.16  E(vib)   ...       0.00 
freq.    3072.57  E(vib)   ...       0.00 
freq.    3074.32  E(vib)   ...       0.00 
freq.    3320.19  E(vib)   ...       0.00 
freq.    3356.39  E(vib)   ...       0.00 
freq.    3461.02  E(vib)   ...       0.00 
freq.    3485.69  E(vib)   ...       0.00 
freq.    3487.00  E(vib)   ...       0.00 
freq.    3572.91  E(vib)   ...       0.00 

------------
INNER ENERGY
------------

The inner energy is: U= E(el) + E(ZPE) + E(vib) + E(rot) + E(trans)
    E(el)   - is the total energy from the electronic structure calculation
              = E(kin-el) + E(nuc-el) + E(el-el) + E(nuc-nuc)
    E(ZPE)  - the the zero temperature vibrational energy from the frequency calculation
    E(vib)  - the the finite temperature correction to E(ZPE) due to population
              of excited vibrational states
    E(rot)  - is the rotational thermal energy
    E(trans)- is the translational thermal energy

Summary of contributions to the inner energy U:
Electronic energy                ...  -2380.06553259 Eh
Zero point energy                ...      0.97707522 Eh     613.12 kcal/mol
Thermal vibrational correction   ...      0.05586128 Eh      35.05 kcal/mol
Thermal rotational correction    ...      0.00141627 Eh       0.89 kcal/mol
Thermal translational correction ...      0.00141627 Eh       0.89 kcal/mol
-----------------------------------------------------------------------
Total thermal energy                  -2379.02976355 Eh


Summary of corrections to the electronic energy:
(perhaps to be used in another calculation)
Total thermal correction                  0.05869382 Eh      36.83 kcal/mol
Non-thermal (ZPE) correction              0.97707522 Eh     613.12 kcal/mol
-----------------------------------------------------------------------
Total correction                          1.03576904 Eh     649.95 kcal/mol


--------
ENTHALPY
--------

The enthalpy is H = U + kB*T
                kB is Boltzmann's constant
Total free energy                 ...  -2379.02976355 Eh 
Thermal Enthalpy correction       ...      0.00094421 Eh       0.59 kcal/mol
-----------------------------------------------------------------------
Total Enthalpy                    ...  -2379.02881934 Eh


Note: Only C1 symmetry has been detected, increase convergence thresholds 
      if your molecule has a higher symmetry. Symmetry factor of 1.0 is   
      used for the rotational entropy correction. 
 

Note: Rotational entropy computed according to Herzberg 
Infrared and Raman Spectra, Chapter V,1, Van Nostrand Reinhold, 1945 
Point Group:  C1, Symmetry Number:   1  
Rotational constants in cm-1:     0.002032     0.001357     0.001267 

Vibrational entropy computed according to the QRRHO of S. Grimme
Chem.Eur.J. 2012 18 9955


-------
ENTROPY
-------

The entropy contributions are T*S = T*(S(el)+S(vib)+S(rot)+S(trans))
     S(el)   - electronic entropy
     S(vib)  - vibrational entropy
     S(rot)  - rotational entropy
     S(trans)- translational entropy
The entropies will be listed as mutliplied by the temperature to get
units of energy

Electronic entropy                ...      0.00000000 Eh      0.00 kcal/mol
Vibrational entropy               ...      0.10238540 Eh     64.25 kcal/mol
Rotational entropy                ...      0.01870356 Eh     11.74 kcal/mol
Translational entropy             ...      0.02166895 Eh     13.60 kcal/mol
-----------------------------------------------------------------------
Final entropy term                ...      0.14275791 Eh     89.58 kcal/mol

In case the symmetry of your molecule has not been determined correctly
or in case you have a reason to use a different symmetry number we print 
out the resulting rotational entropy values for sn=1,12 :
 --------------------------------------------------------
|  sn= 1 | S(rot)=       0.01870356 Eh     11.74 kcal/mol|
|  sn= 2 | S(rot)=       0.01804910 Eh     11.33 kcal/mol|
|  sn= 3 | S(rot)=       0.01766627 Eh     11.09 kcal/mol|
|  sn= 4 | S(rot)=       0.01739464 Eh     10.92 kcal/mol|
|  sn= 5 | S(rot)=       0.01718396 Eh     10.78 kcal/mol|
|  sn= 6 | S(rot)=       0.01701181 Eh     10.68 kcal/mol|
|  sn= 7 | S(rot)=       0.01686626 Eh     10.58 kcal/mol|
|  sn= 8 | S(rot)=       0.01674019 Eh     10.50 kcal/mol|
|  sn= 9 | S(rot)=       0.01662898 Eh     10.43 kcal/mol|
|  sn=10 | S(rot)=       0.01652950 Eh     10.37 kcal/mol|
|  sn=11 | S(rot)=       0.01643951 Eh     10.32 kcal/mol|
|  sn=12 | S(rot)=       0.01635735 Eh     10.26 kcal/mol|
 --------------------------------------------------------


-------------------
GIBBS FREE ENERGY
-------------------

The Gibbs free energy is G = H - T*S

Total enthalpy                    ...  -2379.02881934 Eh 
Total entropy correction          ...     -0.14275791 Eh    -89.58 kcal/mol
-----------------------------------------------------------------------
Final Gibbs free energy         ...  -2379.17157724 Eh

For completeness - the Gibbs free energy minus the electronic energy
G-E(el)                           ...      0.89395535 Eh    560.96 kcal/mol


Timings for individual modules:

Sum of individual times         ...    23948.822 sec (= 399.147 min)
GTO integral calculation        ...       44.637 sec (=   0.744 min)   0.2 %
SCF iterations                  ...      736.407 sec (=  12.273 min)   3.1 %
SCF Gradient evaluation         ...      340.062 sec (=   5.668 min)   1.4 %
Geometry relaxation             ...       10.385 sec (=   0.173 min)   0.0 %
Analytical frequency calculation...    22817.331 sec (= 380.289 min)  95.3 %
                             ****ORCA TERMINATED NORMALLY****
TOTAL RUN TIME: 0 days 6 hours 39 minutes 29 seconds 535 msec
