
                                 *****************
                                 * O   R   C   A *
                                 *****************

           --- An Ab Initio, DFT and Semiempirical electronic structure package ---

                  #######################################################
                  #                        -***-                        #
                  #          Department of theory and spectroscopy      #
                  #               Directorship: Frank Neese             #
                  #        Max Planck Institute fuer Kohlenforschung    #
                  #                Kaiser Wilhelm Platz 1               #
                  #                 D-45470 Muelheim/Ruhr               #
                  #                      Germany                        #
                  #                                                     #
                  #                  All rights reserved                #
                  #                        -***-                        #
                  #######################################################


                         Program Version 4.2.0 -  RELEASE  -


 With contributions from (in alphabetic order):
   Daniel Aravena         : Magnetic Suceptibility
   Michael Atanasov       : Ab Initio Ligand Field Theory (pilot matlab implementation)
   Alexander A. Auer      : GIAO ZORA, VPT2
   Ute Becker             : Parallelization
   Giovanni Bistoni       : ED, misc. LED, open-shell LED, HFLED
   Martin Brehm           : Molecular dynamics
   Dmytro Bykov           : SCF Hessian
   Vijay G. Chilkuri      : MRCI spin determinant printing, contributions to CSF-ICE
   Dipayan Datta          : RHF DLPNO-CCSD density
   Achintya Kumar Dutta   : EOM-CC, STEOM-CC
   Dmitry Ganyushin       : Spin-Orbit,Spin-Spin,Magnetic field MRCI
   Miquel Garcia          : C-PCM Hessian, Gaussian charge scheme
   Yang Guo               : DLPNO-NEVPT2, CIM, IAO-localization
   Andreas Hansen         : Spin unrestricted coupled pair/coupled cluster methods
   Benjamin Helmich-Paris : CASSCF linear response (MC-RPA)
   Lee Huntington         : MR-EOM, pCC
   Robert Izsak           : Overlap fitted RIJCOSX, COSX-SCS-MP3, EOM
   Christian Kollmar      : KDIIS, OOCD, Brueckner-CCSD(T), CCSD density
   Simone Kossmann        : Meta GGA functionals, TD-DFT gradient, OOMP2, MP2 Hessian
   Martin Krupicka        : AUTO-CI
   Lucas Lang             : DCDCAS
   Dagmar Lenk            : GEPOL surface, SMD
   Dimitrios Liakos       : Extrapolation schemes; Compound Job, initial MDCI parallelization
   Dimitrios Manganas     : Further ROCIS development; embedding schemes
   Dimitrios Pantazis     : SARC Basis sets
   Taras Petrenko         : DFT Hessian,TD-DFT gradient, ASA, ECA, R-Raman, ABS, FL, XAS/XES, NRVS
   Peter Pinski           : DLPNO-MP2, DLPNO-MP2 Gradient
   Christoph Reimann      : Effective Core Potentials
   Marius Retegan         : Local ZFS, SOC
   Christoph Riplinger    : Optimizer, TS searches, QM/MM, DLPNO-CCSD(T), (RO)-DLPNO pert. Triples
   Tobias Risthaus        : Range-separated hybrids, TD-DFT gradient, RPA, STAB
   Michael Roemelt        : Original ROCIS implementation
   Masaaki Saitow         : Open-shell DLPNO-CCSD energy and density
   Barbara Sandhoefer     : DKH picture change effects
   Avijit Sen             : IP-ROCIS
   Kantharuban Sivalingam : CASSCF convergence, NEVPT2, FIC-MRCI
   Bernardo de Souza      : ESD, SOC TD-DFT
   Georgi Stoychev        : AutoAux, RI-MP2 NMR
   Willem Van den Heuvel  : Paramagnetic NMR
   Boris Wezisla          : Elementary symmetry handling
   Frank Wennmohs         : Technical directorship


 We gratefully acknowledge several colleagues who have allowed us to
 interface, adapt or use parts of their codes:
   Stefan Grimme, W. Hujo, H. Kruse,             : VdW corrections, initial TS optimization,
                  C. Bannwarth                     DFT functionals, gCP, sTDA/sTD-DF
   Ed Valeev, F. Pavosevic, A. Kumar             : LibInt (2-el integral package), F12 methods
   Garnet Chan, S. Sharma, J. Yang, R. Olivares  : DMRG
   Ulf Ekstrom                                   : XCFun DFT Library
   Mihaly Kallay                                 : mrcc  (arbitrary order and MRCC methods)
   Andreas Klamt, Michael Diedenhofen            : otool_cosmo (COSMO solvation model)
   Jiri Pittner, Ondrej Demel                    : Mk-CCSD
   Frank Weinhold                                : gennbo (NPA and NBO analysis)
   Christopher J. Cramer and Donald G. Truhlar   : smd solvation model
   Lars Goerigk                                  : TD-DFT with DH, B97 family of functionals
   V. Asgeirsson, H. Jonsson                     : NEB implementation
   FAccTs GmbH                                   : IRC, NEB, NEB-TS, Multilevel, MM, QM/MM, CI optimization
   S Lehtola, MJT Oliveira, MAL Marques          : LibXC Library


 Your calculation uses the libint2 library for the computation of 2-el integrals
 For citations please refer to: http://libint.valeyev.net

 Your ORCA version has been built with support for libXC version: 4.2.3
 For citations please refer to: https://tddft.org/programs/libxc/

 This ORCA versions uses:
   CBLAS   interface :  Fast vector & matrix operations
   LAPACKE interface :  Fast linear algebra routines
   SCALAPACK package :  Parallel linear algebra routines




***************************************
The coordinates will be read from file: 74.xyz
***************************************


Your calculation utilizes the atom-pairwise dispersion correction
with the Becke-Johnson damping scheme (D3BJ)
Cite in your paper:
S.Grimme, S.Ehrlich, L.Goerigk, J Comput Chem, (2011), 32, 1456–1465 
S.Grimme, J.Antony, S.Ehrlich and H.Krieg, J.Chem.Phys., 132, (2010), 154104 
   

----- Orbital basis set information -----
Your calculation utilizes the basis: def2-TZVP
   F. Weigend and R. Ahlrichs, Phys. Chem. Chem. Phys. 7, 3297 (2005).

----- AuxJ basis set information -----
Your calculation utilizes the auxiliary basis: def2/J
   F. Weigend, Phys. Chem. Chem. Phys. 8, 1057 (2006).

================================================================================
                                        WARNINGS
                       Please study these warnings very carefully!
================================================================================


WARNING: Geometry Optimization
  ===> : Switching off AutoStart
         For restart on a previous wavefunction, please use MOREAD

INFO   : the flag for use of LIBINT has been found!

================================================================================
                                       INPUT FILE
================================================================================
NAME = 74.inp
|  1> !RI BP86 def2-tzvp def2/J D3BJ TIGHTSCF TightOpt Grid5 FinalGrid6 freq
|  2> %maxcore 4000
|  3> %pal nprocs 24
|  4> end
|  5> * xyzfile 0 1 74.xyz 
|  6> 
|  7>                          ****END OF INPUT****
================================================================================

                       *****************************
                       * Geometry Optimization Run *
                       *****************************

Geometry optimization settings:
Update method            Update   .... BFGS
Choice of coordinates    CoordSys .... Z-matrix Internals
Initial Hessian          InHess   .... Almoef's Model

Convergence Tolerances:
Energy Change            TolE     ....  1.0000e-06 Eh
Max. Gradient            TolMAXG  ....  1.0000e-04 Eh/bohr
RMS Gradient             TolRMSG  ....  3.0000e-05 Eh/bohr
Max. Displacement        TolMAXD  ....  1.0000e-03 bohr
RMS Displacement         TolRMSD  ....  6.0000e-04 bohr
Strict Convergence                ....  False
------------------------------------------------------------------------------
                        ORCA OPTIMIZATION COORDINATE SETUP
------------------------------------------------------------------------------

The optimization will be done in new redundant internal coordinates
Making redundant internal coordinates   ...  (new redundants) done
Evaluating the initial hessian          ...  (Almloef) done
Evaluating the coordinates              ...  done
Calculating the B-matrix                .... done
Calculating the G-matrix                .... done
Diagonalizing the G-matrix              .... done
Small eigenvalue found = 1.904e-04
Small eigenvalue found = 1.003e-03
Small eigenvalue found = 1.981e-03
Small eigenvalue found = 2.295e-03
Small eigenvalue found = 3.803e-03
Small eigenvalue found = 4.327e-03
Small eigenvalue found = 7.039e-03
Small eigenvalue found = 7.801e-03
Small eigenvalue found = 8.300e-03
Small eigenvalue found = 9.932e-03
Small eigenvalue found = 1.245e-02
Small eigenvalue found = 1.320e-02
Small eigenvalue found = 1.494e-02
Small eigenvalue found = 1.585e-02
Small eigenvalue found = 1.694e-02
Small eigenvalue found = 1.957e-02
Small eigenvalue found = 2.250e-02
Small eigenvalue found = 2.533e-02
Small eigenvalue found = 2.621e-02
Small eigenvalue found = 2.972e-02
The first mode is                       ....  325
The number of degrees of freedom        ....  339

    -----------------------------------------------------------------
                    Redundant Internal Coordinates


    -----------------------------------------------------------------
         Definition                    Initial Value    Approx d2E/dq
    -----------------------------------------------------------------
      1. B(C   1,O   0)                  1.2463         0.948620   
      2. B(C   2,C   1)                  1.5356         0.365932   
      3. B(C   3,C   2)                  1.5489         0.348543   
      4. B(C   4,C   3)                  1.5346         0.367327   
      5. B(C   5,C   4)                  1.5329         0.369655   
      6. B(N   6,C   5)                  1.4740         0.411082   
      7. B(N   6,C   2)                  1.4533         0.443552   
      8. B(C   7,N   6)                  1.3673         0.608344   
      9. B(O   8,C   7)                  1.2324         0.998513   
     10. B(N   9,C   1)                  1.3527         0.641868   
     11. B(C  10,N   9)                  1.4832         0.397374   
     12. B(C  11,C  10)                  1.5418         0.357736   
     13. B(N  12,C  11)                  1.3494         0.649663   
     14. B(C  13,N  12)                  1.4605         0.431855   
     15. B(C  14,C  13)                  1.5309         0.372375   
     16. B(N  15,C  14)                  1.3678         0.607046   
     17. B(C  16,N  15)                  1.4545         0.441513   
     18. B(C  17,C  16)                  1.5368         0.364310   
     19. B(C  18,C  17)                  1.5329         0.369662   
     20. B(C  19,C  18)                  1.5291         0.374800   
     21. B(N  20,C  19)                  1.3597         0.625518   
     22. B(C  21,N  20)                  1.4655         0.424121   
     23. B(C  22,C  21)                  1.5432         0.355935   
     24. B(N  23,C  22)                  1.3607         0.623302   
     25. B(C  24,N  23)                  1.4514         0.446588   
     26. B(C  24,C   7)                  1.5265         0.378435   
     27. B(C  25,C  24)                  1.5400         0.360039   
     28. B(O  26,C  22)                  1.2330         0.996167   
     29. B(C  27,C  21)                  1.5225         0.383998   
     30. B(C  28,C  27)                  1.5373         0.363720   
     31. B(C  29,C  28)                  1.5325         0.370192   
     32. B(C  30,C  28)                  1.5329         0.369591   
     33. B(O  31,C  19)                  1.2355         0.987094   
     34. B(C  32,C  18)                  1.5472         0.350696   
     35. B(C  33,C  32)                  1.5047         0.410020   
     36. B(C  34,C  33)                  1.5245         0.381157   
     37. B(C  35,C  34)                  1.5300         0.373621   
     38. B(C  36,C  35)                  1.5299         0.373732   
     39. B(C  37,C  36)                  1.5302         0.373312   
     40. B(C  38,C  37)                  1.5303         0.373180   
     41. B(C  39,C  38)                  1.5302         0.373318   
     42. B(C  40,C  39)                  1.5310         0.372228   
     43. B(C  41,C  40)                  1.5299         0.373666   
     44. B(O  42,C  32)                  1.2217         1.038516   
     45. B(O  43,C  17)                  1.4341         0.475891   
     46. B(O  44,C  14)                  1.2311         1.003157   
     47. B(C  45,C  13)                  1.5420         0.357415   
     48. B(C  46,C  45)                  1.5278         0.376604   
     49. B(O  47,C  11)                  1.2339         0.992904   
     50. B(C  48,C  10)                  1.5600         0.334632   
     51. B(C  49,C  48)                  1.5318         0.371168   
     52. B(C  50,C  48)                  1.5321         0.370712   
     53. B(H  51,C   2)                  1.1010         0.345807   
     54. B(H  52,C   3)                  1.0997         0.347478   
     55. B(H  53,C   3)                  1.0976         0.350153   
     56. B(H  54,C   4)                  1.0984         0.349195   
     57. B(H  55,C   4)                  1.0970         0.351009   
     58. B(H  56,C   5)                  1.0977         0.350080   
     59. B(H  57,C   5)                  1.1027         0.343661   
     60. B(H  58,N   9)                  1.0169         0.421836   
     61. B(H  59,C  10)                  1.0983         0.349317   
     62. B(H  60,N  12)                  1.0315         0.399774   
     63. B(H  61,C  13)                  1.0983         0.349279   
     64. B(H  62,H  54)                  4.5207         0.000000   
     65. B(H  62,N  15)                  1.0153         0.424354   
     66. B(H  63,C  16)                  1.0985         0.348982   
     67. B(H  64,C  16)                  1.0981         0.349569   
     68. B(H  65,C  17)                  1.1025         0.343910   
     69. B(H  66,C  18)                  1.1003         0.346747   
     70. B(H  67,N  20)                  1.0163         0.422821   
     71. B(H  68,C  21)                  1.0986         0.348902   
     72. B(H  69,N  23)                  1.0248         0.409832   
     73. B(H  70,C  24)                  1.0996         0.347588   
     74. B(H  71,C  25)                  1.0967         0.351370   
     75. B(H  72,C  25)                  1.1001         0.346994   
     76. B(H  73,C  25)                  1.0979         0.349751   
     77. B(H  74,C  27)                  1.1026         0.343785   
     78. B(H  75,C  27)                  1.1017         0.344891   
     79. B(H  76,C  28)                  1.1040         0.341996   
     80. B(H  77,C  29)                  1.1001         0.347028   
     81. B(H  78,C  29)                  1.1017         0.344951   
     82. B(H  79,C  29)                  1.0996         0.347672   
     83. B(H  80,C  30)                  1.0991         0.348304   
     84. B(H  81,C  30)                  1.0995         0.347770   
     85. B(H  82,C  30)                  1.1021         0.344440   
     86. B(H  83,C  33)                  1.1076         0.337542   
     87. B(H  84,C  33)                  1.1046         0.341233   
     88. B(H  85,H  80)                  4.5308         0.000000   
     89. B(H  85,C  34)                  1.1022         0.344320   
     90. B(H  86,C  34)                  1.1014         0.345270   
     91. B(H  87,C  35)                  1.1035         0.342699   
     92. B(H  88,C  35)                  1.1044         0.341483   
     93. B(H  89,C  36)                  1.1045         0.341382   
     94. B(H  90,C  36)                  1.1043         0.341611   
     95. B(H  91,C  37)                  1.1042         0.341761   
     96. B(H  92,C  37)                  1.1044         0.341524   
     97. B(H  93,C  38)                  1.1045         0.341399   
     98. B(H  94,C  38)                  1.1045         0.341465   
     99. B(H  95,C  39)                  1.1046         0.341338   
    100. B(H  96,C  39)                  1.1046         0.341286   
    101. B(H  97,C  40)                  1.1035         0.342706   
    102. B(H  98,C  40)                  1.1035         0.342723   
    103. B(H  99,C  41)                  1.0996         0.347639   
    104. B(H 100,C  41)                  1.1008         0.346095   
    105. B(H 101,C  41)                  1.1008         0.346110   
    106. B(H 102,O   0)                  1.9446         0.013965   
    107. B(H 102,O  43)                  0.9828         0.478213   
    108. B(H 103,C  45)                  1.1029         0.343420   
    109. B(H 104,C  45)                  1.1000         0.347116   
    110. B(H 105,C  46)                  1.0985         0.349042   
    111. B(H 106,H  83)                  4.9613         0.000000   
    112. B(H 106,C  46)                  1.0994         0.347878   
    113. B(H 107,C  46)                  1.0993         0.347942   
    114. B(H 108,C  48)                  1.1054         0.340282   
    115. B(H 109,C  49)                  1.0991         0.348316   
    116. B(H 110,C  49)                  1.0994         0.347910   
    117. B(H 111,C  49)                  1.0976         0.350197   
    118. B(H 112,C  50)                  1.0978         0.349867   
    119. B(H 113,C  50)                  1.0992         0.348096   
    120. B(H 114,C  50)                  1.0991         0.348239   
    121. A(O   0,C   1,N   9)          125.7604         0.465649   
    122. A(C   2,C   1,N   9)          112.8107         0.395120   
    123. A(O   0,C   1,C   2)          121.1971         0.423418   
    124. A(C   1,C   2,H  51)          108.8625         0.321083   
    125. A(N   6,C   2,H  51)          109.1970         0.329417   
    126. A(C   1,C   2,N   6)          114.1708         0.370556   
    127. A(C   1,C   2,C   3)          109.0041         0.357818   
    128. A(C   3,C   2,H  51)          112.7157         0.318540   
    129. A(C   3,C   2,N   6)          102.8809         0.367470   
    130. A(C   4,C   3,H  53)          113.4269         0.321941   
    131. A(C   4,C   3,H  52)          110.8403         0.321537   
    132. A(C   2,C   3,C   4)          103.0518         0.358049   
    133. A(C   2,C   3,H  53)          112.6172         0.319189   
    134. A(C   2,C   3,H  52)          108.8242         0.318790   
    135. A(H  52,C   3,H  53)          107.9898         0.287951   
    136. A(H  54,C   4,H  55)          108.3477         0.288283   
    137. A(C   3,C   4,H  55)          112.9551         0.322069   
    138. A(C   3,C   4,C   5)          103.3604         0.361655   
    139. A(C   3,C   4,H  54)          109.9926         0.321796   
    140. A(C   5,C   4,H  55)          112.3136         0.322403   
    141. A(C   5,C   4,H  54)          109.7964         0.322129   
    142. A(H  56,C   5,H  57)          108.4974         0.287444   
    143. A(C   4,C   5,N   6)          103.1801         0.366387   
    144. A(C   4,C   5,H  56)          112.4603         0.322263   
    145. A(N   6,C   5,H  57)          110.8142         0.324982   
    146. A(N   6,C   5,H  56)          110.5724         0.325973   
    147. A(C   4,C   5,H  57)          111.2755         0.321288   
    148. A(C   5,N   6,C   7)          127.1819         0.396941   
    149. A(C   2,N   6,C   7)          119.1960         0.402285   
    150. A(C   2,N   6,C   5)          113.1783         0.375690   
    151. A(O   8,C   7,C  24)          122.2626         0.429902   
    152. A(N   6,C   7,O   8)          121.3936         0.465446   
    153. A(N   6,C   7,C  24)          116.1067         0.393734   
    154. A(C   1,N   9,C  10)          133.4196         0.398319   
    155. A(C  10,N   9,H  58)          111.8188         0.331439   
    156. A(C   1,N   9,H  58)          112.9120         0.359232   
    157. A(C  48,C  10,H  59)          107.1009         0.316954   
    158. A(C  11,C  10,H  59)          102.9718         0.320425   
    159. A(N   9,C  10,C  11)          119.4147         0.362232   
    160. A(N   9,C  10,C  48)          110.4156         0.358134   
    161. A(N   9,C  10,H  59)          104.1195         0.324045   
    162. A(C  11,C  10,C  48)          111.5567         0.353989   
    163. A(N  12,C  11,O  47)          124.2888         0.470600   
    164. A(C  10,C  11,O  47)          118.0275         0.425161   
    165. A(C  10,C  11,N  12)          117.5581         0.394388   
    166. A(C  13,N  12,H  60)          120.9726         0.333063   
    167. A(C  11,N  12,C  13)          121.4868         0.405062   
    168. A(C  11,N  12,H  60)          117.5381         0.356696   
    169. A(C  14,C  13,C  45)          112.2139         0.360422   
    170. A(N  12,C  13,H  61)          108.2489         0.328508   
    171. A(C  14,C  13,H  61)          106.3243         0.322529   
    172. A(N  12,C  13,C  14)          109.3157         0.369966   
    173. A(C  45,C  13,H  61)          108.9000         0.320372   
    174. A(N  12,C  13,C  45)          111.6243         0.367370   
    175. A(C  13,C  14,N  15)          115.4261         0.392476   
    176. A(N  15,C  14,O  44)          122.6018         0.465660   
    177. A(C  13,C  14,O  44)          121.9603         0.429016   
    178. A(C  14,N  15,H  62)          119.4877         0.356201   
    179. A(C  16,N  15,H  62)          118.3127         0.337623   
    180. A(C  14,N  15,C  16)          120.5636         0.401807   
    181. A(H  63,C  16,H  64)          108.6042         0.288070   
    182. A(C  17,C  16,H  64)          110.9150         0.321418   
    183. A(N  15,C  16,H  63)          109.2220         0.329663   
    184. A(C  17,C  16,H  63)          109.2677         0.321330   
    185. A(N  15,C  16,C  17)          111.5360         0.369980   
    186. A(N  15,C  16,H  64)          107.2257         0.329755   
    187. A(O  43,C  17,H  65)          110.1208         0.332973   
    188. A(C  18,C  17,H  65)          108.1328         0.321327   
    189. A(C  16,C  17,H  65)          109.2591         0.320561   
    190. A(C  16,C  17,C  18)          111.3237         0.361147   
    191. A(C  18,C  17,O  43)          107.0267         0.375734   
    192. A(C  16,C  17,O  43)          110.9207         0.374789   
    193. A(C  19,C  18,H  66)          110.1278         0.322488   
    194. A(C  17,C  18,H  66)          109.1965         0.321759   
    195. A(C  17,C  18,C  32)          114.4369         0.358811   
    196. A(C  17,C  18,C  19)          108.5885         0.362901   
    197. A(C  19,C  18,C  32)          108.4135         0.359656   
    198. A(C  32,C  18,H  66)          106.0283         0.319001   
    199. A(C  18,C  19,N  20)          115.0205         0.394991   
    200. A(N  20,C  19,O  31)          122.6505         0.466841   
    201. A(C  18,C  19,O  31)          122.3027         0.428274   
    202. A(C  19,N  20,H  67)          118.4106         0.357800   
    203. A(C  19,N  20,C  21)          121.3091         0.401085   
    204. A(C  21,N  20,H  67)          117.5419         0.335170   
    205. A(C  27,C  21,H  68)          111.2257         0.324102   
    206. A(C  22,C  21,H  68)          109.0253         0.320098   
    207. A(N  20,C  21,H  68)          105.8474         0.327472   
    208. A(N  20,C  21,C  22)          105.9580         0.365974   
    209. A(C  22,C  21,C  27)          112.8341         0.362060   
    210. A(N  20,C  21,C  27)          111.5806         0.370772   
    211. A(C  21,C  22,N  23)          113.4444         0.391193   
    212. A(C  21,C  22,O  26)          122.8833         0.425027   
    213. A(N  23,C  22,O  26)          123.4656         0.467320   
    214. A(C  22,N  23,C  24)          119.5790         0.404499   
    215. A(C  24,N  23,H  69)          117.6130         0.336310   
    216. A(C  22,N  23,H  69)          119.4298         0.355694   
    217. A(C  25,C  24,H  70)          108.4710         0.320501   
    218. A(N  23,C  24,H  70)          107.3089         0.330068   
    219. A(C   7,C  24,H  70)          111.4060         0.323127   
    220. A(N  23,C  24,C  25)          112.1726         0.369956   
    221. A(C   7,C  24,N  23)          109.0197         0.373143   
    222. A(C   7,C  24,C  25)          108.4910         0.361866   
    223. A(H  71,C  25,H  73)          109.4955         0.288401   
    224. A(C  24,C  25,H  73)          109.8648         0.320826   
    225. A(H  71,C  25,H  72)          108.6049         0.288044   
    226. A(C  24,C  25,H  72)          111.0884         0.320411   
    227. A(C  24,C  25,H  71)          108.9294         0.321069   
    228. A(H  72,C  25,H  73)          108.8320         0.287836   
    229. A(C  28,C  27,H  75)          110.3915         0.320626   
    230. A(C  21,C  27,C  28)          114.5314         0.363400   
    231. A(H  74,C  27,H  75)          105.5792         0.286791   
    232. A(C  21,C  27,H  75)          108.7005         0.323488   
    233. A(C  28,C  27,H  74)          109.5713         0.320457   
    234. A(C  21,C  27,H  74)          107.6526         0.323317   
    235. A(C  29,C  28,C  30)          111.0247         0.362124   
    236. A(C  27,C  28,C  30)          112.2615         0.361035   
    237. A(C  27,C  28,C  29)          109.8186         0.361136   
    238. A(C  30,C  28,H  76)          107.6279         0.321024   
    239. A(C  29,C  28,H  76)          107.9465         0.321109   
    240. A(C  27,C  28,H  76)          107.9963         0.320184   
    241. A(C  28,C  29,H  79)          111.1594         0.321976   
    242. A(H  78,C  29,H  79)          107.7134         0.287303   
    243. A(H  77,C  29,H  79)          107.9697         0.287572   
    244. A(H  77,C  29,H  78)          107.6733         0.287220   
    245. A(C  28,C  29,H  78)          110.7639         0.321562   
    246. A(C  28,C  29,H  77)          111.4002         0.321878   
    247. A(H  81,C  30,H  82)          107.6810         0.287249   
    248. A(H  80,C  30,H  82)          107.9508         0.287318   
    249. A(C  28,C  30,H  82)          110.7663         0.321398   
    250. A(H  80,C  30,H  81)          107.4023         0.287750   
    251. A(C  28,C  30,H  81)          110.7649         0.321905   
    252. A(C  28,C  30,H  80)          112.0939         0.321985   
    253. A(C  33,C  32,O  42)          123.9214         0.439244   
    254. A(C  18,C  32,O  42)          119.0302         0.427072   
    255. A(C  18,C  32,C  33)          117.0348         0.365214   
    256. A(C  32,C  33,C  34)          114.4581         0.370470   
    257. A(C  34,C  33,H  84)          112.3098         0.322529   
    258. A(H  83,C  33,H  84)          104.0143         0.285497   
    259. A(C  32,C  33,H  84)          107.4844         0.326420   
    260. A(C  34,C  33,H  83)          110.2745         0.321955   
    261. A(C  32,C  33,H  83)          107.6772         0.325836   
    262. A(C  33,C  34,C  35)          112.1364         0.364610   
    263. A(H  85,C  34,H  86)          105.7036         0.286910   
    264. A(C  35,C  34,H  86)          109.8911         0.322096   
    265. A(C  33,C  34,H  86)          109.2294         0.323152   
    266. A(C  35,C  34,H  85)          110.0676         0.321951   
    267. A(C  33,C  34,H  85)          109.6070         0.323006   
    268. A(C  34,C  35,C  36)          113.1530         0.363385   
    269. A(H  87,C  35,H  88)          105.9228         0.286206   
    270. A(C  36,C  35,H  88)          109.3100         0.321531   
    271. A(C  34,C  35,H  88)          109.4310         0.321515   
    272. A(C  36,C  35,H  87)          109.5098         0.321718   
    273. A(C  34,C  35,H  87)          109.2591         0.321702   
    274. A(C  35,C  36,C  37)          113.5193         0.363334   
    275. A(H  89,C  36,H  90)          105.8809         0.286051   
    276. A(C  37,C  36,H  90)          109.2936         0.321491   
    277. A(C  35,C  36,H  90)          109.2199         0.321550   
    278. A(C  37,C  36,H  89)          109.2968         0.321456   
    279. A(C  35,C  36,H  89)          109.3476         0.321515   
    280. A(C  36,C  37,C  38)          113.5119         0.363242   
    281. A(H  91,C  37,H  92)          105.8787         0.286089   
    282. A(C  38,C  37,H  92)          109.2898         0.321459   
    283. A(C  36,C  37,H  92)          109.2826         0.321478   
    284. A(C  38,C  37,H  91)          109.3199         0.321496   
    285. A(C  36,C  37,H  91)          109.2756         0.321514   
    286. A(C  37,C  38,C  39)          113.6050         0.363243   
    287. A(H  93,C  38,H  94)          105.8712         0.286034   
    288. A(C  39,C  38,H  94)          109.2744         0.321469   
    289. A(C  37,C  38,H  94)          109.2587         0.321450   
    290. A(C  39,C  38,H  93)          109.2740         0.321459   
    291. A(C  37,C  38,H  93)          109.2682         0.321440   
    292. A(C  38,C  39,C  40)          113.6083         0.363085   
    293. A(H  95,C  39,H  96)          105.8456         0.286002   
    294. A(C  40,C  39,H  96)          109.2351         0.321288   
    295. A(C  38,C  39,H  96)          109.3090         0.321442   
    296. A(C  40,C  39,H  95)          109.2361         0.321296   
    297. A(C  38,C  39,H  95)          109.3152         0.321450   
    298. A(C  39,C  40,C  41)          113.1639         0.363142   
    299. A(H  97,C  40,H  98)          105.9253         0.286368   
    300. A(C  41,C  40,H  98)          109.6273         0.321712   
    301. A(C  39,C  40,H  98)          109.1180         0.321509   
    302. A(C  41,C  40,H  97)          109.6278         0.321709   
    303. A(C  39,C  40,H  97)          109.1207         0.321507   
    304. A(H 100,C  41,H 101)          107.4210         0.287249   
    305. A(H  99,C  41,H 101)          107.6928         0.287449   
    306. A(C  40,C  41,H 101)          111.0790         0.322231   
    307. A(H  99,C  41,H 100)          107.6924         0.287447   
    308. A(C  40,C  41,H 100)          111.0775         0.322228   
    309. A(C  40,C  41,H  99)          111.6850         0.322463   
    310. A(C  17,O  43,H 102)          109.0668         0.348811   
    311. A(C  13,C  45,C  46)          112.7911         0.361116   
    312. A(C  46,C  45,H 104)          110.4827         0.322798   
    313. A(C  13,C  45,H 104)          106.9151         0.320047   
    314. A(C  46,C  45,H 103)          110.4114         0.322232   
    315. A(C  13,C  45,H 103)          108.9355         0.319488   
    316. A(H 103,C  45,H 104)          107.0853         0.287031   
    317. A(H 106,C  46,H 107)          107.4738         0.287717   
    318. A(H 105,C  46,H 107)          107.9658         0.287868   
    319. A(C  45,C  46,H 107)          110.9110         0.322924   
    320. A(H 105,C  46,H 106)          107.9292         0.287859   
    321. A(C  45,C  46,H 106)          111.6088         0.322914   
    322. A(C  45,C  46,H 105)          110.7941         0.323091   
    323. A(C  50,C  48,H 108)          108.1017         0.320919   
    324. A(C  49,C  48,H 108)          107.7957         0.320983   
    325. A(C  10,C  48,H 108)          104.6431         0.315606   
    326. A(C  49,C  48,C  50)          111.2345         0.362474   
    327. A(C  10,C  48,C  50)          113.2049         0.356134   
    328. A(C  10,C  48,C  49)          111.4499         0.356209   
    329. A(H 110,C  49,H 111)          108.5543         0.288012   
    330. A(H 109,C  49,H 111)          107.3219         0.288065   
    331. A(C  48,C  49,H 111)          111.2514         0.322496   
    332. A(H 109,C  49,H 110)          108.2340         0.287770   
    333. A(C  48,C  49,H 110)          109.8085         0.322150   
    334. A(C  48,C  49,H 109)          111.5573         0.322212   
    335. A(H 113,C  50,H 114)          107.7561         0.287784   
    336. A(H 112,C  50,H 114)          107.9935         0.288012   
    337. A(C  48,C  50,H 114)          109.9283         0.322135   
    338. A(H 112,C  50,H 113)          107.6398         0.287994   
    339. A(C  48,C  50,H 113)          110.7861         0.322114   
    340. A(C  48,C  50,H 112)          112.5685         0.322382   
    341. D(H  51,C   2,C   1,N   9)     33.0487         0.010044   
    342. D(C   3,C   2,C   1,N   9)    -90.2677         0.010044   
    343. D(N   6,C   2,C   1,N   9)    155.3385         0.010044   
    344. D(N   6,C   2,C   1,O   0)    -29.8871         0.010044   
    345. D(C   3,C   2,C   1,O   0)     84.5066         0.010044   
    346. D(H  51,C   2,C   1,O   0)   -152.1769         0.010044   
    347. D(C   4,C   3,C   2,N   6)     31.4095         0.009794   
    348. D(H  53,C   3,C   2,H  51)    -88.5175         0.009794   
    349. D(H  53,C   3,C   2,C   1)     32.4711         0.009794   
    350. D(C   4,C   3,C   2,H  51)    148.8871         0.009794   
    351. D(H  53,C   3,C   2,N   6)    154.0049         0.009794   
    352. D(H  52,C   3,C   2,H  51)     31.1857         0.009794   
    353. D(C   4,C   3,C   2,C   1)    -90.1243         0.009794   
    354. D(H  52,C   3,C   2,C   1)    152.1744         0.009794   
    355. D(H  52,C   3,C   2,N   6)    -86.2919         0.009794   
    356. D(H  55,C   4,C   3,H  53)     78.2166         0.010796   
    357. D(H  55,C   4,C   3,H  52)    -43.4583         0.010796   
    358. D(H  54,C   4,C   3,H  52)   -164.6480         0.010796   
    359. D(H  55,C   4,C   3,C   2)   -159.7318         0.010796   
    360. D(H  54,C   4,C   3,H  53)    -42.9732         0.010796   
    361. D(C   5,C   4,C   3,C   2)    -38.1045         0.010796   
    362. D(H  54,C   4,C   3,C   2)     79.0785         0.010796   
    363. D(C   5,C   4,C   3,H  53)   -160.1561         0.010796   
    364. D(C   5,C   4,C   3,H  52)     78.1690         0.010796   
    365. D(N   6,C   5,C   4,C   3)     29.8085         0.010925   
    366. D(H  57,C   5,C   4,C   3)    -89.0621         0.010925   
    367. D(H  56,C   5,C   4,H  55)    -88.9682         0.010925   
    368. D(H  56,C   5,C   4,C   3)    148.9738         0.010925   
    369. D(H  57,C   5,C   4,H  54)    153.6172         0.010925   
    370. D(H  56,C   5,C   4,H  54)     31.6531         0.010925   
    371. D(H  57,C   5,C   4,H  55)     32.9959         0.010925   
    372. D(N   6,C   5,C   4,H  54)    -87.5123         0.010925   
    373. D(N   6,C   5,C   4,H  55)    151.8665         0.010925   
    374. D(C   5,N   6,C   2,C   3)    -13.2938         0.016778   
    375. D(C   7,N   6,C   5,H  57)    -63.3690         0.014415   
    376. D(C   7,N   6,C   5,H  56)     56.9763         0.014415   
    377. D(C   7,N   6,C   5,C   4)    177.4406         0.014415   
    378. D(C   2,N   6,C   5,H  57)    108.8483         0.014415   
    379. D(C   2,N   6,C   5,H  56)   -130.8063         0.014415   
    380. D(C   7,N   6,C   2,H  51)     39.6683         0.016778   
    381. D(C   2,N   6,C   5,C   4)    -10.3420         0.014415   
    382. D(C   7,N   6,C   2,C   3)    159.6069         0.016778   
    383. D(C   5,N   6,C   2,C   1)    104.6610         0.016778   
    384. D(C   7,N   6,C   2,C   1)    -82.4383         0.016778   
    385. D(C   5,N   6,C   2,H  51)   -133.2324         0.016778   
    386. D(C  24,C   7,N   6,C   5)      9.6400         0.029881   
    387. D(C  24,C   7,N   6,C   2)   -162.1616         0.029881   
    388. D(O   8,C   7,N   6,C   5)   -175.8339         0.029881   
    389. D(O   8,C   7,N   6,C   2)     12.3646         0.029881   
    390. D(H  58,N   9,C   1,O   0)    175.4275         0.033550   
    391. D(C  10,N   9,C   1,C   2)    152.7620         0.033550   
    392. D(H  58,N   9,C   1,C   2)    -10.0819         0.033550   
    393. D(C  10,N   9,C   1,O   0)    -21.7286         0.033550   
    394. D(H  59,C  10,N   9,C   1)    170.6103         0.013486   
    395. D(C  48,C  10,N   9,H  58)     88.2481         0.013486   
    396. D(C  48,C  10,N   9,C   1)    -74.7341         0.013486   
    397. D(C  11,C  10,N   9,C   1)     56.5597         0.013486   
    398. D(H  59,C  10,N   9,H  58)    -26.4076         0.013486   
    399. D(C  11,C  10,N   9,H  58)   -140.4582         0.013486   
    400. D(O  47,C  11,C  10,N   9)    147.9747         0.009633   
    401. D(N  12,C  11,C  10,H  59)   -150.5843         0.009633   
    402. D(N  12,C  11,C  10,C  48)     94.8680         0.009633   
    403. D(N  12,C  11,C  10,N   9)    -35.9229         0.009633   
    404. D(O  47,C  11,C  10,H  59)     33.3133         0.009633   
    405. D(O  47,C  11,C  10,C  48)    -81.2343         0.009633   
    406. D(H  60,N  12,C  11,O  47)   -178.7227         0.034441   
    407. D(H  60,N  12,C  11,C  10)      5.4420         0.034441   
    408. D(C  13,N  12,C  11,O  47)      0.7149         0.034441   
    409. D(C  13,N  12,C  11,C  10)   -175.1204         0.034441   
    410. D(H  61,C  13,N  12,C  11)    -39.5548         0.015901   
    411. D(H  61,C  13,N  12,H  60)    139.8636         0.015901   
    412. D(C  45,C  13,N  12,H  60)   -100.2948         0.015901   
    413. D(C  45,C  13,N  12,C  11)     80.2868         0.015901   
    414. D(C  14,C  13,N  12,C  11)   -154.9706         0.015901   
    415. D(C  14,C  13,N  12,H  60)     24.4478         0.015901   
    416. D(O  44,C  14,C  13,C  45)   -108.9966         0.010374   
    417. D(O  44,C  14,C  13,N  12)    126.6051         0.010374   
    418. D(N  15,C  14,C  13,H  61)   -171.2560         0.010374   
    419. D(N  15,C  14,C  13,C  45)     69.7847         0.010374   
    420. D(O  44,C  14,C  13,H  61)      9.9628         0.010374   
    421. D(N  15,C  14,C  13,N  12)    -54.6137         0.010374   
    422. D(H  62,N  15,C  14,O  44)   -176.1449         0.029744   
    423. D(H  62,N  15,C  14,C  13)      5.0825         0.029744   
    424. D(C  16,N  15,C  14,O  44)    -10.9673         0.029744   
    425. D(C  16,N  15,C  14,C  13)    170.2601         0.029744   
    426. D(H  64,C  16,N  15,H  62)   -154.6087         0.016623   
    427. D(H  64,C  16,N  15,C  14)     40.0431         0.016623   
    428. D(H  63,C  16,N  15,H  62)    -37.1032         0.016623   
    429. D(H  63,C  16,N  15,C  14)    157.5486         0.016623   
    430. D(C  17,C  16,N  15,C  14)    -81.5681         0.016623   
    431. D(C  17,C  16,N  15,H  62)     83.7801         0.016623   
    432. D(H  65,C  17,C  16,H  64)    -74.1632         0.010631   
    433. D(H  65,C  17,C  16,H  63)    166.1415         0.010631   
    434. D(H  65,C  17,C  16,N  15)     45.2849         0.010631   
    435. D(O  43,C  17,C  16,H  64)    164.2576         0.010631   
    436. D(O  43,C  17,C  16,H  63)     44.5623         0.010631   
    437. D(O  43,C  17,C  16,N  15)    -76.2943         0.010631   
    438. D(C  18,C  17,C  16,H  64)     45.1963         0.010631   
    439. D(C  18,C  17,C  16,H  63)    -74.4991         0.010631   
    440. D(C  18,C  17,C  16,N  15)    164.6443         0.010631   
    441. D(H  66,C  18,C  17,H  65)   -175.0802         0.010925   
    442. D(H  66,C  18,C  17,O  43)    -56.4692         0.010925   
    443. D(H  66,C  18,C  17,C  16)     64.8920         0.010925   
    444. D(C  32,C  18,C  17,O  43)   -175.1118         0.010925   
    445. D(C  32,C  18,C  17,C  16)    -53.7506         0.010925   
    446. D(C  32,C  18,C  17,H  65)     66.2772         0.010925   
    447. D(C  19,C  18,C  17,H  65)    -54.9792         0.010925   
    448. D(C  19,C  18,C  17,O  43)     63.6318         0.010925   
    449. D(C  19,C  18,C  17,C  16)   -175.0070         0.010925   
    450. D(O  31,C  19,C  18,H  66)    165.5996         0.010501   
    451. D(O  31,C  19,C  18,C  32)    -78.8088         0.010501   
    452. D(O  31,C  19,C  18,C  17)     46.0794         0.010501   
    453. D(N  20,C  19,C  18,H  66)    -16.2200         0.010501   
    454. D(N  20,C  19,C  18,C  17)   -135.7402         0.010501   
    455. D(N  20,C  19,C  18,C  32)     99.3716         0.010501   
    456. D(H  67,N  20,C  19,O  31)   -170.9799         0.031728   
    457. D(H  67,N  20,C  19,C  18)     10.8468         0.031728   
    458. D(C  21,N  20,C  19,O  31)    -10.1876         0.031728   
    459. D(C  21,N  20,C  19,C  18)    171.6390         0.031728   
    460. D(H  68,C  21,N  20,H  67)   -166.4666         0.015337   
    461. D(H  68,C  21,N  20,C  19)     32.5811         0.015337   
    462. D(C  27,C  21,N  20,H  67)    -45.3356         0.015337   
    463. D(C  27,C  21,N  20,C  19)    153.7121         0.015337   
    464. D(C  22,C  21,N  20,H  67)     77.8360         0.015337   
    465. D(C  22,C  21,N  20,C  19)    -83.1163         0.015337   
    466. D(N  23,C  22,C  21,C  27)   -160.8719         0.009545   
    467. D(N  23,C  22,C  21,N  20)     76.7514         0.009545   
    468. D(O  26,C  22,C  21,H  68)    148.2970         0.009545   
    469. D(O  26,C  22,C  21,C  27)     24.1916         0.009545   
    470. D(O  26,C  22,C  21,N  20)    -98.1851         0.009545   
    471. D(N  23,C  22,C  21,H  68)    -36.7664         0.009545   
    472. D(H  69,N  23,C  22,O  26)    171.4536         0.031485   
    473. D(H  69,N  23,C  22,C  21)     -3.4491         0.031485   
    474. D(C  24,N  23,C  22,O  26)     12.6846         0.031485   
    475. D(C  24,N  23,C  22,C  21)   -162.2181         0.031485   
    476. D(H  70,C  24,N  23,H  69)   -127.0707         0.017011   
    477. D(H  70,C  24,N  23,C  22)     32.0782         0.017011   
    478. D(C  25,C  24,N  23,H  69)    113.8936         0.017011   
    479. D(C  25,C  24,N  23,C  22)    -86.9575         0.017011   
    480. D(C   7,C  24,N  23,H  69)     -6.2879         0.017011   
    481. D(C   7,C  24,N  23,C  22)    152.8610         0.017011   
    482. D(H  70,C  24,C   7,O   8)    156.4272         0.010692   
    483. D(H  70,C  24,C   7,N   6)    -29.0986         0.010692   
    484. D(C  25,C  24,C   7,O   8)    -84.2374         0.010692   
    485. D(C  25,C  24,C   7,N   6)     90.2368         0.010692   
    486. D(N  23,C  24,C   7,O   8)     38.1880         0.010692   
    487. D(N  23,C  24,C   7,N   6)   -147.3378         0.010692   
    488. D(H  73,C  25,C  24,H  70)   -179.4722         0.010400   
    489. D(H  73,C  25,C  24,N  23)    -61.1219         0.010400   
    490. D(H  73,C  25,C  24,C   7)     59.3663         0.010400   
    491. D(H  72,C  25,C  24,H  70)     60.0514         0.010400   
    492. D(H  72,C  25,C  24,N  23)    178.4017         0.010400   
    493. D(H  72,C  25,C  24,C   7)    -61.1100         0.010400   
    494. D(H  71,C  25,C  24,H  70)    -59.5355         0.010400   
    495. D(H  71,C  25,C  24,N  23)     58.8148         0.010400   
    496. D(H  71,C  25,C  24,C   7)    179.3030         0.010400   
    497. D(H  75,C  27,C  21,H  68)   -174.5831         0.011740   
    498. D(H  75,C  27,C  21,C  22)    -51.6962         0.011740   
    499. D(H  75,C  27,C  21,N  20)     67.4699         0.011740   
    500. D(H  74,C  27,C  21,H  68)    -60.6752         0.011740   
    501. D(H  74,C  27,C  21,C  22)     62.2118         0.011740   
    502. D(H  74,C  27,C  21,N  20)   -178.6222         0.011740   
    503. D(C  28,C  27,C  21,H  68)     61.4417         0.011740   
    504. D(C  28,C  27,C  21,C  22)   -175.6714         0.011740   
    505. D(C  28,C  27,C  21,N  20)    -56.5053         0.011740   
    506. D(H  76,C  28,C  27,H  75)    -61.8954         0.010599   
    507. D(H  76,C  28,C  27,H  74)   -177.7603         0.010599   
    508. D(H  76,C  28,C  27,C  21)     61.1735         0.010599   
    509. D(C  30,C  28,C  27,H  75)    179.6130         0.010599   
    510. D(C  30,C  28,C  27,H  74)     63.7481         0.010599   
    511. D(C  30,C  28,C  27,C  21)    -57.3181         0.010599   
    512. D(C  29,C  28,C  27,H  75)     55.5852         0.010599   
    513. D(C  29,C  28,C  27,H  74)    -60.2797         0.010599   
    514. D(C  29,C  28,C  27,C  21)    178.6541         0.010599   
    515. D(H  79,C  29,C  28,C  30)     58.4962         0.010955   
    516. D(H  79,C  29,C  28,C  27)   -176.7589         0.010955   
    517. D(H  78,C  29,C  28,H  76)   -178.9609         0.010955   
    518. D(H  78,C  29,C  28,C  30)    -61.2174         0.010955   
    519. D(H  78,C  29,C  28,C  27)     63.5275         0.010955   
    520. D(H  77,C  29,C  28,H  76)     61.2171         0.010955   
    521. D(H  77,C  29,C  28,C  30)    178.9606         0.010955   
    522. D(H  79,C  29,C  28,H  76)    -59.2473         0.010955   
    523. D(H  77,C  29,C  28,C  27)    -56.2944         0.010955   
    524. D(H  82,C  30,C  28,H  76)   -176.6889         0.010921   
    525. D(H  82,C  30,C  28,C  29)     65.3741         0.010921   
    526. D(H  82,C  30,C  28,C  27)    -57.9801         0.010921   
    527. D(H  81,C  30,C  28,H  76)     63.8943         0.010921   
    528. D(H  81,C  30,C  28,C  29)    -54.0427         0.010921   
    529. D(H  81,C  30,C  28,C  27)   -177.3969         0.010921   
    530. D(H  80,C  30,C  28,H  76)    -56.0475         0.010921   
    531. D(H  80,C  30,C  28,C  29)   -173.9845         0.010921   
    532. D(H  80,C  30,C  28,C  27)     62.6613         0.010921   
    533. D(O  42,C  32,C  18,H  66)     10.1292         0.009290   
    534. D(O  42,C  32,C  18,C  19)   -108.0996         0.009290   
    535. D(O  42,C  32,C  18,C  17)    130.5477         0.009290   
    536. D(C  33,C  32,C  18,H  66)   -171.1622         0.009290   
    537. D(C  33,C  32,C  18,C  19)     70.6090         0.009290   
    538. D(C  33,C  32,C  18,C  17)    -50.7437         0.009290   
    539. D(H  84,C  33,C  32,O  42)    131.1302         0.012451   
    540. D(H  84,C  33,C  32,C  18)    -47.5090         0.012451   
    541. D(H  83,C  33,C  32,O  42)   -117.3472         0.012451   
    542. D(H  83,C  33,C  32,C  18)     64.0135         0.012451   
    543. D(C  34,C  33,C  32,O  42)      5.6435         0.012451   
    544. D(C  34,C  33,C  32,C  18)   -172.9958         0.012451   
    545. D(H  86,C  34,C  33,H  84)   -179.8134         0.011575   
    546. D(H  86,C  34,C  33,H  83)     64.6794         0.011575   
    547. D(H  86,C  34,C  33,C  32)    -56.8975         0.011575   
    548. D(H  85,C  34,C  33,H  84)    -64.4376         0.011575   
    549. D(H  85,C  34,C  33,H  83)   -179.9449         0.011575   
    550. D(H  85,C  34,C  33,C  32)     58.4782         0.011575   
    551. D(C  35,C  34,C  33,H  84)     58.1198         0.011575   
    552. D(C  35,C  34,C  33,H  83)    -57.3875         0.011575   
    553. D(C  35,C  34,C  33,C  32)   -178.9644         0.011575   
    554. D(H  88,C  35,C  34,H  86)    179.6468         0.011146   
    555. D(H  88,C  35,C  34,H  85)     63.6314         0.011146   
    556. D(H  88,C  35,C  34,C  33)    -58.6644         0.011146   
    557. D(H  87,C  35,C  34,H  86)    -64.7962         0.011146   
    558. D(H  87,C  35,C  34,H  85)    179.1885         0.011146   
    559. D(H  87,C  35,C  34,C  33)     56.8926         0.011146   
    560. D(C  36,C  35,C  34,H  86)     57.4912         0.011146   
    561. D(C  36,C  35,C  34,H  85)    -58.5242         0.011146   
    562. D(C  36,C  35,C  34,C  33)    179.1800         0.011146   
    563. D(H  90,C  36,C  35,H  87)     64.0600         0.011152   
    564. D(H  90,C  36,C  35,C  34)    -58.0874         0.011152   
    565. D(H  89,C  36,C  35,H  88)    -64.8716         0.011152   
    566. D(H  89,C  36,C  35,H  87)    179.4990         0.011152   
    567. D(H  89,C  36,C  35,C  34)     57.3516         0.011152   
    568. D(C  37,C  36,C  35,H  88)     57.4581         0.011152   
    569. D(C  37,C  36,C  35,H  87)    -58.1714         0.011152   
    570. D(H  90,C  36,C  35,H  88)    179.6895         0.011152   
    571. D(C  37,C  36,C  35,C  34)    179.6812         0.011152   
    572. D(H  92,C  37,C  36,H  90)    179.8721         0.011129   
    573. D(H  92,C  37,C  36,H  89)     64.4204         0.011129   
    574. D(H  92,C  37,C  36,C  35)    -57.9373         0.011129   
    575. D(H  91,C  37,C  36,H  90)    -64.6967         0.011129   
    576. D(H  91,C  37,C  36,H  89)    179.8517         0.011129   
    577. D(H  91,C  37,C  36,C  35)     57.4939         0.011129   
    578. D(C  38,C  37,C  36,H  90)     57.6045         0.011129   
    579. D(C  38,C  37,C  36,H  89)    -57.8471         0.011129   
    580. D(C  38,C  37,C  36,C  35)    179.7951         0.011129   
    581. D(H  94,C  38,C  37,H  92)    179.8574         0.011121   
    582. D(H  94,C  38,C  37,H  91)     64.3977         0.011121   
    583. D(H  94,C  38,C  37,C  36)    -57.8790         0.011121   
    584. D(H  93,C  38,C  37,H  92)    -64.7377         0.011121   
    585. D(H  93,C  38,C  37,H  91)    179.8025         0.011121   
    586. D(H  93,C  38,C  37,C  36)     57.5258         0.011121   
    587. D(C  39,C  38,C  37,H  92)     57.5631         0.011121   
    588. D(C  39,C  38,C  37,H  91)    -57.8966         0.011121   
    589. D(C  39,C  38,C  37,C  36)    179.8267         0.011121   
    590. D(H  95,C  39,C  38,H  94)    -64.6121         0.011129   
    591. D(H  95,C  39,C  38,H  93)    179.9711         0.011129   
    592. D(H  95,C  39,C  38,C  37)     57.6735         0.011129   
    593. D(C  40,C  39,C  38,H  94)     57.6767         0.011129   
    594. D(C  40,C  39,C  38,H  93)    -57.7401         0.011129   
    595. D(C  40,C  39,C  38,C  37)    179.9623         0.011129   
    596. D(H  96,C  39,C  38,H  94)    179.9597         0.011129   
    597. D(H  96,C  39,C  38,H  93)     64.5429         0.011129   
    598. D(H  96,C  39,C  38,C  37)    -57.7548         0.011129   
    599. D(H  98,C  40,C  39,H  95)     64.6472         0.011068   
    600. D(H  98,C  40,C  39,C  38)    -57.6854         0.011068   
    601. D(H  97,C  40,C  39,H  96)    -64.6982         0.011068   
    602. D(H  97,C  40,C  39,H  95)    179.9582         0.011068   
    603. D(H  97,C  40,C  39,C  38)     57.6256         0.011068   
    604. D(C  41,C  40,C  39,H  96)     57.6476         0.011068   
    605. D(C  41,C  40,C  39,H  95)    -57.6960         0.011068   
    606. D(H  98,C  40,C  39,H  96)    179.9908         0.011068   
    607. D(C  41,C  40,C  39,C  38)    179.9714         0.011068   
    608. D(H 101,C  41,C  40,H  98)    -62.3126         0.011149   
    609. D(H 101,C  41,C  40,H  97)   -178.1910         0.011149   
    610. D(H 101,C  41,C  40,C  39)     59.7463         0.011149   
    611. D(H 100,C  41,C  40,H  98)    178.1874         0.011149   
    612. D(H 100,C  41,C  40,H  97)     62.3089         0.011149   
    613. D(H 100,C  41,C  40,C  39)    -59.7537         0.011149   
    614. D(H  99,C  41,C  40,H  98)     57.9382         0.011149   
    615. D(H  99,C  41,C  40,H  97)    -57.9403         0.011149   
    616. D(H  99,C  41,C  40,C  39)    179.9971         0.011149   
    617. D(H 102,O  43,C  17,H  65)    -43.0804         0.017859   
    618. D(H 102,O  43,C  17,C  18)   -160.3925         0.017859   
    619. D(H 102,O  43,C  17,C  16)     77.9921         0.017859   
    620. D(H 104,C  45,C  13,H  61)     62.8853         0.010259   
    621. D(H 104,C  45,C  13,C  14)   -179.6806         0.010259   
    622. D(H 104,C  45,C  13,N  12)    -56.5719         0.010259   
    623. D(H 103,C  45,C  13,H  61)    178.2881         0.010259   
    624. D(H 103,C  45,C  13,C  14)    -64.2778         0.010259   
    625. D(H 103,C  45,C  13,N  12)     58.8309         0.010259   
    626. D(C  46,C  45,C  13,H  61)    -58.7495         0.010259   
    627. D(C  46,C  45,C  13,C  14)     58.6845         0.010259   
    628. D(C  46,C  45,C  13,N  12)   -178.2068         0.010259   
    629. D(H 107,C  46,C  45,H 104)    -61.0470         0.011315   
    630. D(H 107,C  46,C  45,H 103)   -179.3176         0.011315   
    631. D(H 107,C  46,C  45,C  13)     58.5467         0.011315   
    632. D(H 106,C  46,C  45,H 104)    179.1456         0.011315   
    633. D(H 106,C  46,C  45,H 103)     60.8750         0.011315   
    634. D(H 106,C  46,C  45,C  13)    -61.2607         0.011315   
    635. D(H 105,C  46,C  45,H 104)     58.8405         0.011315   
    636. D(H 105,C  46,C  45,H 103)    -59.4301         0.011315   
    637. D(H 105,C  46,C  45,C  13)    178.4342         0.011315   
    638. D(H 108,C  48,C  10,H  59)     68.9212         0.009094   
    639. D(H 108,C  48,C  10,C  11)   -179.1127         0.009094   
    640. D(H 108,C  48,C  10,N   9)    -43.8373         0.009094   
    641. D(C  50,C  48,C  10,H  59)   -173.6004         0.009094   
    642. D(C  50,C  48,C  10,C  11)    -61.6343         0.009094   
    643. D(C  50,C  48,C  10,N   9)     73.6411         0.009094   
    644. D(C  49,C  48,C  10,H  59)    -47.3136         0.009094   
    645. D(C  49,C  48,C  10,C  11)     64.6525         0.009094   
    646. D(C  49,C  48,C  10,N   9)   -160.0721         0.009094   
    647. D(H 111,C  49,C  48,C  50)     62.7342         0.011009   
    648. D(H 111,C  49,C  48,C  10)    -64.6277         0.011009   
    649. D(H 110,C  49,C  48,H 108)     60.8844         0.011009   
    650. D(H 110,C  49,C  48,C  50)    -57.4626         0.011009   
    651. D(H 110,C  49,C  48,C  10)    175.1755         0.011009   
    652. D(H 109,C  49,C  48,H 108)    -59.1082         0.011009   
    653. D(H 109,C  49,C  48,C  50)   -177.4553         0.011009   
    654. D(H 111,C  49,C  48,H 108)   -178.9188         0.011009   
    655. D(H 109,C  49,C  48,C  10)     55.1829         0.011009   
    656. D(H 114,C  50,C  48,H 108)    -59.2637         0.010983   
    657. D(H 114,C  50,C  48,C  49)     58.8989         0.010983   
    658. D(H 114,C  50,C  48,C  10)   -174.6999         0.010983   
    659. D(H 113,C  50,C  48,H 108)   -178.2497         0.010983   
    660. D(H 113,C  50,C  48,C  49)    -60.0870         0.010983   
    661. D(H 113,C  50,C  48,C  10)     66.3142         0.010983   
    662. D(H 112,C  50,C  48,H 108)     61.1683         0.010983   
    663. D(H 112,C  50,C  48,C  49)    179.3310         0.010983   
    664. D(H 112,C  50,C  48,C  10)    -54.2678         0.010983   
    -----------------------------------------------------------------

Number of atoms                         .... 115
Number of degrees of freedom            .... 664

         *************************************************************
         *                GEOMETRY OPTIMIZATION CYCLE   1            *
         *************************************************************
---------------------------------
CARTESIAN COORDINATES (ANGSTROEM)
---------------------------------
  O      3.546682   -1.264652    1.251846
  C      4.561715   -1.055636    0.559489
  C      5.486069    0.137416    0.842941
  C      6.495548   -0.258298    1.949010
  C      5.770981    0.145544    3.240088
  C      5.070747    1.454688    2.858633
  N      4.811549    1.289529    1.417076
  C      4.157364    2.159916    0.590106
  O      3.933197    1.879706   -0.588870
  N      5.037070   -1.868138   -0.411888
  C      4.867402   -3.311726   -0.707041
  C      3.448567   -3.883680   -0.899139
  N      2.460427   -3.371528   -0.136188
  C      1.107300   -3.920150   -0.171237
  C      0.111153   -2.838509    0.254583
  N      0.361560   -2.253344    1.465318
  C     -0.381024   -1.075217    1.885084
  C      0.197844    0.206751    1.265942
  C     -0.783135    1.378022    1.390362
  C     -0.201426    2.581941    0.648496
  N     -0.297041    3.766083    1.309867
  C      0.371951    4.971754    0.813512
  C      1.828151    4.886762    1.317119
  N      2.596100    4.015422    0.608321
  C      3.842683    3.534322    1.175023
  C      5.021866    4.476702    0.869751
  O      2.223754    5.477881    2.324297
  C     -0.339516    6.236665    1.273782
  C     -1.824178    6.312305    0.882272
  C     -2.439469    7.606471    1.425441
  C     -2.031941    6.197918   -0.632189
  O      0.286603    2.487714   -0.482622
  C     -2.195561    1.092581    0.826967
  C     -2.275450    0.533612   -0.567728
  C     -3.690068    0.432037   -1.126953
  C     -3.711731   -0.165370   -2.535297
  C     -5.122899   -0.296455   -3.111465
  C     -5.153748   -0.886043   -4.523173
  C     -6.565716   -1.021702   -5.097391
  C     -6.598757   -1.607206   -6.510744
  C     -8.011394   -1.743813   -7.084943
  C     -8.032544   -2.329384   -8.498221
  O     -3.171554    1.350411    1.515060
  O      1.405459    0.597698    1.933388
  O     -0.860050   -2.537385   -0.439484
  C      0.988088   -5.193962    0.689619
  C     -0.406676   -5.815303    0.637204
  O      3.304311   -4.825445   -1.683232
  C      5.702340   -4.172870    0.290358
  C      5.951152   -5.581342   -0.257900
  C      5.097320   -4.223823    1.697009
  H      5.978811    0.436681   -0.095090
  H      7.415568    0.329381    1.816483
  H      6.764658   -1.321847    1.914009
  H      5.022300   -0.613651    3.503753
  H      6.451342    0.269884    4.091540
  H      4.130302    1.601962    3.405240
  H      5.722226    2.325202    3.042405
  H      5.835211   -1.473211   -0.902951
  H      5.320303   -3.437273   -1.699678
  H      2.692486   -2.569305    0.469354
  H      0.864587   -4.170594   -1.212699
  H      1.207821   -2.494854    1.971641
  H     -0.345858   -0.996739    2.980250
  H     -1.424915   -1.222215    1.577739
  H      0.394722    0.036389    0.194601
  H     -0.923774    1.620689    2.454300
  H     -0.578899    3.753236    2.286208
  H      0.366414    4.888498   -0.281914
  H      2.168074    3.459482   -0.138612
  H      3.709039    3.485424    2.265402
  H      4.797688    5.470288    1.276249
  H      5.951017    4.110299    1.330868
  H      5.169749    4.549724   -0.215728
  H      0.199643    7.098069    0.845920
  H     -0.225280    6.328773    2.365712
  H     -2.345692    5.462529    1.356415
  H     -2.309983    7.686062    2.514956
  H     -1.963414    8.487800    0.966777
  H     -3.516012    7.656214    1.207237
  H     -1.691956    5.229011   -1.024075
  H     -3.096119    6.301200   -0.888554
  H     -1.481196    6.991238   -1.163183
  H     -1.793885   -0.463789   -0.558420
  H     -1.614126    1.143999   -1.208297
  H     -4.158255    1.429841   -1.132154
  H     -4.304578   -0.182082   -0.449884
  H     -3.227322   -1.156687   -2.517646
  H     -3.098797    0.459427   -3.208906
  H     -5.608472    0.695584   -3.119531
  H     -5.732824   -0.925991   -2.439706
  H     -4.665861   -1.876610   -4.515246
  H     -4.545616   -0.255054   -5.195308
  H     -7.054194   -0.031082   -5.101627
  H     -7.172664   -1.654892   -4.426179
  H     -6.109937   -2.597715   -6.507391
  H     -5.992466   -0.973934   -7.182707
  H     -8.498175   -0.753509   -7.086714
  H     -8.615237   -2.376802   -6.412388
  H     -9.057574   -2.416782   -8.886507
  H     -7.462825   -1.697801   -9.196992
  H     -7.580702   -3.332972   -8.517743
  H      2.144516    0.032302    1.617191
  H      1.261585   -4.949841    1.729819
  H      1.740222   -5.904340    0.315922
  H     -0.447227   -6.733882    1.238243
  H     -1.171863   -5.125563    1.021167
  H     -0.682832   -6.073114   -0.395191
  H      6.678448   -3.658093    0.354758
  H      6.426610   -5.550996   -1.248326
  H      6.611995   -6.135236    0.424091
  H      5.011633   -6.138916   -0.363364
  H      4.920699   -3.224625    2.116150
  H      4.135774   -4.756428    1.689026
  H      5.773149   -4.762324    2.376223

----------------------------
CARTESIAN COORDINATES (A.U.)
----------------------------
  NO LB      ZA    FRAG     MASS         X           Y           Z
   0 O     8.0000    0    15.999    6.702257   -2.389845    2.365645
   1 C     6.0000    0    12.011    8.620392   -1.994863    1.057281
   2 C     6.0000    0    12.011   10.367167    0.259679    1.592927
   3 C     6.0000    0    12.011   12.274808   -0.488113    3.683095
   4 C     6.0000    0    12.011   10.905573    0.275039    6.122878
   5 C     6.0000    0    12.011    9.582323    2.748963    5.402034
   6 N     7.0000    0    14.007    9.092510    2.436857    2.677885
   7 C     6.0000    0    12.011    7.856279    4.081650    1.115139
   8 O     8.0000    0    15.999    7.432666    3.552129   -1.112802
   9 N     7.0000    0    14.007    9.518682   -3.530270   -0.778355
  10 C     6.0000    0    12.011    9.198056   -6.258255   -1.336114
  11 C     6.0000    0    12.011    6.516848   -7.339092   -1.699126
  12 N     7.0000    0    14.007    4.649533   -6.371264   -0.257357
  13 C     6.0000    0    12.011    2.092494   -7.408011   -0.323590
  14 C     6.0000    0    12.011    0.210048   -5.364005    0.481093
  15 N     7.0000    0    14.007    0.683250   -4.258202    2.769049
  16 C     6.0000    0    12.011   -0.720031   -2.031865    3.562292
  17 C     6.0000    0    12.011    0.373871    0.390702    2.392284
  18 C     6.0000    0    12.011   -1.479911    2.604084    2.627404
  19 C     6.0000    0    12.011   -0.380641    4.879162    1.225480
  20 N     7.0000    0    14.007   -0.561326    7.116865    2.475290
  21 C     6.0000    0    12.011    0.702885    9.395254    1.537314
  22 C     6.0000    0    12.011    3.454705    9.234641    2.488995
  23 N     7.0000    0    14.007    4.905918    7.588049    1.149559
  24 C     6.0000    0    12.011    7.261618    6.678902    2.220472
  25 C     6.0000    0    12.011    9.489951    8.459741    1.643592
  26 O     8.0000    0    15.999    4.202287   10.351694    4.392285
  27 C     6.0000    0    12.011   -0.641593   11.785590    2.407098
  28 C     6.0000    0    12.011   -3.447197   11.928527    1.667252
  29 C     6.0000    0    12.011   -4.609928   14.374147    2.693693
  30 C     6.0000    0    12.011   -3.839812   11.712368   -1.194663
  31 O     8.0000    0    15.999    0.541602    4.701099   -0.912023
  32 C     6.0000    0    12.011   -4.149009    2.064679    1.562740
  33 C     6.0000    0    12.011   -4.299978    1.008380   -1.072851
  34 C     6.0000    0    12.011   -6.973217    0.816431   -2.129632
  35 C     6.0000    0    12.011   -7.014155   -0.312503   -4.791017
  36 C     6.0000    0    12.011   -9.680876   -0.560219   -5.879817
  37 C     6.0000    0    12.011   -9.739173   -1.674378   -8.547558
  38 C     6.0000    0    12.011  -12.407404   -1.930738   -9.632673
  39 C     6.0000    0    12.011  -12.469844   -3.037180  -12.303522
  40 C     6.0000    0    12.011  -15.139341   -3.295328  -13.388602
  41 C     6.0000    0    12.011  -15.179309   -4.401898  -16.059311
  42 O     8.0000    0    15.999   -5.993369    2.551907    2.863048
  43 O     8.0000    0    15.999    2.655933    1.129486    3.653573
  44 O     8.0000    0    15.999   -1.625260   -4.794963   -0.830504
  45 C     6.0000    0    12.011    1.867215   -9.815166    1.303191
  46 C     6.0000    0    12.011   -0.768507  -10.989329    1.204142
  47 O     8.0000    0    15.999    6.244242   -9.118770   -3.180847
  48 C     6.0000    0    12.011   10.775861   -7.885582    0.548698
  49 C     6.0000    0    12.011   11.246047  -10.547208   -0.487360
  50 C     6.0000    0    12.011    9.632539   -7.981868    3.206883
  51 H     1.0000    0     1.008   11.298315    0.825208   -0.179694
  52 H     1.0000    0     1.008   14.013394    0.622440    3.432656
  53 H     1.0000    0     1.008   12.783351   -2.497929    3.616952
  54 H     1.0000    0     1.008    9.490772   -1.159632    6.621134
  55 H     1.0000    0     1.008   12.191270    0.510007    7.731889
  56 H     1.0000    0     1.008    7.805139    3.027270    6.434971
  57 H     1.0000    0     1.008   10.813440    4.393994    5.749312
  58 H     1.0000    0     1.008   11.026951   -2.783966   -1.706329
  59 H     1.0000    0     1.008   10.053916   -6.495505   -3.211925
  60 H     1.0000    0     1.008    5.088062   -4.855282    0.886950
  61 H     1.0000    0     1.008    1.633833   -7.881281   -2.291668
  62 H     1.0000    0     1.008    2.282451   -4.714591    3.725862
  63 H     1.0000    0     1.008   -0.653577   -1.883564    5.631856
  64 H     1.0000    0     1.008   -2.692700   -2.309652    2.981495
  65 H     1.0000    0     1.008    0.745916    0.068765    0.367743
  66 H     1.0000    0     1.008   -1.745679    3.062658    4.637955
  67 H     1.0000    0     1.008   -1.093961    7.092587    4.320306
  68 H     1.0000    0     1.008    0.692422    9.237923   -0.532741
  69 H     1.0000    0     1.008    4.097066    6.537474   -0.261939
  70 H     1.0000    0     1.008    7.009067    6.586497    4.280990
  71 H     1.0000    0     1.008    9.066316   10.337346    2.411761
  72 H     1.0000    0     1.008   11.245793    7.767339    2.514975
  73 H     1.0000    0     1.008    9.769410    8.597732   -0.407667
  74 H     1.0000    0     1.008    0.377270   13.413406    1.598557
  75 H     1.0000    0     1.008   -0.425718   11.959648    4.470548
  76 H     1.0000    0     1.008   -4.432716   10.322684    2.563253
  77 H     1.0000    0     1.008   -4.365236   14.524553    4.752578
  78 H     1.0000    0     1.008   -3.710315   16.039618    1.826945
  79 H     1.0000    0     1.008   -6.644300   14.468148    2.281347
  80 H     1.0000    0     1.008   -3.197333    9.881398   -1.935222
  81 H     1.0000    0     1.008   -5.850817   11.907543   -1.679124
  82 H     1.0000    0     1.008   -2.799054   13.211525   -2.198098
  83 H     1.0000    0     1.008   -3.389951   -0.876434   -1.055260
  84 H     1.0000    0     1.008   -3.050256    2.161845   -2.283351
  85 H     1.0000    0     1.008   -7.857964    2.702007   -2.139462
  86 H     1.0000    0     1.008   -8.134474   -0.344085   -0.850158
  87 H     1.0000    0     1.008   -6.098755   -2.185821   -4.757661
  88 H     1.0000    0     1.008   -5.855877    0.868192   -6.063954
  89 H     1.0000    0     1.008  -10.598476    1.314464   -5.895059
  90 H     1.0000    0     1.008  -10.833467   -1.749870   -4.610376
  91 H     1.0000    0     1.008   -8.817200   -3.546278   -8.532578
  92 H     1.0000    0     1.008   -8.589970   -0.481981   -9.817709
  93 H     1.0000    0     1.008  -13.330496   -0.058736   -9.640677
  94 H     1.0000    0     1.008  -13.554371   -3.127293   -8.364265
  95 H     1.0000    0     1.008  -11.546107   -4.908970  -12.297187
  96 H     1.0000    0     1.008  -11.324121   -1.840468  -13.573349
  97 H     1.0000    0     1.008  -16.059224   -1.423925  -13.391948
  98 H     1.0000    0     1.008  -16.280438   -4.491505  -12.117657
  99 H     1.0000    0     1.008  -17.116335   -4.567056  -16.793064
 100 H     1.0000    0     1.008  -14.102695   -3.208380  -17.379796
 101 H     1.0000    0     1.008  -14.325451   -6.298404  -16.096202
 102 H     1.0000    0     1.008    4.052548    0.061042    3.056047
 103 H     1.0000    0     1.008    2.384050   -9.353844    3.268884
 104 H     1.0000    0     1.008    3.288542  -11.157586    0.597007
 105 H     1.0000    0     1.008   -0.845137  -12.725193    2.339940
 106 H     1.0000    0     1.008   -2.214500   -9.685910    1.929727
 107 H     1.0000    0     1.008   -1.290366  -11.476523   -0.746803
 108 H     1.0000    0     1.008   12.620437   -6.912794    0.670395
 109 H     1.0000    0     1.008   12.144532  -10.489862   -2.358994
 110 H     1.0000    0     1.008   12.494861  -11.593916    0.801416
 111 H     1.0000    0     1.008    9.470615  -11.600869   -0.686658
 112 H     1.0000    0     1.008    9.298773   -6.093658    3.998944
 113 H     1.0000    0     1.008    7.815480   -8.988347    3.191797
 114 H     1.0000    0     1.008   10.909671   -8.999487    4.490410

--------------------------------
INTERNAL COORDINATES (ANGSTROEM)
--------------------------------
 O      0   0   0     0.000000000000     0.00000000     0.00000000
 C      1   0   0     1.246329750138     0.00000000     0.00000000
 C      2   1   0     1.535626494386   121.19706781     0.00000000
 C      3   2   1     1.548879903292   109.00411110    84.50663015
 C      4   3   2     1.534590638132   103.05178671   269.87572685
 C      5   4   3     1.532870944436   103.36043803   321.89553225
 N      3   2   1     1.453262158181   114.17083957   330.11286074
 C      7   3   2     1.367264091922   119.19596806   277.56172946
 O      8   7   3     1.232376468113   121.39361837    12.36459037
 N      2   1   3     1.352662004045   125.76044889   174.06148313
 C     10   2   1     1.483188382407   133.41964297   338.27138366
 C     11  10   2     1.541792818681   119.41471332    56.55967545
 N     12  11  10     1.349376376993   117.55805771   324.07710304
 C     13  12  11     1.460536875169   121.48679079   184.87958655
 C     14  13  12     1.530875270444   109.31572783   205.02943111
 N     15  14  13     1.367845379469   115.42606521   305.38631706
 C     16  15  14     1.454516426726   120.56355234   170.26012032
 C     17  16  15     1.536836037811   111.53601850   278.43186515
 C     18  17  16     1.532865852565   111.32366963   164.64433559
 C     19  18  17     1.529108419118   108.58849644   184.99296219
 N     20  19  18     1.359685851443   115.02046083   224.25978400
 C     21  20  19     1.465456076697   121.30914699   171.63904479
 C     22  21  20     1.543166960796   105.95799530   276.88367077
 N     23  22  21     1.360651941370   113.44436339    76.75143466
 C     24  23  22     1.451405201394   119.57899330   197.78185149
 C     25  24  23     1.540046238053   112.17261084   273.04250977
 O     23  22  21     1.233016873032   122.88327807   261.81486604
 C     22  21  20     1.522509193852   111.58055527   153.71209575
 C     28  22  21     1.537277432601   114.53139044   303.49469245
 C     29  28  22     1.532475763467   109.81860217   178.65407820
 C     29  28  22     1.532918679077   112.26151540   302.68188516
 O     20  19  18     1.235507541982   122.30273568    46.07936781
 C     19  18  17     1.547203266471   114.43692249   306.24941685
 C     33  19  18     1.504660264797   117.03477433   309.25625794
 C     34  33  19     1.524530175252   114.45807878   187.00423912
 C     35  34  33     1.529966176499   112.13636787   181.03561933
 C     36  35  34     1.529885337762   113.15300892   179.18000837
 C     37  36  35     1.530191332204   113.51928853   179.68119268
 C     38  37  36     1.530287930840   113.51188897   179.79513141
 C     39  38  37     1.530186971829   113.60501279   179.82668028
 C     40  39  38     1.530983121755   113.60833611   179.96226336
 C     41  40  39     1.529933594660   113.16388586   179.97139781
 O     33  19  18     1.221683823040   119.03016049   130.54765393
 O     18  17  16     1.434105668295   110.92068217   283.70568259
 O     15  14  13     1.231113279542   121.96033510   126.60507861
 C     14  13  12     1.542037590003   111.62430198    80.28680119
 C     46  14  13     1.527801663576   112.79112496   181.79321631
 O     12  11  10     1.233909795210   118.02753716   147.97474851
 C     11  10   2     1.559967100433   110.41557584   285.26593492
 C     49  11  10     1.531759381335   111.44989124   199.92789078
 C     49  11  10     1.532093917659   113.20490532    73.64106651
 H      3   2   1     1.101024739145   108.86248342   207.82305008
 H      4   3   2     1.099712224067   108.82424656   152.17437250
 H      4   3   2     1.097625423000   112.61722970    32.47111067
 H      5   4   3     1.098371010593   109.99257369    79.07845370
 H      5   4   3     1.096960604801   112.95508433   200.26823037
 H      6   5   4     1.097681796447   112.46033007   148.97384725
 H      6   5   4     1.102719535858   111.27547995   270.93793496
 H     10   2   1     1.016926595225   112.91200855   175.42749877
 H     11  10   2     1.098275444843   104.11954775   170.61025571
 H     13  12  11     1.031548973009   117.53814763     5.44196072
 H     14  13  12     1.098305474246   108.24892339   320.44517344
 H     16  15  14     1.015306922201   119.48769670     5.08250538
 H     17  16  15     1.098537185125   109.22200927   157.54858244
 H     17  16  15     1.098079190588   107.22572399    40.04305716
 H     18  17  16     1.102521972377   109.25908328    45.28487375
 H     19  18  17     1.100286020850   109.19654724    64.89201065
 H     21  20  19     1.016292156637   118.41059844    10.84677451
 H     22  21  20     1.098599394537   105.84737042    32.58113143
 H     24  23  22     1.024785197035   119.42977504   356.55088645
 H     25  24  23     1.099626541392   107.30886591    32.07815578
 H     26  25  24     1.096680871519   108.92938172    58.81475863
 H     26  25  24     1.100091823913   111.08838430   178.40171296
 H     26  25  24     1.097938010700   109.86477959   298.87808168
 H     28  22  21     1.102621454878   107.65263370   181.37782401
 H     28  22  21     1.101746837310   108.70047868    67.46991033
 H     29  28  22     1.104041532649   107.99627556    61.17354944
 H     30  29  28     1.100065400785   111.40024827   303.70556151
 H     30  29  28     1.101699559339   110.76390486    63.52753436
 H     30  29  28     1.099560365795   111.15939436   183.24111627
 H     31  29  28     1.099066366407   112.09394206    62.66127840
 H     31  29  28     1.099484154754   110.76487353   182.60309403
 H     31  29  28     1.102103105443   110.76630606   302.01987634
 H     34  33  19     1.107610096544   107.67715722    64.01353984
 H     34  33  19     1.104649727848   107.48440379   312.49096849
 H     35  34  33     1.102197639941   109.60698292    58.47821438
 H     35  34  33     1.101447533297   109.22939916   303.10248231
 H     36  35  34     1.103482032843   109.25909940    56.89264493
 H     36  35  34     1.104449645793   109.43099529   301.33556797
 H     37  36  35     1.104530727867   109.34762492    57.35157361
 H     37  36  35     1.104347938555   109.21992330   301.91263979
 H     38  37  36     1.104228113327   109.27559064    57.49390518
 H     38  37  36     1.104417005062   109.28258853   302.06269557
 H     39  38  37     1.104517299110   109.26824652    57.52583793
 H     39  38  37     1.104464405316   109.25866136   302.12097602
 H     40  39  38     1.104565422007   109.31523045    57.67348774
 H     40  39  38     1.104607233292   109.30899961   302.24523890
 H     41  40  39     1.103476641963   109.12069602    57.62562056
 H     41  40  39     1.103463481618   109.11804670   302.31462912
 H     42  41  40     1.099586420534   111.68495432   179.99706608
 H     42  41  40     1.100798442531   111.07749261   300.24627134
 H     42  41  40     1.100786576340   111.07899662    59.74633298
 H     44  18  17     0.982780740120   109.06676398    77.99208813
 H     46  14  13     1.102910647935   108.93553153    58.83085441
 H     46  14  13     1.099996222947   106.91505813   303.42806149
 H     47  46  14     1.098490057009   110.79414353   178.43424426
 H     47  46  14     1.099399476351   111.60884645   298.73934146
 H     47  46  14     1.099349366136   110.91099032    58.54672960
 H     49  11  10     1.105408798513   104.64310130   316.16266514
 H     50  49  11     1.099056717970   111.55726731    55.18286508
 H     50  49  11     1.099374660000   109.80853862   175.17549924
 H     50  49  11     1.097590807759   111.25138044   295.37231989
 H     51  49  11     1.097847820403   112.56848262   305.73215811
 H     51  49  11     1.099228690913   110.78614626    66.31415360
 H     51  49  11     1.099117448055   109.92829211   185.30012389

---------------------------
INTERNAL COORDINATES (A.U.)
---------------------------
 O      0   0   0     0.000000000000     0.00000000     0.00000000
 C      1   0   0     2.355221900320     0.00000000     0.00000000
 C      2   1   0     2.901913518383   121.19706781     0.00000000
 C      3   2   1     2.926958831556   109.00411110    84.50663015
 C      4   3   2     2.899956033750   103.05178671   269.87572685
 C      5   4   3     2.896706283630   103.36043803   321.89553225
 N      3   2   1     2.746267479753   114.17083957   330.11286074
 C      7   3   2     2.583754686478   119.19596806   277.56172946
 O      8   7   3     2.328854018623   121.39361837    12.36459037
 N      2   1   3     2.556160739407   125.76044889   174.06148313
 C     10   2   1     2.802819847762   133.41964297   338.27138366
 C     11  10   2     2.913566182553   119.41471332    56.55967545
 N     12  11  10     2.549951804099   117.55805771   324.07710304
 C     13  12  11     2.760014702563   121.48679079   184.87958655
 C     14  13  12     2.892935006333   109.31572783   205.02943111
 N     15  14  13     2.584853160745   115.42606521   305.38631706
 C     16  15  14     2.748637703801   120.56355234   170.26012032
 C     17  16  15     2.904199224202   111.53601850   278.43186515
 C     18  17  16     2.896696661388   111.32366963   164.64433559
 C     19  18  17     2.889596141206   108.58849644   184.99296219
 N     20  19  18     2.569433887394   115.02046083   224.25978400
 C     21  20  19     2.769310646248   121.30914699   171.63904479
 C     22  21  20     2.916162934819   105.95799530   276.88367077
 N     23  22  21     2.571259532777   113.44436339    76.75143466
 C     24  23  22     2.742758339984   119.57899330   197.78185149
 C     25  24  23     2.910265623496   112.17261084   273.04250977
 O     23  22  21     2.330064208535   122.88327807   261.81486604
 C     22  21  20     2.877125412758   111.58055527   153.71209575
 C     28  22  21     2.905033339474   114.53139044   303.49469245
 C     29  28  22     2.895959499824   109.81860217   178.65407820
 C     29  28  22     2.896796489028   112.26151540   302.68188516
 O     20  19  18     2.334770890740   122.30273568    46.07936781
 C     19  18  17     2.923790447138   114.43692249   306.24941685
 C     33  19  18     2.843395825060   117.03477433   309.25625794
 C     34  33  19     2.880944514126   114.45807878   187.00423912
 C     35  34  33     2.891217067746   112.13636787   181.03561933
 C     36  35  34     2.891064304672   113.15300892   179.18000837
 C     37  36  35     2.891642550365   113.51928853   179.68119268
 C     38  37  36     2.891825095333   113.51188897   179.79513141
 C     39  38  37     2.891634310451   113.60501279   179.82668028
 C     40  39  38     2.893138815773   113.60833611   179.96226336
 C     41  40  39     2.891155496993   113.16388586   179.97139781
 O     33  19  18     2.308647847788   119.03016049   130.54765393
 O     18  17  16     2.710066960181   110.92068217   283.70568259
 O     15  14  13     2.326466938168   121.96033510   126.60507861
 C     14  13  12     2.914028733318   111.62430198    80.28680119
 C     46  14  13     2.887126731108   112.79112496   181.79321631
 O     12  11  10     2.331751586909   118.02753716   147.97474851
 C     11  10   2     2.947910597746   110.41557584   285.26593492
 C     49  11  10     2.894605733788   111.44989124   199.92789078
 C     49  11  10     2.895237915822   113.20490532    73.64106651
 H      3   2   1     2.080635223656   108.86248342   207.82305008
 H      4   3   2     2.078154929612   108.82424656   152.17437250
 H      4   3   2     2.074211447099   112.61722970    32.47111067
 H      5   4   3     2.075620403460   109.99257369    79.07845370
 H      5   4   3     2.072955122775   112.95508433   200.26823037
 H      6   5   4     2.074317977476   112.46033007   148.97384725
 H      6   5   4     2.083837925296   111.27547995   270.93793496
 H     10   2   1     1.921712763277   112.91200855   175.42749877
[...]
      equations for an ideal gas
  (5) All vibrations are strictly harmonic

freq.       5.49  E(vib)   ...       0.58 
freq.       7.30  E(vib)   ...       0.58 
freq.      11.55  E(vib)   ...       0.58 
freq.      18.08  E(vib)   ...       0.57 
freq.      21.38  E(vib)   ...       0.56 
freq.      23.94  E(vib)   ...       0.56 
freq.      29.23  E(vib)   ...       0.55 
freq.      33.25  E(vib)   ...       0.55 
freq.      36.22  E(vib)   ...       0.54 
freq.      38.74  E(vib)   ...       0.54 
freq.      42.65  E(vib)   ...       0.53 
freq.      46.00  E(vib)   ...       0.53 
freq.      46.13  E(vib)   ...       0.53 
freq.      50.42  E(vib)   ...       0.52 
freq.      52.40  E(vib)   ...       0.52 
freq.      60.09  E(vib)   ...       0.51 
freq.      62.87  E(vib)   ...       0.51 
freq.      65.65  E(vib)   ...       0.50 
freq.      69.30  E(vib)   ...       0.50 
freq.      72.68  E(vib)   ...       0.49 
freq.      75.88  E(vib)   ...       0.49 
freq.      82.82  E(vib)   ...       0.48 
freq.      88.91  E(vib)   ...       0.47 
freq.      91.76  E(vib)   ...       0.47 
freq.      92.57  E(vib)   ...       0.47 
freq.     102.96  E(vib)   ...       0.46 
freq.     105.70  E(vib)   ...       0.45 
freq.     115.21  E(vib)   ...       0.44 
freq.     115.73  E(vib)   ...       0.44 
freq.     118.03  E(vib)   ...       0.44 
freq.     120.08  E(vib)   ...       0.44 
freq.     129.94  E(vib)   ...       0.43 
freq.     140.15  E(vib)   ...       0.41 
freq.     147.12  E(vib)   ...       0.41 
freq.     150.22  E(vib)   ...       0.40 
freq.     154.29  E(vib)   ...       0.40 
freq.     155.96  E(vib)   ...       0.40 
freq.     158.32  E(vib)   ...       0.39 
freq.     173.77  E(vib)   ...       0.38 
freq.     175.09  E(vib)   ...       0.38 
freq.     181.19  E(vib)   ...       0.37 
freq.     184.25  E(vib)   ...       0.37 
freq.     187.10  E(vib)   ...       0.36 
freq.     194.41  E(vib)   ...       0.36 
freq.     210.31  E(vib)   ...       0.34 
freq.     213.69  E(vib)   ...       0.34 
freq.     218.72  E(vib)   ...       0.33 
freq.     224.19  E(vib)   ...       0.33 
freq.     227.01  E(vib)   ...       0.33 
freq.     237.04  E(vib)   ...       0.32 
freq.     237.19  E(vib)   ...       0.32 
freq.     238.48  E(vib)   ...       0.32 
freq.     241.94  E(vib)   ...       0.31 
freq.     244.15  E(vib)   ...       0.31 
freq.     248.43  E(vib)   ...       0.31 
freq.     253.69  E(vib)   ...       0.30 
freq.     258.09  E(vib)   ...       0.30 
freq.     260.96  E(vib)   ...       0.30 
freq.     271.59  E(vib)   ...       0.29 
freq.     279.50  E(vib)   ...       0.28 
freq.     288.21  E(vib)   ...       0.27 
freq.     299.16  E(vib)   ...       0.26 
freq.     304.86  E(vib)   ...       0.26 
freq.     309.68  E(vib)   ...       0.26 
freq.     316.53  E(vib)   ...       0.25 
freq.     321.88  E(vib)   ...       0.25 
freq.     329.83  E(vib)   ...       0.24 
freq.     346.11  E(vib)   ...       0.23 
freq.     362.02  E(vib)   ...       0.22 
freq.     370.00  E(vib)   ...       0.21 
freq.     373.33  E(vib)   ...       0.21 
freq.     386.33  E(vib)   ...       0.20 
freq.     396.18  E(vib)   ...       0.20 
freq.     402.25  E(vib)   ...       0.19 
freq.     406.00  E(vib)   ...       0.19 
freq.     415.18  E(vib)   ...       0.19 
freq.     424.92  E(vib)   ...       0.18 
freq.     446.16  E(vib)   ...       0.17 
freq.     450.38  E(vib)   ...       0.17 
freq.     463.55  E(vib)   ...       0.16 
freq.     469.31  E(vib)   ...       0.16 
freq.     476.37  E(vib)   ...       0.15 
freq.     480.78  E(vib)   ...       0.15 
freq.     493.69  E(vib)   ...       0.14 
freq.     502.57  E(vib)   ...       0.14 
freq.     514.35  E(vib)   ...       0.13 
freq.     521.72  E(vib)   ...       0.13 
freq.     554.63  E(vib)   ...       0.12 
freq.     557.39  E(vib)   ...       0.12 
freq.     563.82  E(vib)   ...       0.11 
freq.     575.46  E(vib)   ...       0.11 
freq.     579.80  E(vib)   ...       0.11 
freq.     597.73  E(vib)   ...       0.10 
freq.     620.48  E(vib)   ...       0.09 
freq.     628.10  E(vib)   ...       0.09 
freq.     638.87  E(vib)   ...       0.09 
freq.     648.40  E(vib)   ...       0.08 
freq.     676.93  E(vib)   ...       0.08 
freq.     701.00  E(vib)   ...       0.07 
freq.     706.86  E(vib)   ...       0.07 
freq.     711.51  E(vib)   ...       0.07 
freq.     714.68  E(vib)   ...       0.07 
freq.     716.62  E(vib)   ...       0.07 
freq.     722.34  E(vib)   ...       0.07 
freq.     723.16  E(vib)   ...       0.07 
freq.     729.16  E(vib)   ...       0.06 
freq.     734.95  E(vib)   ...       0.06 
freq.     739.55  E(vib)   ...       0.06 
freq.     753.40  E(vib)   ...       0.06 
freq.     760.40  E(vib)   ...       0.06 
freq.     767.40  E(vib)   ...       0.06 
freq.     776.07  E(vib)   ...       0.05 
freq.     778.22  E(vib)   ...       0.05 
freq.     797.50  E(vib)   ...       0.05 
freq.     810.66  E(vib)   ...       0.05 
freq.     816.01  E(vib)   ...       0.05 
freq.     823.30  E(vib)   ...       0.05 
freq.     827.44  E(vib)   ...       0.04 
freq.     835.30  E(vib)   ...       0.04 
freq.     838.38  E(vib)   ...       0.04 
freq.     859.92  E(vib)   ...       0.04 
freq.     868.82  E(vib)   ...       0.04 
freq.     870.85  E(vib)   ...       0.04 
freq.     877.28  E(vib)   ...       0.04 
freq.     877.85  E(vib)   ...       0.04 
freq.     883.60  E(vib)   ...       0.04 
freq.     891.01  E(vib)   ...       0.04 
freq.     902.08  E(vib)   ...       0.03 
freq.     903.87  E(vib)   ...       0.03 
freq.     907.99  E(vib)   ...       0.03 
freq.     912.86  E(vib)   ...       0.03 
freq.     926.87  E(vib)   ...       0.03 
freq.     930.50  E(vib)   ...       0.03 
freq.     937.03  E(vib)   ...       0.03 
freq.     938.90  E(vib)   ...       0.03 
freq.     941.95  E(vib)   ...       0.03 
freq.     945.74  E(vib)   ...       0.03 
freq.     948.13  E(vib)   ...       0.03 
freq.     954.51  E(vib)   ...       0.03 
freq.     958.44  E(vib)   ...       0.03 
freq.     978.54  E(vib)   ...       0.03 
freq.     978.87  E(vib)   ...       0.03 
freq.     987.30  E(vib)   ...       0.02 
freq.     990.18  E(vib)   ...       0.02 
freq.    1002.17  E(vib)   ...       0.02 
freq.    1004.31  E(vib)   ...       0.02 
freq.    1015.54  E(vib)   ...       0.02 
freq.    1020.86  E(vib)   ...       0.02 
freq.    1023.39  E(vib)   ...       0.02 
freq.    1030.78  E(vib)   ...       0.02 
freq.    1035.01  E(vib)   ...       0.02 
freq.    1040.04  E(vib)   ...       0.02 
freq.    1040.57  E(vib)   ...       0.02 
freq.    1044.86  E(vib)   ...       0.02 
freq.    1049.82  E(vib)   ...       0.02 
freq.    1050.78  E(vib)   ...       0.02 
freq.    1052.14  E(vib)   ...       0.02 
freq.    1060.93  E(vib)   ...       0.02 
freq.    1064.50  E(vib)   ...       0.02 
freq.    1066.01  E(vib)   ...       0.02 
freq.    1080.18  E(vib)   ...       0.02 
freq.    1081.80  E(vib)   ...       0.02 
freq.    1085.33  E(vib)   ...       0.02 
freq.    1091.85  E(vib)   ...       0.02 
freq.    1102.82  E(vib)   ...       0.02 
freq.    1105.71  E(vib)   ...       0.02 
freq.    1109.59  E(vib)   ...       0.02 
freq.    1116.23  E(vib)   ...       0.01 
freq.    1117.85  E(vib)   ...       0.01 
freq.    1125.34  E(vib)   ...       0.01 
freq.    1134.97  E(vib)   ...       0.01 
freq.    1143.18  E(vib)   ...       0.01 
freq.    1145.86  E(vib)   ...       0.01 
freq.    1157.63  E(vib)   ...       0.01 
freq.    1160.83  E(vib)   ...       0.01 
freq.    1165.98  E(vib)   ...       0.01 
freq.    1167.36  E(vib)   ...       0.01 
freq.    1172.85  E(vib)   ...       0.01 
freq.    1184.51  E(vib)   ...       0.01 
freq.    1187.21  E(vib)   ...       0.01 
freq.    1193.28  E(vib)   ...       0.01 
freq.    1195.75  E(vib)   ...       0.01 
freq.    1206.79  E(vib)   ...       0.01 
freq.    1215.64  E(vib)   ...       0.01 
freq.    1222.14  E(vib)   ...       0.01 
freq.    1224.32  E(vib)   ...       0.01 
freq.    1225.32  E(vib)   ...       0.01 
freq.    1233.91  E(vib)   ...       0.01 
freq.    1234.99  E(vib)   ...       0.01 
freq.    1236.95  E(vib)   ...       0.01 
freq.    1242.81  E(vib)   ...       0.01 
freq.    1244.14  E(vib)   ...       0.01 
freq.    1245.01  E(vib)   ...       0.01 
freq.    1252.34  E(vib)   ...       0.01 
freq.    1256.59  E(vib)   ...       0.01 
freq.    1265.69  E(vib)   ...       0.01 
freq.    1272.97  E(vib)   ...       0.01 
freq.    1274.35  E(vib)   ...       0.01 
freq.    1275.32  E(vib)   ...       0.01 
freq.    1279.25  E(vib)   ...       0.01 
freq.    1282.79  E(vib)   ...       0.01 
freq.    1283.15  E(vib)   ...       0.01 
freq.    1287.02  E(vib)   ...       0.01 
freq.    1292.50  E(vib)   ...       0.01 
freq.    1295.08  E(vib)   ...       0.01 
freq.    1296.07  E(vib)   ...       0.01 
freq.    1296.30  E(vib)   ...       0.01 
freq.    1305.79  E(vib)   ...       0.01 
freq.    1307.64  E(vib)   ...       0.01 
freq.    1308.46  E(vib)   ...       0.01 
freq.    1312.05  E(vib)   ...       0.01 
freq.    1312.25  E(vib)   ...       0.01 
freq.    1324.69  E(vib)   ...       0.01 
freq.    1326.69  E(vib)   ...       0.01 
freq.    1329.49  E(vib)   ...       0.01 
freq.    1330.56  E(vib)   ...       0.01 
freq.    1331.17  E(vib)   ...       0.01 
freq.    1333.57  E(vib)   ...       0.01 
freq.    1337.91  E(vib)   ...       0.01 
freq.    1339.09  E(vib)   ...       0.01 
freq.    1340.90  E(vib)   ...       0.01 
freq.    1344.92  E(vib)   ...       0.01 
freq.    1346.87  E(vib)   ...       0.01 
freq.    1348.15  E(vib)   ...       0.01 
freq.    1352.06  E(vib)   ...       0.01 
freq.    1352.97  E(vib)   ...       0.01 
freq.    1359.71  E(vib)   ...       0.01 
freq.    1360.88  E(vib)   ...       0.01 
freq.    1361.16  E(vib)   ...       0.01 
freq.    1363.18  E(vib)   ...       0.01 
freq.    1370.61  E(vib)   ...       0.01 
freq.    1372.73  E(vib)   ...       0.01 
freq.    1379.70  E(vib)   ...       0.01 
freq.    1386.09  E(vib)   ...       0.00 
freq.    1395.45  E(vib)   ...       0.00 
freq.    1398.93  E(vib)   ...       0.00 
freq.    1410.97  E(vib)   ...       0.00 
freq.    1430.58  E(vib)   ...       0.00 
freq.    1433.56  E(vib)   ...       0.00 
freq.    1433.73  E(vib)   ...       0.00 
freq.    1435.56  E(vib)   ...       0.00 
freq.    1436.78  E(vib)   ...       0.00 
freq.    1437.75  E(vib)   ...       0.00 
freq.    1438.37  E(vib)   ...       0.00 
freq.    1439.03  E(vib)   ...       0.00 
freq.    1439.09  E(vib)   ...       0.00 
freq.    1440.87  E(vib)   ...       0.00 
freq.    1441.77  E(vib)   ...       0.00 
freq.    1445.66  E(vib)   ...       0.00 
freq.    1445.86  E(vib)   ...       0.00 
freq.    1447.97  E(vib)   ...       0.00 
freq.    1449.59  E(vib)   ...       0.00 
freq.    1450.74  E(vib)   ...       0.00 
freq.    1451.65  E(vib)   ...       0.00 
freq.    1453.49  E(vib)   ...       0.00 
freq.    1453.95  E(vib)   ...       0.00 
freq.    1454.87  E(vib)   ...       0.00 
freq.    1456.39  E(vib)   ...       0.00 
freq.    1460.60  E(vib)   ...       0.00 
freq.    1460.63  E(vib)   ...       0.00 
freq.    1463.22  E(vib)   ...       0.00 
freq.    1464.94  E(vib)   ...       0.00 
freq.    1472.23  E(vib)   ...       0.00 
freq.    1474.32  E(vib)   ...       0.00 
freq.    1485.08  E(vib)   ...       0.00 
freq.    1485.70  E(vib)   ...       0.00 
freq.    1513.38  E(vib)   ...       0.00 
freq.    1566.56  E(vib)   ...       0.00 
freq.    1638.67  E(vib)   ...       0.00 
freq.    1652.70  E(vib)   ...       0.00 
freq.    1666.35  E(vib)   ...       0.00 
freq.    1678.18  E(vib)   ...       0.00 
freq.    1681.07  E(vib)   ...       0.00 
freq.    1681.86  E(vib)   ...       0.00 
freq.    1701.18  E(vib)   ...       0.00 
freq.    2916.84  E(vib)   ...       0.00 
freq.    2920.17  E(vib)   ...       0.00 
freq.    2924.05  E(vib)   ...       0.00 
freq.    2925.43  E(vib)   ...       0.00 
freq.    2927.74  E(vib)   ...       0.00 
freq.    2933.11  E(vib)   ...       0.00 
freq.    2938.04  E(vib)   ...       0.00 
freq.    2938.89  E(vib)   ...       0.00 
freq.    2941.64  E(vib)   ...       0.00 
freq.    2943.88  E(vib)   ...       0.00 
freq.    2945.75  E(vib)   ...       0.00 
freq.    2946.98  E(vib)   ...       0.00 
freq.    2951.68  E(vib)   ...       0.00 
freq.    2951.69  E(vib)   ...       0.00 
freq.    2954.75  E(vib)   ...       0.00 
freq.    2955.72  E(vib)   ...       0.00 
freq.    2955.92  E(vib)   ...       0.00 
freq.    2960.58  E(vib)   ...       0.00 
freq.    2961.64  E(vib)   ...       0.00 
freq.    2961.69  E(vib)   ...       0.00 
freq.    2967.15  E(vib)   ...       0.00 
freq.    2968.92  E(vib)   ...       0.00 
freq.    2969.88  E(vib)   ...       0.00 
freq.    2969.96  E(vib)   ...       0.00 
freq.    2970.04  E(vib)   ...       0.00 
freq.    2972.86  E(vib)   ...       0.00 
freq.    2974.15  E(vib)   ...       0.00 
freq.    2978.27  E(vib)   ...       0.00 
freq.    2986.90  E(vib)   ...       0.00 
freq.    2988.11  E(vib)   ...       0.00 
freq.    2992.09  E(vib)   ...       0.00 
freq.    2993.82  E(vib)   ...       0.00 
freq.    2994.18  E(vib)   ...       0.00 
freq.    2997.61  E(vib)   ...       0.00 
freq.    2999.76  E(vib)   ...       0.00 
freq.    3001.57  E(vib)   ...       0.00 
freq.    3002.06  E(vib)   ...       0.00 
freq.    3011.66  E(vib)   ...       0.00 
freq.    3015.17  E(vib)   ...       0.00 
freq.    3017.15  E(vib)   ...       0.00 
freq.    3019.41  E(vib)   ...       0.00 
freq.    3020.33  E(vib)   ...       0.00 
freq.    3021.40  E(vib)   ...       0.00 
freq.    3022.69  E(vib)   ...       0.00 
freq.    3025.90  E(vib)   ...       0.00 
freq.    3029.04  E(vib)   ...       0.00 
freq.    3033.59  E(vib)   ...       0.00 
freq.    3035.57  E(vib)   ...       0.00 
freq.    3036.97  E(vib)   ...       0.00 
freq.    3037.09  E(vib)   ...       0.00 
freq.    3039.08  E(vib)   ...       0.00 
freq.    3041.27  E(vib)   ...       0.00 
freq.    3043.51  E(vib)   ...       0.00 
freq.    3046.54  E(vib)   ...       0.00 
freq.    3049.34  E(vib)   ...       0.00 
freq.    3052.56  E(vib)   ...       0.00 
freq.    3053.52  E(vib)   ...       0.00 
freq.    3068.20  E(vib)   ...       0.00 
freq.    3198.50  E(vib)   ...       0.00 
freq.    3381.98  E(vib)   ...       0.00 
freq.    3488.59  E(vib)   ...       0.00 
freq.    3498.06  E(vib)   ...       0.00 
freq.    3507.65  E(vib)   ...       0.00 
freq.    3514.52  E(vib)   ...       0.00 

------------
INNER ENERGY
------------

The inner energy is: U= E(el) + E(ZPE) + E(vib) + E(rot) + E(trans)
    E(el)   - is the total energy from the electronic structure calculation
              = E(kin-el) + E(nuc-el) + E(el-el) + E(nuc-nuc)
    E(ZPE)  - the the zero temperature vibrational energy from the frequency calculation
    E(vib)  - the the finite temperature correction to E(ZPE) due to population
              of excited vibrational states
    E(rot)  - is the rotational thermal energy
    E(trans)- is the translational thermal energy

Summary of contributions to the inner energy U:
Electronic energy                ...  -2380.06823790 Eh
Zero point energy                ...      0.97651481 Eh     612.77 kcal/mol
Thermal vibrational correction   ...      0.05646883 Eh      35.43 kcal/mol
Thermal rotational correction    ...      0.00141627 Eh       0.89 kcal/mol
Thermal translational correction ...      0.00141627 Eh       0.89 kcal/mol
-----------------------------------------------------------------------
Total thermal energy                  -2379.03242172 Eh


Summary of corrections to the electronic energy:
(perhaps to be used in another calculation)
Total thermal correction                  0.05930138 Eh      37.21 kcal/mol
Non-thermal (ZPE) correction              0.97651481 Eh     612.77 kcal/mol
-----------------------------------------------------------------------
Total correction                          1.03581618 Eh     649.98 kcal/mol


--------
ENTHALPY
--------

The enthalpy is H = U + kB*T
                kB is Boltzmann's constant
Total free energy                 ...  -2379.03242172 Eh 
Thermal Enthalpy correction       ...      0.00094421 Eh       0.59 kcal/mol
-----------------------------------------------------------------------
Total Enthalpy                    ...  -2379.03147751 Eh


Note: Only C1 symmetry has been detected, increase convergence thresholds 
      if your molecule has a higher symmetry. Symmetry factor of 1.0 is   
      used for the rotational entropy correction. 
 

Note: Rotational entropy computed according to Herzberg 
Infrared and Raman Spectra, Chapter V,1, Van Nostrand Reinhold, 1945 
Point Group:  C1, Symmetry Number:   1  
Rotational constants in cm-1:     0.001625     0.001151     0.000757 

Vibrational entropy computed according to the QRRHO of S. Grimme
Chem.Eur.J. 2012 18 9955


-------
ENTROPY
-------

The entropy contributions are T*S = T*(S(el)+S(vib)+S(rot)+S(trans))
     S(el)   - electronic entropy
     S(vib)  - vibrational entropy
     S(rot)  - rotational entropy
     S(trans)- translational entropy
The entropies will be listed as mutliplied by the temperature to get
units of energy

Electronic entropy                ...      0.00000000 Eh      0.00 kcal/mol
Vibrational entropy               ...      0.10503704 Eh     65.91 kcal/mol
Rotational entropy                ...      0.01912984 Eh     12.00 kcal/mol
Translational entropy             ...      0.02166895 Eh     13.60 kcal/mol
-----------------------------------------------------------------------
Final entropy term                ...      0.14583583 Eh     91.51 kcal/mol

In case the symmetry of your molecule has not been determined correctly
or in case you have a reason to use a different symmetry number we print 
out the resulting rotational entropy values for sn=1,12 :
 --------------------------------------------------------
|  sn= 1 | S(rot)=       0.01912984 Eh     12.00 kcal/mol|
|  sn= 2 | S(rot)=       0.01847539 Eh     11.59 kcal/mol|
|  sn= 3 | S(rot)=       0.01809255 Eh     11.35 kcal/mol|
|  sn= 4 | S(rot)=       0.01782093 Eh     11.18 kcal/mol|
|  sn= 5 | S(rot)=       0.01761024 Eh     11.05 kcal/mol|
|  sn= 6 | S(rot)=       0.01743810 Eh     10.94 kcal/mol|
|  sn= 7 | S(rot)=       0.01729255 Eh     10.85 kcal/mol|
|  sn= 8 | S(rot)=       0.01716647 Eh     10.77 kcal/mol|
|  sn= 9 | S(rot)=       0.01705526 Eh     10.70 kcal/mol|
|  sn=10 | S(rot)=       0.01695578 Eh     10.64 kcal/mol|
|  sn=11 | S(rot)=       0.01686579 Eh     10.58 kcal/mol|
|  sn=12 | S(rot)=       0.01678364 Eh     10.53 kcal/mol|
 --------------------------------------------------------


-------------------
GIBBS FREE ENERGY
-------------------

The Gibbs free energy is G = H - T*S

Total enthalpy                    ...  -2379.03147751 Eh 
Total entropy correction          ...     -0.14583583 Eh    -91.51 kcal/mol
-----------------------------------------------------------------------
Final Gibbs free energy         ...  -2379.17731334 Eh

For completeness - the Gibbs free energy minus the electronic energy
G-E(el)                           ...      0.89092457 Eh    559.06 kcal/mol


Timings for individual modules:

Sum of individual times         ...    19823.837 sec (= 330.397 min)
GTO integral calculation        ...       12.471 sec (=   0.208 min)   0.1 %
SCF iterations                  ...      249.392 sec (=   4.157 min)   1.3 %
SCF Gradient evaluation         ...       52.757 sec (=   0.879 min)   0.3 %
Geometry relaxation             ...        2.202 sec (=   0.037 min)   0.0 %
Analytical frequency calculation...    19507.015 sec (= 325.117 min)  98.4 %
                             ****ORCA TERMINATED NORMALLY****
TOTAL RUN TIME: 0 days 5 hours 30 minutes 37 seconds 116 msec
