
                                 *****************
                                 * O   R   C   A *
                                 *****************

           --- An Ab Initio, DFT and Semiempirical electronic structure package ---

                  #######################################################
                  #                        -***-                        #
                  #          Department of theory and spectroscopy      #
                  #               Directorship: Frank Neese             #
                  #        Max Planck Institute fuer Kohlenforschung    #
                  #                Kaiser Wilhelm Platz 1               #
                  #                 D-45470 Muelheim/Ruhr               #
                  #                      Germany                        #
                  #                                                     #
                  #                  All rights reserved                #
                  #                        -***-                        #
                  #######################################################


                         Program Version 4.2.0 -  RELEASE  -


 With contributions from (in alphabetic order):
   Daniel Aravena         : Magnetic Suceptibility
   Michael Atanasov       : Ab Initio Ligand Field Theory (pilot matlab implementation)
   Alexander A. Auer      : GIAO ZORA, VPT2
   Ute Becker             : Parallelization
   Giovanni Bistoni       : ED, misc. LED, open-shell LED, HFLED
   Martin Brehm           : Molecular dynamics
   Dmytro Bykov           : SCF Hessian
   Vijay G. Chilkuri      : MRCI spin determinant printing, contributions to CSF-ICE
   Dipayan Datta          : RHF DLPNO-CCSD density
   Achintya Kumar Dutta   : EOM-CC, STEOM-CC
   Dmitry Ganyushin       : Spin-Orbit,Spin-Spin,Magnetic field MRCI
   Miquel Garcia          : C-PCM Hessian, Gaussian charge scheme
   Yang Guo               : DLPNO-NEVPT2, CIM, IAO-localization
   Andreas Hansen         : Spin unrestricted coupled pair/coupled cluster methods
   Benjamin Helmich-Paris : CASSCF linear response (MC-RPA)
   Lee Huntington         : MR-EOM, pCC
   Robert Izsak           : Overlap fitted RIJCOSX, COSX-SCS-MP3, EOM
   Christian Kollmar      : KDIIS, OOCD, Brueckner-CCSD(T), CCSD density
   Simone Kossmann        : Meta GGA functionals, TD-DFT gradient, OOMP2, MP2 Hessian
   Martin Krupicka        : AUTO-CI
   Lucas Lang             : DCDCAS
   Dagmar Lenk            : GEPOL surface, SMD
   Dimitrios Liakos       : Extrapolation schemes; Compound Job, initial MDCI parallelization
   Dimitrios Manganas     : Further ROCIS development; embedding schemes
   Dimitrios Pantazis     : SARC Basis sets
   Taras Petrenko         : DFT Hessian,TD-DFT gradient, ASA, ECA, R-Raman, ABS, FL, XAS/XES, NRVS
   Peter Pinski           : DLPNO-MP2, DLPNO-MP2 Gradient
   Christoph Reimann      : Effective Core Potentials
   Marius Retegan         : Local ZFS, SOC
   Christoph Riplinger    : Optimizer, TS searches, QM/MM, DLPNO-CCSD(T), (RO)-DLPNO pert. Triples
   Tobias Risthaus        : Range-separated hybrids, TD-DFT gradient, RPA, STAB
   Michael Roemelt        : Original ROCIS implementation
   Masaaki Saitow         : Open-shell DLPNO-CCSD energy and density
   Barbara Sandhoefer     : DKH picture change effects
   Avijit Sen             : IP-ROCIS
   Kantharuban Sivalingam : CASSCF convergence, NEVPT2, FIC-MRCI
   Bernardo de Souza      : ESD, SOC TD-DFT
   Georgi Stoychev        : AutoAux, RI-MP2 NMR
   Willem Van den Heuvel  : Paramagnetic NMR
   Boris Wezisla          : Elementary symmetry handling
   Frank Wennmohs         : Technical directorship


 We gratefully acknowledge several colleagues who have allowed us to
 interface, adapt or use parts of their codes:
   Stefan Grimme, W. Hujo, H. Kruse,             : VdW corrections, initial TS optimization,
                  C. Bannwarth                     DFT functionals, gCP, sTDA/sTD-DF
   Ed Valeev, F. Pavosevic, A. Kumar             : LibInt (2-el integral package), F12 methods
   Garnet Chan, S. Sharma, J. Yang, R. Olivares  : DMRG
   Ulf Ekstrom                                   : XCFun DFT Library
   Mihaly Kallay                                 : mrcc  (arbitrary order and MRCC methods)
   Andreas Klamt, Michael Diedenhofen            : otool_cosmo (COSMO solvation model)
   Jiri Pittner, Ondrej Demel                    : Mk-CCSD
   Frank Weinhold                                : gennbo (NPA and NBO analysis)
   Christopher J. Cramer and Donald G. Truhlar   : smd solvation model
   Lars Goerigk                                  : TD-DFT with DH, B97 family of functionals
   V. Asgeirsson, H. Jonsson                     : NEB implementation
   FAccTs GmbH                                   : IRC, NEB, NEB-TS, Multilevel, MM, QM/MM, CI optimization
   S Lehtola, MJT Oliveira, MAL Marques          : LibXC Library


 Your calculation uses the libint2 library for the computation of 2-el integrals
 For citations please refer to: http://libint.valeyev.net

 Your ORCA version has been built with support for libXC version: 4.2.3
 For citations please refer to: https://tddft.org/programs/libxc/

 This ORCA versions uses:
   CBLAS   interface :  Fast vector & matrix operations
   LAPACKE interface :  Fast linear algebra routines
   SCALAPACK package :  Parallel linear algebra routines




***************************************
The coordinates will be read from file: 75.xyz
***************************************


Your calculation utilizes the atom-pairwise dispersion correction
with the Becke-Johnson damping scheme (D3BJ)
Cite in your paper:
S.Grimme, S.Ehrlich, L.Goerigk, J Comput Chem, (2011), 32, 1456–1465 
S.Grimme, J.Antony, S.Ehrlich and H.Krieg, J.Chem.Phys., 132, (2010), 154104 
   

----- Orbital basis set information -----
Your calculation utilizes the basis: def2-TZVP
   F. Weigend and R. Ahlrichs, Phys. Chem. Chem. Phys. 7, 3297 (2005).

----- AuxJ basis set information -----
Your calculation utilizes the auxiliary basis: def2/J
   F. Weigend, Phys. Chem. Chem. Phys. 8, 1057 (2006).

================================================================================
                                        WARNINGS
                       Please study these warnings very carefully!
================================================================================


WARNING: Geometry Optimization
  ===> : Switching off AutoStart
         For restart on a previous wavefunction, please use MOREAD

INFO   : the flag for use of LIBINT has been found!

================================================================================
                                       INPUT FILE
================================================================================
NAME = 75.inp
|  1> !RI BP86 def2-tzvp def2/J D3BJ TIGHTSCF TightOpt Grid5 FinalGrid6 freq
|  2> %maxcore 4000
|  3> %pal nprocs 24
|  4> end
|  5> * xyzfile 0 1 75.xyz 
|  6> 
|  7>                          ****END OF INPUT****
================================================================================

                       *****************************
                       * Geometry Optimization Run *
                       *****************************

Geometry optimization settings:
Update method            Update   .... BFGS
Choice of coordinates    CoordSys .... Z-matrix Internals
Initial Hessian          InHess   .... Almoef's Model

Convergence Tolerances:
Energy Change            TolE     ....  1.0000e-06 Eh
Max. Gradient            TolMAXG  ....  1.0000e-04 Eh/bohr
RMS Gradient             TolRMSG  ....  3.0000e-05 Eh/bohr
Max. Displacement        TolMAXD  ....  1.0000e-03 bohr
RMS Displacement         TolRMSD  ....  6.0000e-04 bohr
Strict Convergence                ....  False
------------------------------------------------------------------------------
                        ORCA OPTIMIZATION COORDINATE SETUP
------------------------------------------------------------------------------

The optimization will be done in new redundant internal coordinates
Making redundant internal coordinates   ...  (new redundants) done
Evaluating the initial hessian          ...  (Almloef) done
Evaluating the coordinates              ...  done
Calculating the B-matrix                .... done
Calculating the G-matrix                .... done
Diagonalizing the G-matrix              .... done
Small eigenvalue found = 2.962e-04
Small eigenvalue found = 6.941e-04
Small eigenvalue found = 2.300e-03
Small eigenvalue found = 3.478e-03
Small eigenvalue found = 4.325e-03
Small eigenvalue found = 5.040e-03
Small eigenvalue found = 5.278e-03
Small eigenvalue found = 5.975e-03
Small eigenvalue found = 7.921e-03
Small eigenvalue found = 8.565e-03
Small eigenvalue found = 1.025e-02
Small eigenvalue found = 1.180e-02
Small eigenvalue found = 1.372e-02
Small eigenvalue found = 1.472e-02
Small eigenvalue found = 1.698e-02
Small eigenvalue found = 1.733e-02
Small eigenvalue found = 2.491e-02
Small eigenvalue found = 2.646e-02
Small eigenvalue found = 2.837e-02
Small eigenvalue found = 2.984e-02
The first mode is                       ....  325
The number of degrees of freedom        ....  339

    -----------------------------------------------------------------
                    Redundant Internal Coordinates


    -----------------------------------------------------------------
         Definition                    Initial Value    Approx d2E/dq
    -----------------------------------------------------------------
      1. B(C   1,O   0)                  1.2305         1.005278   
      2. B(C   2,C   1)                  1.5368         0.364350   
      3. B(C   3,C   2)                  1.5439         0.354985   
      4. B(C   4,C   3)                  1.5367         0.364514   
      5. B(C   5,C   4)                  1.5330         0.369415   
      6. B(N   6,C   5)                  1.4705         0.416357   
      7. B(N   6,C   2)                  1.4657         0.423732   
      8. B(C   7,N   6)                  1.3535         0.639903   
      9. B(O   8,C   7)                  1.2427         0.961425   
     10. B(N   9,C   1)                  1.3719         0.598094   
     11. B(C  10,N   9)                  1.4572         0.437174   
     12. B(C  11,C  10)                  1.5417         0.357878   
     13. B(N  12,C  11)                  1.3561         0.633719   
     14. B(C  13,N  12)                  1.4630         0.427980   
     15. B(C  14,C  13)                  1.5425         0.356787   
     16. B(N  15,C  14)                  1.3429         0.665416   
     17. B(C  16,N  15)                  1.4577         0.436397   
     18. B(C  17,C  16)                  1.5332         0.369164   
     19. B(C  18,C  17)                  1.5396         0.360656   
     20. B(C  19,C  18)                  1.5494         0.347874   
     21. B(N  20,C  19)                  1.3587         0.627871   
     22. B(C  21,N  20)                  1.4622         0.429181   
     23. B(C  22,C  21)                  1.5443         0.354506   
     24. B(N  23,C  22)                  1.3609         0.622667   
     25. B(C  24,N  23)                  1.4489         0.450660   
     26. B(C  24,C   7)                  1.5246         0.381082   
     27. B(C  25,C  24)                  1.5431         0.356015   
     28. B(O  26,C  22)                  1.2322         0.999270   
     29. B(C  27,C  21)                  1.5365         0.364747   
     30. B(C  28,C  27)                  1.5360         0.365410   
     31. B(C  29,C  28)                  1.5327         0.369894   
     32. B(C  30,C  28)                  1.5326         0.370074   
     33. B(O  31,C  19)                  1.2331         0.995794   
     34. B(C  32,C  18)                  1.5451         0.353420   
     35. B(C  33,C  32)                  1.5076         0.405627   
     36. B(C  34,C  33)                  1.5231         0.383210   
     37. B(C  35,C  34)                  1.5300         0.373574   
     38. B(C  36,C  35)                  1.5302         0.373309   
     39. B(C  37,C  36)                  1.5302         0.373363   
     40. B(C  38,C  37)                  1.5303         0.373126   
     41. B(C  39,C  38)                  1.5302         0.373335   
     42. B(C  40,C  39)                  1.5310         0.372224   
     43. B(C  41,C  40)                  1.5299         0.373723   
     44. B(O  42,C  32)                  1.2199         1.045328   
     45. B(O  43,C  17)                  1.4408         0.464276   
     46. B(O  44,C  14)                  1.2457         0.950869   
     47. B(C  45,C  13)                  1.5260         0.379124   
     48. B(C  46,C  45)                  1.5291         0.374829   
     49. B(O  47,C  11)                  1.2387         0.975408   
     50. B(C  48,C  10)                  1.5579         0.337146   
     51. B(C  49,C  48)                  1.5311         0.372071   
     52. B(C  50,C  48)                  1.5333         0.369025   
     53. B(H  51,C   2)                  1.0964         0.351763   
     54. B(H  52,C   3)                  1.0999         0.347207   
     55. B(H  53,C   3)                  1.0971         0.350880   
     56. B(H  54,C   4)                  1.0970         0.350985   
     57. B(H  55,C   4)                  1.0974         0.350498   
     58. B(H  56,C   5)                  1.0976         0.350182   
     59. B(H  57,C   5)                  1.1026         0.343758   
     60. B(H  58,N   9)                  1.0201         0.416904   
     61. B(H  59,C  10)                  1.0967         0.351289   
     62. B(H  60,N  12)                  1.0183         0.419672   
     63. B(H  61,C  13)                  1.1010         0.345847   
     64. B(H  62,N  15)                  1.0236         0.411572   
     65. B(H  63,C  16)                  1.0937         0.355260   
     66. B(H  64,H  51)                  4.7918         0.000000   
     67. B(H  64,C  16)                  1.0962         0.351935   
     68. B(H  65,C  17)                  1.1045         0.341461   
     69. B(H  66,C  18)                  1.1041         0.341966   
     70. B(H  67,N  20)                  1.0284         0.404422   
     71. B(H  68,C  21)                  1.0962         0.352019   
     72. B(H  69,O  44)                  2.2035         0.005397   
     73. B(H  69,N  23)                  1.0230         0.412498   
     74. B(H  70,C  24)                  1.1016         0.345122   
     75. B(H  71,C  25)                  1.0964         0.351739   
     76. B(H  72,C  25)                  1.0985         0.349072   
     77. B(H  73,C  25)                  1.0986         0.348963   
     78. B(H  74,C  27)                  1.1015         0.345162   
     79. B(H  75,C  27)                  1.1038         0.342350   
     80. B(H  76,C  28)                  1.1041         0.341952   
     81. B(H  77,C  29)                  1.1003         0.346675   
     82. B(H  78,C  29)                  1.0997         0.347463   
     83. B(H  79,C  29)                  1.1020         0.344595   
     84. B(H  80,C  30)                  1.0979         0.349863   
     85. B(H  81,C  30)                  1.1023         0.344134   
     86. B(H  82,C  30)                  1.0999         0.347265   
     87. B(H  83,C  33)                  1.1051         0.340658   
     88. B(H  84,C  33)                  1.1070         0.338342   
     89. B(H  85,C  34)                  1.1016         0.345039   
     90. B(H  86,H  73)                  4.6690         0.000000   
     91. B(H  86,C  34)                  1.1015         0.345250   
     92. B(H  87,C  35)                  1.1042         0.341785   
     93. B(H  88,C  35)                  1.1049         0.340968   
     94. B(H  89,C  36)                  1.1043         0.341651   
     95. B(H  90,C  36)                  1.1041         0.341920   
     96. B(H  91,C  37)                  1.1043         0.341624   
     97. B(H  92,C  37)                  1.1045         0.341402   
     98. B(H  93,C  38)                  1.1045         0.341475   
     99. B(H  94,C  38)                  1.1044         0.341603   
    100. B(H  95,C  39)                  1.1046         0.341349   
    101. B(H  96,C  39)                  1.1046         0.341251   
    102. B(H  97,C  40)                  1.1035         0.342722   
    103. B(H  98,C  40)                  1.1034         0.342787   
    104. B(H  99,C  41)                  1.0995         0.347732   
    105. B(H 100,C  41)                  1.1008         0.346108   
    106. B(H 101,C  41)                  1.1008         0.346148   
    107. B(H 102,O  43)                  0.9727         0.496262   
    108. B(H 103,C  45)                  1.1010         0.345848   
    109. B(H 104,C  45)                  1.1008         0.346035   
    110. B(H 105,C  46)                  1.0983         0.349295   
    111. B(H 106,H  74)                  3.6716         0.000005   
    112. B(H 106,C  46)                  1.0978         0.349904   
    113. B(H 107,C  46)                  1.1005         0.346429   
    114. B(H 108,C  48)                  1.1034         0.342771   
    115. B(H 109,C  49)                  1.0999         0.347226   
    116. B(H 110,C  49)                  1.0996         0.347633   
    117. B(H 111,C  49)                  1.0968         0.351152   
    118. B(H 112,C  50)                  1.1008         0.346082   
    119. B(H 113,C  50)                  1.0997         0.347472   
    120. B(H 114,C  50)                  1.0986         0.348934   
    121. A(O   0,C   1,N   9)          120.6947         0.464575   
    122. A(C   2,C   1,N   9)          118.4848         0.389970   
    123. A(O   0,C   1,C   2)          120.6553         0.427505   
    124. A(C   1,C   2,H  51)          111.3203         0.321754   
    125. A(N   6,C   2,H  51)          108.8952         0.327863   
    126. A(C   1,C   2,N   6)          110.2953         0.367384   
    127. A(C   1,C   2,C   3)          110.6146         0.358670   
    128. A(C   3,C   2,H  51)          112.2572         0.320386   
    129. A(C   3,C   2,N   6)          103.1482         0.365749   
    130. A(C   4,C   3,H  53)          112.9923         0.321645   
    131. A(C   4,C   3,H  52)          110.8699         0.321092   
    132. A(C   2,C   3,C   4)          103.7023         0.358697   
    133. A(C   2,C   3,H  53)          112.1240         0.320254   
    134. A(C   2,C   3,H  52)          109.0009         0.319704   
    135. A(H  52,C   3,H  53)          108.0876         0.288009   
    136. A(H  54,C   4,H  55)          109.0127         0.288448   
    137. A(C   3,C   4,H  55)          112.8658         0.321588   
    138. A(C   3,C   4,C   5)          103.4441         0.361141   
    139. A(C   3,C   4,H  54)          109.5992         0.321661   
    140. A(C   5,C   4,H  55)          112.1702         0.322292   
    141. A(C   5,C   4,H  54)          109.6161         0.322365   
    142. A(H  56,C   5,H  57)          108.2250         0.287470   
    143. A(C   4,C   5,N   6)          103.2297         0.367148   
    144. A(C   4,C   5,H  56)          112.7234         0.322244   
    145. A(N   6,C   5,H  57)          110.4750         0.325680   
    146. A(N   6,C   5,H  56)          110.7271         0.326674   
    147. A(C   4,C   5,H  57)          111.4303         0.321269   
    148. A(C   5,N   6,C   7)          128.4917         0.401386   
    149. A(C   2,N   6,C   7)          118.2304         0.402630   
    150. A(C   2,N   6,C   5)          113.0763         0.373559   
    151. A(O   8,C   7,C  24)          121.5032         0.427528   
    152. A(N   6,C   7,O   8)          120.4935         0.466532   
    153. A(N   6,C   7,C  24)          117.9111         0.397729   
    154. A(C   1,N   9,C  10)          130.7254         0.400061   
    155. A(C  10,N   9,H  58)          116.4613         0.336075   
    156. A(C   1,N   9,H  58)          112.2130         0.354239   
    157. A(C  48,C  10,H  59)          107.6853         0.317631   
    158. A(C  11,C  10,H  59)          105.8947         0.320741   
    159. A(N   9,C  10,C  11)          113.3660         0.368224   
    160. A(N   9,C  10,C  48)          109.5910         0.364478   
    161. A(N   9,C  10,H  59)          108.9279         0.329484   
    162. A(C  11,C  10,C  48)          111.1424         0.354462   
    163. A(N  12,C  11,O  47)          123.2559         0.466936   
    164. A(C  10,C  11,O  47)          120.4846         0.423841   
    165. A(C  10,C  11,N  12)          116.1663         0.392702   
    166. A(C  13,N  12,H  60)          117.1686         0.335258   
    167. A(C  11,N  12,C  13)          121.7022         0.402649   
    168. A(C  11,N  12,H  60)          116.7104         0.358138   
    169. A(C  14,C  13,C  45)          112.2136         0.361419   
    170. A(N  12,C  13,H  61)          106.0785         0.327486   
    171. A(C  14,C  13,H  61)          108.2351         0.319764   
    172. A(N  12,C  13,C  14)          109.1266         0.366692   
    173. A(C  45,C  13,H  61)          110.4385         0.322957   
    174. A(N  12,C  13,C  45)          110.5336         0.370535   
    175. A(C  13,C  14,N  15)          114.9920         0.395864   
    176. A(N  15,C  14,O  44)          123.3188         0.468937   
    177. A(C  13,C  14,O  44)          121.6682         0.421686   
    178. A(C  14,N  15,H  62)          116.7960         0.359930   
    179. A(C  16,N  15,H  62)          120.2314         0.335257   
    180. A(C  14,N  15,C  16)          120.7603         0.407534   
    181. A(H  63,C  16,H  64)          107.2844         0.289180   
    182. A(C  17,C  16,H  64)          110.8180         0.322472   
    183. A(N  15,C  16,H  63)          108.6779         0.330000   
    184. A(C  17,C  16,H  63)          108.9821         0.322969   
    185. A(N  15,C  16,C  17)          111.9204         0.370080   
    186. A(N  15,C  16,H  64)          109.0256         0.329488   
    187. A(O  43,C  17,H  65)          109.0434         0.331220   
    188. A(C  18,C  17,H  65)          107.9174         0.319660   
    189. A(C  16,C  17,H  65)          108.0684         0.320881   
    190. A(C  16,C  17,C  18)          115.1512         0.360444   
    191. A(C  18,C  17,O  43)          110.5636         0.372547   
    192. A(C  16,C  17,O  43)          105.9529         0.374048   
    193. A(C  19,C  18,H  66)          104.1662         0.317861   
    194. A(C  17,C  18,H  66)          106.8891         0.319737   
    195. A(C  17,C  18,C  32)          113.0325         0.357779   
    196. A(C  17,C  18,C  19)          118.2979         0.356819   
    197. A(C  19,C  18,C  32)          106.0371         0.355593   
    198. A(C  32,C  18,H  66)          107.6578         0.318681   
    199. A(C  18,C  19,N  20)          117.3876         0.390127   
    200. A(N  20,C  19,O  31)          123.4848         0.467914   
    201. A(C  18,C  19,O  31)          119.1126         0.423261   
    202. A(C  19,N  20,H  67)          120.8418         0.355333   
    203. A(C  19,N  20,C  21)          120.6875         0.402190   
    204. A(C  21,N  20,H  67)          115.5904         0.333359   
    205. A(C  27,C  21,H  68)          111.2117         0.321849   
    206. A(C  22,C  21,H  68)          104.8969         0.320353   
    207. A(N  20,C  21,H  68)          107.4791         0.328595   
    208. A(N  20,C  21,C  22)          111.1552         0.366465   
    209. A(C  22,C  21,C  27)          112.1211         0.358654   
    210. A(N  20,C  21,C  27)          109.7980         0.368260   
    211. A(C  21,C  22,N  23)          115.0920         0.390848   
    212. A(C  21,C  22,O  26)          121.9496         0.424957   
    213. A(N  23,C  22,O  26)          122.9579         0.467499   
    214. A(C  22,N  23,C  24)          121.5492         0.405075   
    215. A(C  24,N  23,H  69)          116.4915         0.337183   
    216. A(C  22,N  23,H  69)          121.7059         0.356024   
    217. A(C  25,C  24,H  70)          109.0078         0.319541   
    218. A(N  23,C  24,H  70)          108.7624         0.330175   
    219. A(C   7,C  24,H  70)          110.6580         0.323119   
    220. A(N  23,C  24,C  25)          110.9161         0.369819   
    221. A(C   7,C  24,N  23)          107.6286         0.374177   
    222. A(C   7,C  24,C  25)          109.8591         0.361603   
    223. A(H  71,C  25,H  73)          108.8429         0.288346   
    224. A(C  24,C  25,H  73)          110.0868         0.320119   
    225. A(H  71,C  25,H  72)          108.5902         0.288361   
    226. A(C  24,C  25,H  72)          111.5520         0.320135   
    227. A(C  24,C  25,H  71)          108.7240         0.320534   
    228. A(H  72,C  25,H  73)          108.9921         0.288003   
    229. A(C  28,C  27,H  75)          109.3540         0.320481   
    230. A(C  21,C  27,C  28)          114.9769         0.360509   
    231. A(H  74,C  27,H  75)          106.6666         0.286639   
    232. A(C  21,C  27,H  75)          107.6220         0.320386   
    233. A(C  28,C  27,H  74)          109.2531         0.320910   
    234. A(C  21,C  27,H  74)          108.6419         0.320815   
    235. A(C  29,C  28,C  30)          111.2121         0.362154   
    236. A(C  27,C  28,C  30)          112.2978         0.361402   
    237. A(C  27,C  28,C  29)          109.5368         0.361371   
    238. A(C  30,C  28,H  76)          107.7850         0.321086   
    239. A(C  29,C  28,H  76)          107.9758         0.321060   
    240. A(C  27,C  28,H  76)          107.8681         0.320420   
    241. A(C  28,C  29,H  79)          110.7699         0.321465   
    242. A(H  78,C  29,H  79)          107.6432         0.287229   
    243. A(H  77,C  29,H  79)          107.7423         0.287128   
    244. A(H  77,C  29,H  78)          107.9999         0.287500   
    245. A(C  28,C  29,H  78)          111.1170         0.321901   
    246. A(C  28,C  29,H  77)          111.4088         0.321782   
    247. A(H  81,C  30,H  82)          107.6709         0.287144   
    248. A(H  80,C  30,H  82)          107.6234         0.287886   
    249. A(C  28,C  30,H  82)          110.7076         0.321897   
    250. A(H  80,C  30,H  81)          108.5623         0.287478   
    251. A(C  28,C  30,H  81)          110.6955         0.321420   
    252. A(C  28,C  30,H  80)          111.4429         0.322290   
    253. A(C  33,C  32,O  42)          123.2134         0.438909   
    254. A(C  18,C  32,O  42)          121.0301         0.428166   
    255. A(C  18,C  32,C  33)          115.7366         0.365024   
    256. A(C  32,C  33,C  34)          114.7538         0.370127   
    257. A(C  34,C  33,H  84)          111.4459         0.322364   
    258. A(H  83,C  33,H  84)          105.3296         0.285528   
    259. A(C  32,C  33,H  84)          107.0021         0.325386   
    260. A(C  34,C  33,H  83)          111.8016         0.322724   
    261. A(C  32,C  33,H  83)          105.8907         0.325751   
    262. A(C  33,C  34,C  35)          112.6810         0.364937   
    263. A(H  85,C  34,H  86)          105.7711         0.287001   
    264. A(C  35,C  34,H  86)          109.8986         0.322086   
    265. A(C  33,C  34,H  86)          108.8279         0.323434   
    266. A(C  35,C  34,H  85)          110.0439         0.322054   
    267. A(C  33,C  34,H  85)          109.3772         0.323401   
    268. A(C  34,C  35,C  36)          113.2446         0.363307   
    269. A(H  87,C  35,H  88)          105.9204         0.286019   
    270. A(C  36,C  35,H  88)          109.2221         0.321392   
    271. A(C  34,C  35,H  88)          109.5020         0.321429   
    272. A(C  36,C  35,H  87)          109.2662         0.321518   
    273. A(C  34,C  35,H  87)          109.4236         0.321555   
    274. A(C  35,C  36,C  37)          113.4928         0.363272   
    275. A(H  89,C  36,H  90)          105.9087         0.286126   
    276. A(C  37,C  36,H  90)          109.3319         0.321546   
    277. A(C  35,C  36,H  90)          109.2077         0.321538   
    278. A(C  37,C  36,H  89)          109.3421         0.321505   
    279. A(C  35,C  36,H  89)          109.2786         0.321497   
    280. A(C  36,C  37,C  38)          113.5524         0.363242   
    281. A(H  91,C  37,H  92)          105.8930         0.286055   
    282. A(C  38,C  37,H  92)          109.2686         0.321433   
    283. A(C  36,C  37,H  92)          109.2886         0.321466   
    284. A(C  38,C  37,H  91)          109.2782         0.321467   
    285. A(C  36,C  37,H  91)          109.2761         0.321500   
    286. A(C  37,C  38,C  39)          113.5492         0.363237   
    287. A(H  93,C  38,H  94)          105.8873         0.286062   
    288. A(C  39,C  38,H  94)          109.2865         0.321493   
    289. A(C  37,C  38,H  94)          109.2686         0.321464   
    290. A(C  39,C  38,H  93)          109.2869         0.321473   
    291. A(C  37,C  38,H  93)          109.2780         0.321444   
    292. A(C  38,C  39,C  40)          113.6151         0.363087   
    293. A(H  95,C  39,H  96)          105.8544         0.285999   
    294. A(C  40,C  39,H  96)          109.2343         0.321282   
    295. A(C  38,C  39,H  96)          109.3035         0.321439   
    296. A(C  40,C  39,H  95)          109.2353         0.321297   
    297. A(C  38,C  39,H  95)          109.3070         0.321454   
    298. A(C  39,C  40,C  41)          113.1431         0.363151   
    299. A(H  97,C  40,H  98)          105.9318         0.286379   
    300. A(C  41,C  40,H  98)          109.6293         0.321730   
    301. A(C  39,C  40,H  98)          109.1229         0.321518   
    302. A(C  41,C  40,H  97)          109.6345         0.321720   
    303. A(C  39,C  40,H  97)          109.1233         0.321508   
    304. A(H 100,C  41,H 101)          107.4332         0.287256   
    305. A(H  99,C  41,H 101)          107.6876         0.287466   
    306. A(C  40,C  41,H 101)          111.0815         0.322245   
    307. A(H  99,C  41,H 100)          107.6928         0.287461   
    308. A(C  40,C  41,H 100)          111.0809         0.322238   
    309. A(C  40,C  41,H  99)          111.6723         0.322486   
    310. A(C  17,O  43,H 102)          108.0411         0.349537   
    311. A(C  13,C  45,C  46)          112.6585         0.364477   
    312. A(C  46,C  45,H 104)          110.3303         0.322383   
    313. A(C  13,C  45,H 104)          107.6822         0.322986   
    314. A(C  46,C  45,H 103)          109.8076         0.322355   
    315. A(C  13,C  45,H 103)          108.6252         0.322957   
    316. A(H 103,C  45,H 104)          107.5796         0.287208   
    317. A(H 106,C  46,H 107)          108.3726         0.287783   
    318. A(H 105,C  46,H 107)          107.7217         0.287704   
    319. A(C  45,C  46,H 107)          111.1867         0.322444   
    320. A(H 105,C  46,H 106)          107.7699         0.288153   
    321. A(C  45,C  46,H 106)          110.9216         0.322971   
    322. A(C  45,C  46,H 105)          110.7334         0.322879   
    323. A(C  50,C  48,H 108)          108.3759         0.321062   
    324. A(C  49,C  48,H 108)          108.1530         0.321494   
    325. A(C  10,C  48,H 108)          104.2395         0.316365   
    326. A(C  49,C  48,C  50)          111.2385         0.362342   
    327. A(C  10,C  48,C  50)          112.0758         0.356311   
    328. A(C  10,C  48,C  49)          112.3707         0.356809   
    329. A(H 110,C  49,H 111)          108.7888         0.288099   
    330. A(H 109,C  49,H 111)          107.7919         0.288046   
    331. A(C  48,C  49,H 111)          111.0823         0.322769   
    332. A(H 109,C  49,H 110)          107.9309         0.287593   
    333. A(C  48,C  49,H 110)          109.9518         0.322237   
    334. A(C  48,C  49,H 109)          111.1948         0.322175   
    335. A(H 113,C  50,H 114)          107.7759         0.287793   
    336. A(H 112,C  50,H 114)          107.0895         0.287613   
    337. A(C  48,C  50,H 114)          110.2071         0.322000   
    338. A(H 112,C  50,H 113)          107.8596         0.287424   
    339. A(C  48,C  50,H 113)          110.8261         0.321779   
    340. A(C  48,C  50,H 112)          112.8755         0.321568   
    341. D(H  51,C   2,C   1,N   9)     13.6778         0.009964   
    342. D(C   3,C   2,C   1,N   9)   -111.8587         0.009964   
    343. D(N   6,C   2,C   1,N   9)    134.6736         0.009964   
    344. D(N   6,C   2,C   1,O   0)    -49.9640         0.009964   
    345. D(C   3,C   2,C   1,O   0)     63.5036         0.009964   
    346. D(H  51,C   2,C   1,O   0)   -170.9599         0.009964   
    347. D(C   4,C   3,C   2,N   6)     28.5055         0.010131   
    348. D(H  53,C   3,C   2,H  51)    -92.2172         0.010131   
    349. D(H  53,C   3,C   2,C   1)     32.7898         0.010131   
    350. D(C   4,C   3,C   2,H  51)    145.5658         0.010131   
    351. D(H  53,C   3,C   2,N   6)    150.7225         0.010131   
    352. D(H  52,C   3,C   2,H  51)     27.4165         0.010131   
    353. D(C   4,C   3,C   2,C   1)    -89.4272         0.010131   
    354. D(H  52,C   3,C   2,C   1)    152.4235         0.010131   
    355. D(H  52,C   3,C   2,N   6)    -89.6438         0.010131   
    356. D(H  55,C   4,C   3,H  53)     79.9641         0.010642   
    357. D(H  55,C   4,C   3,H  52)    -41.5508         0.010642   
    358. D(H  54,C   4,C   3,H  52)   -163.2504         0.010642   
    359. D(H  55,C   4,C   3,C   2)   -158.3978         0.010642   
    360. D(H  54,C   4,C   3,H  53)    -41.7355         0.010642   
    361. D(C   5,C   4,C   3,C   2)    -36.9387         0.010642   
    362. D(H  54,C   4,C   3,C   2)     79.9026         0.010642   
    363. D(C   5,C   4,C   3,H  53)   -158.5768         0.010642   
    364. D(C   5,C   4,C   3,H  52)     79.9083         0.010642   
    365. D(N   6,C   5,C   4,C   3)     30.6703         0.010911   
    366. D(H  57,C   5,C   4,C   3)    -87.9042         0.010911   
    367. D(H  56,C   5,C   4,H  55)    -87.8908         0.010911   
    368. D(H  56,C   5,C   4,C   3)    150.1830         0.010911   
    369. D(H  57,C   5,C   4,H  54)    155.2664         0.010911   
    370. D(H  56,C   5,C   4,H  54)     33.3536         0.010911   
    371. D(H  57,C   5,C   4,H  55)     34.0220         0.010911   
    372. D(N   6,C   5,C   4,H  54)    -86.1591         0.010911   
    373. D(N   6,C   5,C   4,H  55)    152.5965         0.010911   
    374. D(C   5,N   6,C   2,C   3)     -9.5764         0.015309   
    375. D(C   7,N   6,C   5,H  57)    -79.4005         0.014784   
    376. D(C   7,N   6,C   5,H  56)     40.4829         0.014784   
    377. D(C   7,N   6,C   5,C   4)    161.3626         0.014784   
    378. D(C   2,N   6,C   5,H  57)    105.9163         0.014784   
    379. D(C   2,N   6,C   5,H  56)   -134.2003         0.014784   
    380. D(C   7,N   6,C   2,H  51)     55.7345         0.015309   
    381. D(C   2,N   6,C   5,C   4)    -13.3207         0.014784   
    382. D(C   7,N   6,C   2,C   3)    175.1454         0.015309   
    383. D(C   5,N   6,C   2,C   1)    108.5799         0.015309   
    384. D(C   7,N   6,C   2,C   1)    -66.6983         0.015309   
    385. D(C   5,N   6,C   2,H  51)   -128.9873         0.015309   
    386. D(C  24,C   7,N   6,C   5)     10.3658         0.033328   
    387. D(C  24,C   7,N   6,C   2)   -175.1867         0.033328   
    388. D(O   8,C   7,N   6,C   5)   -173.0735         0.033328   
    389. D(O   8,C   7,N   6,C   2)      1.3741         0.033328   
    390. D(H  58,N   9,C   1,O   0)     -2.6150         0.028811   
    391. D(C  10,N   9,C   1,C   2)    -16.6211         0.028811   
    392. D(H  58,N   9,C   1,C   2)    172.7454         0.028811   
    393. D(C  10,N   9,C   1,O   0)    168.0184         0.028811   
    394. D(H  59,C  10,N   9,C   1)     24.7036         0.016296   
    395. D(C  48,C  10,N   9,H  58)    -47.4089         0.016296   
    396. D(C  48,C  10,N   9,C   1)    142.2803         0.016296   
    397. D(C  11,C  10,N   9,C   1)    -92.9125         0.016296   
    398. D(H  59,C  10,N   9,H  58)   -164.9857         0.016296   
    399. D(C  11,C  10,N   9,H  58)     77.3983         0.016296   
    400. D(O  47,C  11,C  10,N   9)    173.8238         0.009640   
    401. D(N  12,C  11,C  10,H  59)   -128.9442         0.009640   
    402. D(N  12,C  11,C  10,C  48)    114.3902         0.009640   
    403. D(N  12,C  11,C  10,N   9)     -9.5754         0.009640   
    404. D(O  47,C  11,C  10,H  59)     54.4550         0.009640   
    405. D(O  47,C  11,C  10,C  48)    -62.2106         0.009640   
    406. D(H  60,N  12,C  11,O  47)   -159.7284         0.032634   
    407. D(H  60,N  12,C  11,C  10)     23.7747         0.032634   
    408. D(C  13,N  12,C  11,O  47)     -4.0018         0.032634   
    409. D(C  13,N  12,C  11,C  10)    179.5012         0.032634   
    410. D(H  61,C  13,N  12,C  11)     36.2222         0.015616   
    411. D(H  61,C  13,N  12,H  60)   -168.1565         0.015616   
    412. D(C  45,C  13,N  12,H  60)    -48.4188         0.015616   
    413. D(C  45,C  13,N  12,C  11)    155.9599         0.015616   
    414. D(C  14,C  13,N  12,C  11)    -80.1782         0.015616   
    415. D(C  14,C  13,N  12,H  60)     75.4431         0.015616   
    416. D(O  44,C  14,C  13,C  45)     19.9347         0.009586   
    417. D(O  44,C  14,C  13,N  12)   -102.9286         0.009586   
    418. D(N  15,C  14,C  13,H  61)    -39.5607         0.009586   
    419. D(N  15,C  14,C  13,C  45)   -161.6800         0.009586   
    420. D(O  44,C  14,C  13,H  61)    142.0540         0.009586   
    421. D(N  15,C  14,C  13,N  12)     75.4567         0.009586   
    422. D(H  62,N  15,C  14,O  44)    171.8250         0.036287   
    423. D(H  62,N  15,C  14,C  13)     -6.5303         0.036287   
    424. D(C  16,N  15,C  14,O  44)      8.6871         0.036287   
    425. D(C  16,N  15,C  14,C  13)   -169.6683         0.036287   
    426. D(H  64,C  16,N  15,H  62)   -119.2362         0.016238   
    427. D(H  64,C  16,N  15,C  14)     43.3257         0.016238   
    428. D(H  63,C  16,N  15,H  62)     -2.5999         0.016238   
    429. D(H  63,C  16,N  15,C  14)    159.9619         0.016238   
    430. D(C  17,C  16,N  15,C  14)    -79.6304         0.016238   
    431. D(C  17,C  16,N  15,H  62)    117.8077         0.016238   
    432. D(H  65,C  17,C  16,H  64)    -86.8112         0.010897   
    433. D(H  65,C  17,C  16,H  63)    155.3532         0.010897   
    434. D(H  65,C  17,C  16,N  15)     35.1230         0.010897   
    435. D(O  43,C  17,C  16,H  64)    156.4313         0.010897   
    436. D(O  43,C  17,C  16,H  63)     38.5957         0.010897   
    437. D(O  43,C  17,C  16,N  15)    -81.6345         0.010897   
    438. D(C  18,C  17,C  16,H  64)     33.8977         0.010897   
    439. D(C  18,C  17,C  16,H  63)    -83.9380         0.010897   
    440. D(C  18,C  17,C  16,N  15)    155.8318         0.010897   
    441. D(H  66,C  18,C  17,H  65)    -66.0865         0.010433   
    442. D(H  66,C  18,C  17,O  43)     53.0930         0.010433   
    443. D(H  66,C  18,C  17,C  16)    173.1222         0.010433   
    444. D(C  32,C  18,C  17,O  43)    -65.1715         0.010433   
    445. D(C  32,C  18,C  17,C  16)     54.8577         0.010433   
    446. D(C  32,C  18,C  17,H  65)    175.6489         0.010433   
    447. D(C  19,C  18,C  17,H  65)     50.9106         0.010433   
    448. D(C  19,C  18,C  17,O  43)    170.0902         0.010433   
    449. D(C  19,C  18,C  17,C  16)    -69.8807         0.010433   
    450. D(O  31,C  19,C  18,H  66)    -69.4593         0.009154   
    451. D(O  31,C  19,C  18,C  32)     43.9981         0.009154   
    452. D(O  31,C  19,C  18,C  17)    172.1034         0.009154   
    453. D(N  20,C  19,C  18,H  66)    109.1829         0.009154   
    454. D(N  20,C  19,C  18,C  17)     -9.2544         0.009154   
    455. D(N  20,C  19,C  18,C  32)   -137.3597         0.009154   
    456. D(H  67,N  20,C  19,O  31)   -171.6771         0.031986   
    457. D(H  67,N  20,C  19,C  18)      9.7452         0.031986   
    458. D(C  21,N  20,C  19,O  31)    -11.7331         0.031986   
    459. D(C  21,N  20,C  19,C  18)    169.6892         0.031986   
    460. D(H  68,C  21,N  20,H  67)   -164.6470         0.015704   
    461. D(H  68,C  21,N  20,C  19)     34.4075         0.015704   
    462. D(C  27,C  21,N  20,H  67)    -43.5480         0.015704   
    463. D(C  27,C  21,N  20,C  19)    155.5065         0.015704   
    464. D(C  22,C  21,N  20,H  67)     81.0941         0.015704   
    465. D(C  22,C  21,N  20,C  19)    -79.8514         0.015704   
    466. D(N  23,C  22,C  21,C  27)     80.7885         0.009475   
    467. D(N  23,C  22,C  21,N  20)    -42.5333         0.009475   
    468. D(O  26,C  22,C  21,H  68)     21.3488         0.009475   
    469. D(O  26,C  22,C  21,C  27)    -99.4673         0.009475   
    470. D(O  26,C  22,C  21,N  20)    137.2110         0.009475   
    471. D(N  23,C  22,C  21,H  68)   -158.3955         0.009475   
    472. D(H  69,N  23,C  22,O  26)    175.6059         0.031416   
    473. D(H  69,N  23,C  22,C  21)     -4.6527         0.031416   
    474. D(C  24,N  23,C  22,O  26)    -10.3811         0.031416   
    475. D(C  24,N  23,C  22,C  21)    169.3603         0.031416   
    476. D(H  70,C  24,N  23,H  69)   -135.6279         0.017326   
    477. D(H  70,C  24,N  23,C  22)     50.0622         0.017326   
    478. D(C  25,C  24,N  23,H  69)    104.5000         0.017326   
    479. D(C  25,C  24,N  23,C  22)    -69.8100         0.017326   
    480. D(C   7,C  24,N  23,H  69)    -15.7012         0.017326   
    481. D(C   7,C  24,N  23,C  22)    169.9889         0.017326   
    482. D(H  70,C  24,C   7,O   8)    138.6944         0.010833   
    483. D(H  70,C  24,C   7,N   6)    -44.7815         0.010833   
    484. D(C  25,C  24,C   7,O   8)   -100.8903         0.010833   
    485. D(C  25,C  24,C   7,N   6)     75.6338         0.010833   
    486. D(N  23,C  24,C   7,O   8)     19.9769         0.010833   
    487. D(N  23,C  24,C   7,N   6)   -163.4990         0.010833   
    488. D(H  73,C  25,C  24,H  70)   -179.5105         0.010185   
    489. D(H  73,C  25,C  24,N  23)    -59.7849         0.010185   
    490. D(H  73,C  25,C  24,C   7)     59.0802         0.010185   
    491. D(H  72,C  25,C  24,H  70)     59.3586         0.010185   
    492. D(H  72,C  25,C  24,N  23)    179.0841         0.010185   
    493. D(H  72,C  25,C  24,C   7)    -62.0507         0.010185   
    494. D(H  71,C  25,C  24,H  70)    -60.3630         0.010185   
    495. D(H  71,C  25,C  24,N  23)     59.3625         0.010185   
    496. D(H  71,C  25,C  24,C   7)    178.2277         0.010185   
    497. D(H  75,C  27,C  21,H  68)     56.6915         0.010655   
    498. D(H  75,C  27,C  21,C  22)    173.7845         0.010655   
    499. D(H  75,C  27,C  21,N  20)    -62.1338         0.010655   
    500. D(H  74,C  27,C  21,H  68)    171.8258         0.010655   
    501. D(H  74,C  27,C  21,C  22)    -71.0811         0.010655   
    502. D(H  74,C  27,C  21,N  20)     53.0006         0.010655   
    503. D(C  28,C  27,C  21,H  68)    -65.4192         0.010655   
    504. D(C  28,C  27,C  21,C  22)     51.6738         0.010655   
    505. D(C  28,C  27,C  21,N  20)    175.7555         0.010655   
    506. D(H  76,C  28,C  27,H  75)    179.1876         0.010691   
    507. D(H  76,C  28,C  27,H  74)     62.7852         0.010691   
    508. D(H  76,C  28,C  27,C  21)    -59.6415         0.010691   
    509. D(C  30,C  28,C  27,H  75)    -62.1881         0.010691   
    510. D(C  30,C  28,C  27,H  74)   -178.5905         0.010691   
    511. D(C  30,C  28,C  27,C  21)     58.9827         0.010691   
    512. D(C  29,C  28,C  27,H  75)     61.9001         0.010691   
    513. D(C  29,C  28,C  27,H  74)    -54.5023         0.010691   
    514. D(C  29,C  28,C  27,C  21)   -176.9291         0.010691   
    515. D(H  79,C  29,C  28,C  30)     61.4214         0.010938   
    516. D(H  79,C  29,C  28,C  27)    -63.2995         0.010938   
    517. D(H  78,C  29,C  28,H  76)     59.8790         0.010938   
    518. D(H  78,C  29,C  28,C  30)    -58.1801         0.010938   
    519. D(H  78,C  29,C  28,C  27)    177.0990         0.010938   
    520. D(H  77,C  29,C  28,H  76)    -60.6007         0.010938   
    521. D(H  77,C  29,C  28,C  30)   -178.6599         0.010938   
    522. D(H  79,C  29,C  28,H  76)    179.4805         0.010938   
    523. D(H  77,C  29,C  28,C  27)     56.6192         0.010938   
    524. D(H  82,C  30,C  28,H  76)    -64.9686         0.010948   
    525. D(H  82,C  30,C  28,C  29)     53.2058         0.010948   
    526. D(H  82,C  30,C  28,C  27)    176.3582         0.010948   
    527. D(H  81,C  30,C  28,H  76)    175.7101         0.010948   
    528. D(H  81,C  30,C  28,C  29)    -66.1155         0.010948   
    529. D(H  81,C  30,C  28,C  27)     57.0369         0.010948   
    530. D(H  80,C  30,C  28,H  76)     54.7809         0.010948   
    531. D(H  80,C  30,C  28,C  29)    172.9553         0.010948   
    532. D(H  80,C  30,C  28,C  27)    -63.8922         0.010948   
    533. D(O  42,C  32,C  18,H  66)   -165.1894         0.009422   
    534. D(O  42,C  32,C  18,C  19)     83.7879         0.009422   
    535. D(O  42,C  32,C  18,C  17)    -47.3737         0.009422   
    536. D(C  33,C  32,C  18,H  66)     16.3870         0.009422   
    537. D(C  33,C  32,C  18,C  19)    -94.6357         0.009422   
    538. D(C  33,C  32,C  18,C  17)    134.2027         0.009422   
    539. D(H  84,C  33,C  32,O  42)    120.6200         0.012196   
    540. D(H  84,C  33,C  32,C  18)    -60.9946         0.012196   
    541. D(H  83,C  33,C  32,O  42)   -127.3875         0.012196   
    542. D(H  83,C  33,C  32,C  18)     50.9980         0.012196   
    543. D(C  34,C  33,C  32,O  42)     -3.5744         0.012196   
    544. D(C  34,C  33,C  32,C  18)    174.8110         0.012196   
    545. D(H  86,C  34,C  33,H  84)   -179.9370         0.011694   
    546. D(H  86,C  34,C  33,H  83)     62.4791         0.011694   
    547. D(H  86,C  34,C  33,C  32)    -58.1295         0.011694   
    548. D(H  85,C  34,C  33,H  84)    -64.8290         0.011694   
    549. D(H  85,C  34,C  33,H  83)    177.5871         0.011694   
    550. D(H  85,C  34,C  33,C  32)     56.9785         0.011694   
    551. D(C  35,C  34,C  33,H  84)     57.9063         0.011694   
    552. D(C  35,C  34,C  33,H  83)    -59.6776         0.011694   
    553. D(C  35,C  34,C  33,C  32)    179.7138         0.011694   
    554. D(H  88,C  35,C  34,H  86)   -179.8530         0.011144   
    555. D(H  88,C  35,C  34,H  85)     64.0591         0.011144   
    556. D(H  88,C  35,C  34,C  33)    -58.3019         0.011144   
    557. D(H  87,C  35,C  34,H  86)    -64.1669         0.011144   
    558. D(H  87,C  35,C  34,H  85)    179.7453         0.011144   
    559. D(H  87,C  35,C  34,C  33)     57.3842         0.011144   
    560. D(C  36,C  35,C  34,H  86)     57.9898         0.011144   
    561. D(C  36,C  35,C  34,H  85)    -58.0980         0.011144   
    562. D(C  36,C  35,C  34,C  33)    179.5409         0.011144   
    563. D(H  90,C  36,C  35,H  87)     64.3914         0.011129   
    564. D(H  90,C  36,C  35,C  34)    -57.8531         0.011129   
    565. D(H  89,C  36,C  35,H  88)    -64.7390         0.011129   
    566. D(H  89,C  36,C  35,H  87)    179.8186         0.011129   
    567. D(H  89,C  36,C  35,C  34)     57.5741         0.011129   
    568. D(C  37,C  36,C  35,H  88)     57.5801         0.011129   
    569. D(C  37,C  36,C  35,H  87)    -57.8624         0.011129   
    570. D(H  90,C  36,C  35,H  88)    179.8338         0.011129   
    571. D(C  37,C  36,C  35,C  34)    179.8931         0.011129   
    572. D(H  92,C  37,C  36,H  90)   -179.9367         0.011132   
    573. D(H  92,C  37,C  36,H  89)     64.5320         0.011132   
    574. D(H  92,C  37,C  36,C  35)    -57.7518         0.011132   
    575. D(H  91,C  37,C  36,H  90)    -64.4849         0.011132   
    576. D(H  91,C  37,C  36,H  89)    179.9838         0.011132   
    577. D(H  91,C  37,C  36,C  35)     57.7000         0.011132   
    578. D(C  38,C  37,C  36,H  90)     57.7908         0.011132   
    579. D(C  38,C  37,C  36,H  89)    -57.7405         0.011132   
    580. D(C  38,C  37,C  36,C  35)    179.9757         0.011132   
    581. D(H  94,C  38,C  37,H  92)    179.9191         0.011118   
    582. D(H  94,C  38,C  37,H  91)     64.4772         0.011118   
    583. D(H  94,C  38,C  37,C  36)    -57.7973         0.011118   
    584. D(H  93,C  38,C  37,H  92)    -64.6458         0.011118   
    585. D(H  93,C  38,C  37,H  91)    179.9123         0.011118   
    586. D(H  93,C  38,C  37,C  36)     57.6378         0.011118   
    587. D(C  39,C  38,C  37,H  92)     57.6405         0.011118   
    588. D(C  39,C  38,C  37,H  91)    -57.8014         0.011118   
    589. D(C  39,C  38,C  37,C  36)    179.9241         0.011118   
    590. D(H  95,C  39,C  38,H  94)    -64.5139         0.011130   
    591. D(H  95,C  39,C  38,H  93)   -179.9638         0.011130   
    592. D(H  95,C  39,C  38,C  37)     57.7549         0.011130   
    593. D(C  40,C  39,C  38,H  94)     57.7725         0.011130   
    594. D(C  40,C  39,C  38,H  93)    -57.6774         0.011130   
    595. D(C  40,C  39,C  38,C  37)   -179.9587         0.011130   
    596. D(H  96,C  39,C  38,H  94)   -179.9450         0.011130   
    597. D(H  96,C  39,C  38,H  93)     64.6051         0.011130   
    598. D(H  96,C  39,C  38,C  37)    -57.6762         0.011130   
    599. D(H  98,C  40,C  39,H  95)     64.6296         0.011068   
    600. D(H  98,C  40,C  39,C  38)    -57.6964         0.011068   
    601. D(H  97,C  40,C  39,H  96)    -64.6945         0.011068   
    602. D(H  97,C  40,C  39,H  95)    179.9524         0.011068   
    603. D(H  97,C  40,C  39,C  38)     57.6264         0.011068   
    604. D(C  41,C  40,C  39,H  96)     57.6476         0.011068   
    605. D(C  41,C  40,C  39,H  95)    -57.7055         0.011068   
    606. D(H  98,C  40,C  39,H  96)    179.9828         0.011068   
    607. D(C  41,C  40,C  39,C  38)    179.9685         0.011068   
    608. D(H 101,C  41,C  40,H  98)    -62.2694         0.011152   
    609. D(H 101,C  41,C  40,H  97)   -178.1605         0.011152   
    610. D(H 101,C  41,C  40,C  39)     59.7829         0.011152   
    611. D(H 100,C  41,C  40,H  98)    178.2113         0.011152   
    612. D(H 100,C  41,C  40,H  97)     62.3201         0.011152   
    613. D(H 100,C  41,C  40,C  39)    -59.7364         0.011152   
    614. D(H  99,C  41,C  40,H  98)     57.9679         0.011152   
    615. D(H  99,C  41,C  40,H  97)    -57.9233         0.011152   
    616. D(H  99,C  41,C  40,C  39)   -179.9799         0.011152   
    617. D(H 102,O  43,C  17,H  65)     49.2617         0.016985   
    618. D(H 102,O  43,C  17,C  18)    -69.2344         0.016985   
    619. D(H 102,O  43,C  17,C  16)    165.3606         0.016985   
    620. D(H 104,C  45,C  13,H  61)     68.0599         0.011458   
    621. D(H 104,C  45,C  13,C  14)   -171.0833         0.011458   
    622. D(H 104,C  45,C  13,N  12)    -49.0175         0.011458   
    623. D(H 103,C  45,C  13,H  61)   -175.7104         0.011458   
    624. D(H 103,C  45,C  13,C  14)    -54.8536         0.011458   
    625. D(H 103,C  45,C  13,N  12)     67.2122         0.011458   
    626. D(C  46,C  45,C  13,H  61)    -53.8271         0.011458   
    627. D(C  46,C  45,C  13,C  14)     67.0297         0.011458   
    628. D(C  46,C  45,C  13,N  12)   -170.9045         0.011458   
    629. D(H 107,C  46,C  45,H 104)    -61.7360         0.011214   
    630. D(H 107,C  46,C  45,H 103)    179.8526         0.011214   
    631. D(H 107,C  46,C  45,C  13)     58.6405         0.011214   
    632. D(H 106,C  46,C  45,H 104)    177.5945         0.011214   
    633. D(H 106,C  46,C  45,H 103)     59.1831         0.011214   
    634. D(H 106,C  46,C  45,C  13)    -62.0290         0.011214   
    635. D(H 105,C  46,C  45,H 104)     57.9857         0.011214   
    636. D(H 105,C  46,C  45,H 103)    -60.4256         0.011214   
    637. D(H 105,C  46,C  45,C  13)    178.3623         0.011214   
    638. D(H 108,C  48,C  10,H  59)     74.4355         0.009218   
    639. D(H 108,C  48,C  10,C  11)   -170.0011         0.009218   
    640. D(H 108,C  48,C  10,N   9)    -43.9156         0.009218   
    641. D(C  50,C  48,C  10,H  59)   -168.5706         0.009218   
    642. D(C  50,C  48,C  10,C  11)    -53.0072         0.009218   
    643. D(C  50,C  48,C  10,N   9)     73.0783         0.009218   
    644. D(C  49,C  48,C  10,H  59)    -42.4389         0.009218   
    645. D(C  49,C  48,C  10,C  11)     73.1245         0.009218   
    646. D(C  49,C  48,C  10,N   9)   -160.7900         0.009218   
    647. D(H 111,C  49,C  48,C  50)     62.2216         0.011059   
    648. D(H 111,C  49,C  48,C  10)    -64.3618         0.011059   
    649. D(H 110,C  49,C  48,H 108)     60.6511         0.011059   
    650. D(H 110,C  49,C  48,C  50)    -58.2543         0.011059   
    651. D(H 110,C  49,C  48,C  10)    175.1623         0.011059   
    652. D(H 109,C  49,C  48,H 108)    -58.8248         0.011059   
    653. D(H 109,C  49,C  48,C  50)   -177.7302         0.011059   
    654. D(H 111,C  49,C  48,H 108)   -178.8730         0.011059   
    655. D(H 109,C  49,C  48,C  10)     55.6864         0.011059   
    656. D(H 114,C  50,C  48,H 108)    -59.1455         0.010890   
    657. D(H 114,C  50,C  48,C  49)     59.6263         0.010890   
    658. D(H 114,C  50,C  48,C  10)   -173.6285         0.010890   
    659. D(H 113,C  50,C  48,H 108)   -178.3591         0.010890   
    660. D(H 113,C  50,C  48,C  49)    -59.5873         0.010890   
    661. D(H 113,C  50,C  48,C  10)     67.1579         0.010890   
    662. D(H 112,C  50,C  48,H 108)     60.5349         0.010890   
    663. D(H 112,C  50,C  48,C  49)    179.3067         0.010890   
    664. D(H 112,C  50,C  48,C  10)    -53.9481         0.010890   
    -----------------------------------------------------------------

Number of atoms                         .... 115
Number of degrees of freedom            .... 664

         *************************************************************
         *                GEOMETRY OPTIMIZATION CYCLE   1            *
         *************************************************************
---------------------------------
CARTESIAN COORDINATES (ANGSTROEM)
---------------------------------
  O      6.557845    0.507648    1.801801
  C      6.135217   -0.285590    0.961334
  C      5.603778    0.214882   -0.391024
  C      6.728229    0.900156   -1.197013
  C      6.651120    2.369216   -0.752815
  C      5.146613    2.613285   -0.588127
  N      4.633581    1.294587   -0.187925
  C      3.458586    0.994787    0.413290
  O      3.226922   -0.162162    0.803232
  N      6.217472   -1.638746    1.171771
  C      5.598583   -2.750671    0.461807
  C      4.256320   -3.196562    1.075243
  N      3.937512   -2.652691    2.275944
  C      2.688134   -2.982527    2.961950
  C      1.539757   -2.158146    2.344713
  N      1.114730   -2.586772    1.145176
  C      0.198354   -1.781318    0.347457
  C     -1.251043   -1.918061    0.828449
  C     -2.170926   -0.734020    0.478922
  C     -1.938584    0.615520    1.203771
  N     -1.063603    0.624177    2.243147
  C     -0.618698    1.885735    2.833604
  C      0.490455    2.539607    1.980975
  N      1.439430    1.683400    1.513553
  C      2.410215    2.096513    0.520414
  C      1.736871    2.314507   -0.850812
  O      0.502864    3.748578    1.743322
  C     -0.170917    1.651861    4.284692
  C      0.417428    2.883886    4.988473
  C      0.890733    2.494409    6.393267
  C     -0.573368    4.051918    5.041128
  O     -2.565182    1.610992    0.833647
  C     -2.190876   -0.409360   -1.031549
  C     -3.553735   -0.179945   -1.633894
  C     -3.540732    0.259371   -3.092170
  C     -4.946748    0.471603   -3.656952
  C     -4.948427    0.924170   -5.118688
  C     -6.352026    1.135660   -5.690136
  C     -6.355281    1.588870   -7.151810
  C     -7.758975    1.798566   -7.723741
  C     -7.764013    2.251041   -9.186328
  C     -9.172427    2.456641   -9.747282
  O     -1.154785   -0.319858   -1.669257
  O     -1.749482   -3.136332    0.242470
  O      1.075129   -1.153651    2.916414
  C      2.824089   -2.748218    4.463699
  C      1.629462   -3.283481    5.253932
  O      3.561763   -4.053676    0.511820
  C      6.601173   -3.940229    0.378696
  C      6.231035   -4.938502   -0.721626
  C      6.775155   -4.642772    1.730466
  H      5.122652   -0.593508   -0.954109
  H      6.509370    0.803402   -2.270593
  H      7.708575    0.445902   -1.006964
  H      7.151620    2.487409    0.216149
  H      7.105594    3.057860   -1.476290
  H      4.920604    3.366705    0.177385
  H      4.684598    2.935448   -1.536058
  H      6.689701   -1.864884    2.047284
  H      5.370208   -2.435165   -0.563447
  H      4.371468   -1.760086    2.503825
  H      2.498220   -4.047001    2.754553
  H      1.649763   -3.342684    0.709104
  H      0.259924   -2.109014   -0.694162
  H      0.522292   -0.734514    0.379269
  H     -1.238501   -2.025666    1.927590
  H     -3.194568   -1.025604    0.772344
  H     -0.469035   -0.191848    2.438607
  H     -1.460436    2.586340    2.786305
  H      1.448020    0.694782    1.776482
  H      2.871748    3.041640    0.847779
  H      0.965792    3.086790   -0.745466
  H      2.461129    2.643797   -1.608208
  H      1.262632    1.383636   -1.190507
  H      0.570786    0.837558    4.297408
  H     -1.047061    1.290890    4.850694
  H      1.298674    3.214937    4.411588
  H      1.620416    1.671586    6.357511
  H      1.364145    3.346562    6.902296
  H      0.042201    2.164034    7.013918
  H     -0.819224    4.415336    4.034769
  H     -1.507041    3.748471    5.542466
  H     -0.150247    4.895676    5.605730
  H     -4.049752    0.564748   -0.985307
  H     -4.129280   -1.115741   -1.498228
  H     -3.000843   -0.488561   -3.694421
  H     -2.957878    1.190048   -3.177865
  H     -5.479920    1.219063   -3.043513
  H     -5.526230   -0.464629   -3.565362
  H     -4.412412    0.178386   -5.731883
  H     -4.371809    1.861355   -5.209444
  H     -6.887133    1.881357   -5.076004
  H     -6.928575    0.198086   -5.597953
  H     -5.818748    0.843876   -7.765765
  H     -5.780042    2.527085   -7.243737
  H     -8.295636    2.544075   -7.110344
  H     -8.334945    0.860546   -7.631029
  H     -7.226768    1.505515   -9.797223
  H     -7.188544    3.188150   -9.276778
  H     -9.147838    2.780587  -10.797703
  H     -9.758073    1.525883   -9.697854
  H     -9.719148    3.221100   -9.174254
  H     -2.571701   -3.377611    0.702773
  H      2.935564   -1.667543    4.642301
  H      3.752575   -3.237614    4.795764
  H      1.773171   -3.124631    6.331134
  H      0.703931   -2.771274    4.960264
  H      1.495454   -4.363380    5.089503
  H      7.560493   -3.468105    0.106020
  H      6.145830   -4.440143   -1.698448
  H      7.007974   -5.712350   -0.803013
  H      5.270635   -5.423249   -0.507778
  H      7.053924   -3.950565    2.539735
  H      5.847721   -5.153410    2.027945
  H      7.568715   -5.399670    1.665386

----------------------------
CARTESIAN COORDINATES (A.U.)
----------------------------
  NO LB      ZA    FRAG     MASS         X           Y           Z
   0 O     8.0000    0    15.999   12.392531    0.959315    3.404911
   1 C     6.0000    0    12.011   11.593881   -0.539688    1.816659
   2 C     6.0000    0    12.011   10.589607    0.406068   -0.738928
   3 C     6.0000    0    12.011   12.714511    1.701048   -2.262027
   4 C     6.0000    0    12.011   12.568796    4.477169   -1.422615
   5 C     6.0000    0    12.011    9.725688    4.938392   -1.111398
   6 N     7.0000    0    14.007    8.756199    2.446414   -0.355127
   7 C     6.0000    0    12.011    6.535780    1.879874    0.781006
   8 O     8.0000    0    15.999    6.097999   -0.306442    1.517889
   9 N     7.0000    0    14.007   11.749319   -3.096782    2.214327
  10 C     6.0000    0    12.011   10.579789   -5.198014    0.872690
  11 C     6.0000    0    12.011    8.043279   -6.040626    2.031915
  12 N     7.0000    0    14.007    7.440820   -5.012859    4.300911
  13 C     6.0000    0    12.011    5.079837   -5.636160    5.597275
  14 C     6.0000    0    12.011    2.909719   -4.078305    4.430866
  15 N     7.0000    0    14.007    2.106534   -4.888291    2.164070
  16 C     6.0000    0    12.011    0.374834   -3.366204    0.656598
  17 C     6.0000    0    12.011   -2.364129   -3.624610    1.565541
  18 C     6.0000    0    12.011   -4.102456   -1.387097    0.905031
  19 C     6.0000    0    12.011   -3.663392    1.163164    2.274798
  20 N     7.0000    0    14.007   -2.009918    1.179523    4.238933
  21 C     6.0000    0    12.011   -1.169170    3.563523    5.354735
  22 C     6.0000    0    12.011    0.926826    4.799163    3.743501
  23 N     7.0000    0    14.007    2.720128    3.181165    2.860200
  24 C     6.0000    0    12.011    4.554647    3.961835    0.983440
  25 C     6.0000    0    12.011    3.282211    4.373785   -1.607802
  26 O     8.0000    0    15.999    0.950275    7.083786    3.294401
  27 C     6.0000    0    12.011   -0.322987    3.121565    8.096894
  28 C     6.0000    0    12.011    0.788825    5.449755    9.426847
  29 C     6.0000    0    12.011    1.683242    4.713750   12.081523
  30 C     6.0000    0    12.011   -1.083508    7.657016    9.526352
  31 O     8.0000    0    15.999   -4.847491    3.044333    1.575364
  32 C     6.0000    0    12.011   -4.140156   -0.773579   -1.949346
  33 C     6.0000    0    12.011   -6.715586   -0.340046   -3.087612
  34 C     6.0000    0    12.011   -6.691014    0.490141   -5.843354
  35 C     6.0000    0    12.011   -9.347999    0.891200   -6.910638
  36 C     6.0000    0    12.011   -9.351172    1.746428   -9.672919
  37 C     6.0000    0    12.011  -12.003590    2.146087  -10.752798
  38 C     6.0000    0    12.011  -12.009740    3.002529  -13.514963
  39 C     6.0000    0    12.011  -14.662338    3.398797  -14.595756
  40 C     6.0000    0    12.011  -14.671859    4.253851  -17.359644
  41 C     6.0000    0    12.011  -17.333374    4.642378  -18.419694
  42 O     8.0000    0    15.999   -2.182228   -0.604445   -3.154440
  43 O     8.0000    0    15.999   -3.306043   -5.926808    0.458201
  44 O     8.0000    0    15.999    2.031700   -2.180084    5.511224
  45 C     6.0000    0    12.011    5.336755   -5.193379    8.435169
  46 C     6.0000    0    12.011    3.079238   -6.204879    9.928493
  47 O     8.0000    0    15.999    6.730756   -7.660337    0.967200
  48 C     6.0000    0    12.011   12.474410   -7.445954    0.715632
  49 C     6.0000    0    12.011   11.774950   -9.332416   -1.363676
  50 C     6.0000    0    12.011   12.803188   -8.773568    3.270107
  51 H     1.0000    0     1.008    9.680410   -1.121568   -1.803004
  52 H     1.0000    0     1.008   12.300927    1.518210   -4.290799
  53 H     1.0000    0     1.008   14.567095    0.842633   -1.902886
  54 H     1.0000    0     1.008   13.514604    4.700522    0.408463
  55 H     1.0000    0     1.008   13.427626    5.778518   -2.789784
  56 H     1.0000    0     1.008    9.298594    6.362151    0.335209
  57 H     1.0000    0     1.008    8.852607    5.547193   -2.902729
  58 H     1.0000    0     1.008   12.641702   -3.524121    3.868807
  59 H     1.0000    0     1.008   10.148222   -4.601796   -1.064761
  60 H     1.0000    0     1.008    8.260877   -3.326081    4.731544
  61 H     1.0000    0     1.008    4.720951   -7.647724    5.205351
  62 H     1.0000    0     1.008    3.117601   -6.316758    1.340013
  63 H     1.0000    0     1.008    0.491186   -3.985459   -1.311775
  64 H     1.0000    0     1.008    0.986990   -1.388030    0.716715
  65 H     1.0000    0     1.008   -2.340427   -3.827953    3.642618
  66 H     1.0000    0     1.008   -6.036859   -1.938111    1.459518
  67 H     1.0000    0     1.008   -0.886347   -0.362539    4.608300
  68 H     1.0000    0     1.008   -2.759824    4.887474    5.265353
  69 H     1.0000    0     1.008    2.736360    1.312948    3.357064
  70 H     1.0000    0     1.008    5.426817    5.747866    1.602070
  71 H     1.0000    0     1.008    1.825083    5.833188   -1.408727
  72 H     1.0000    0     1.008    4.650860    4.996053   -3.039073
  73 H     1.0000    0     1.008    2.386029    2.614694   -2.249732
  74 H     1.0000    0     1.008    1.078629    1.582756    8.120924
  75 H     1.0000    0     1.008   -1.978659    2.439429    9.166482
  76 H     1.0000    0     1.008    2.454139    6.075350    8.336694
  77 H     1.0000    0     1.008    3.062142    3.158840   12.013954
  78 H     1.0000    0     1.008    2.577861    6.324085   13.043449
  79 H     1.0000    0     1.008    0.079749    4.089431   13.254384
  80 H     1.0000    0     1.008   -1.548110    8.343775    7.624609
  81 H     1.0000    0     1.008   -2.847895    7.083583   10.473742
  82 H     1.0000    0     1.008   -0.283925    9.251487   10.593295
  83 H     1.0000    0     1.008   -7.652922    1.067219   -1.861960
  84 H     1.0000    0     1.008   -7.803208   -2.108445   -2.831241
  85 H     1.0000    0     1.008   -5.670772   -0.923246   -6.981443
  86 H     1.0000    0     1.008   -5.589580    2.248865   -6.005295
  87 H     1.0000    0     1.008  -10.355548    2.303696   -5.751406
  88 H     1.0000    0     1.008  -10.443062   -0.878022   -6.737558
  89 H     1.0000    0     1.008   -8.338250    0.337101  -10.831690
  90 H     1.0000    0     1.008   -8.261521    3.517451   -9.844422
  91 H     1.0000    0     1.008  -13.014795    3.555250   -9.592258
  92 H     1.0000    0     1.008  -13.093109    0.374328  -10.578598
  93 H     1.0000    0     1.008  -10.995841    1.594695  -14.675169
  94 H     1.0000    0     1.008  -10.922696    4.775499  -13.688679
  95 H     1.0000    0     1.008  -15.676481    4.807605  -13.436603
  96 H     1.0000    0     1.008  -15.750763    1.626196  -14.420555
  97 H     1.0000    0     1.008  -13.656612    2.845011  -18.514068
  98 H     1.0000    0     1.008  -13.584380    6.024731  -17.530570
  99 H     1.0000    0     1.008  -17.286908    5.254548  -20.404702
 100 H     1.0000    0     1.008  -18.440085    2.883501  -18.326289
 101 H     1.0000    0     1.008  -18.366529    6.086998  -17.336828
 102 H     1.0000    0     1.008   -4.859811   -6.382759    1.328048
 103 H     1.0000    0     1.008    5.547412   -3.151199    8.772677
 104 H     1.0000    0     1.008    7.091338   -6.118203    9.062681
 105 H     1.0000    0     1.008    3.350808   -5.904697   11.964109
 106 H     1.0000    0     1.008    1.330236   -5.236948    9.373541
 107 H     1.0000    0     1.008    2.825998   -8.245593    9.617767
 108 H     1.0000    0     1.008   14.287261   -6.553770    0.200348
 109 H     1.0000    0     1.008   11.613935   -8.390654   -3.209602
 110 H     1.0000    0     1.008   13.243153  -10.794778   -1.517476
 111 H     1.0000    0     1.008    9.960056  -10.248455   -0.959562
 112 H     1.0000    0     1.008   13.329985   -7.465486    4.799403
 113 H     1.0000    0     1.008   11.050591   -9.738533    3.832261
 114 H     1.0000    0     1.008   14.302798  -10.203897    3.147124

--------------------------------
INTERNAL COORDINATES (ANGSTROEM)
--------------------------------
 O      0   0   0     0.000000000000     0.00000000     0.00000000
 C      1   0   0     1.230538522948     0.00000000     0.00000000
 C      2   1   0     1.536805816131   120.65534511     0.00000000
 C      3   2   1     1.543894289389   110.61463874    63.50363911
 C      4   3   2     1.536683374810   103.70226627   270.57278110
 C      5   4   3     1.533047689172   103.44409161   323.06129872
 N      3   2   1     1.465706110632   110.29528756   310.03596774
 C      7   3   2     1.353496831228   118.23041757   293.30174040
 O      8   7   3     1.242679765534   120.49349757     1.37409677
 N      2   1   3     1.371889516193   120.69474725   175.25939523
 C     10   2   1     1.457205124921   130.72541839   168.01842020
 C     11  10   2     1.541685142526   113.36603933   267.08749793
 N     12  11  10     1.356140196728   116.16625416   350.42462993
 C     13  12  11     1.462990993267   121.70218836   179.50123642
 C     14  13  12     1.542515842836   109.12660087   279.82180047
 N     15  14  13     1.342854272209   114.99199749    75.45667214
 C     16  15  14     1.457689217668   120.76031198   190.33171942
 C     17  16  15     1.533232933602   111.92036342   280.36956366
 C     18  17  16     1.539580318098   115.15119246   155.83179881
 C     19  18  17     1.549402223622   118.29793518   290.11934057
 N     20  19  18     1.358663834448   117.38756348   350.74562447
 C     21  20  19     1.462227686793   120.68749178   169.68923002
 C     22  21  20     1.544262002559   111.15522914   280.14859754
 N     23  22  21     1.360929239203   115.09202362   317.46670839
 C     24  23  22     1.448934477407   121.54917567   169.36026851
 C     25  24  23     1.543105630937   110.91606337   290.19004580
 O     23  22  21     1.232170279641   121.94955478   137.21096220
 C     22  21  20     1.536509500860   109.79802745   155.50650801
 C     28  22  21     1.536015536328   114.97688119   175.75551799
 C     29  28  22     1.532695640388   109.53681078   183.07090150
 C     29  28  22     1.532563025908   112.29782168    58.98270224
 O     20  19  18     1.233118683247   119.11262821   172.10344254
 C     19  18  17     1.545097163287   113.03246908    54.85765886
 C     33  19  18     1.507592610323   115.73658321   134.20270255
 C     34  33  19     1.523067963421   114.75376887   174.81101435
 C     35  34  33     1.530000714608   112.68100774   179.71380824
 C     36  35  34     1.530193538353   113.24464474   179.54094713
 C     37  36  35     1.530154013827   113.49284860   179.89314921
 C     38  37  36     1.530327302080   113.55235800   179.97569740
 C     39  38  37     1.530174939750   113.54918145   179.92406666
 C     40  39  38     1.530986113845   113.61507618   180.04130352
 C     41  40  39     1.529891943190   113.14309140   179.96846244
 O     33  19  18     1.219904231638   121.03005736   312.62629430
 O     18  17  16     1.440831883911   105.95294348   278.36549779
 O     15  14  13     1.245685031007   121.66820051   257.07139348
 C     14  13  12     1.525986468062   110.53360419   155.95985412
 C     46  14  13     1.529087457296   112.65845374   189.09551950
 O     12  11  10     1.238749383879   120.48458456   173.82377815
 C     11  10   2     1.557929371804   109.59100411   142.28032871
 C     49  11  10     1.531097633732   112.37072501   199.21000284
 C     49  11  10     1.533335732198   112.07580729    73.07831421
 H      3   2   1     1.096376629299   111.32031411   189.04009817
 H      4   3   2     1.099924648367   109.00092941   152.42345430
 H      4   3   2     1.097060492898   112.12396421    32.78978636
 H      5   4   3     1.096978771029   109.59921775    79.90262518
 H      5   4   3     1.097357193961   112.86583697   201.60221274
 H      6   5   4     1.097602190071   112.72340392   150.18303482
 H      6   5   4     1.102642738298   111.43030600   272.09583067
 H     10   2   1     1.020128169263   112.21297804   357.38500064
 H     11  10   2     1.096743426163   108.92790940    24.70356928
 H     13  12  11     1.018327098990   116.71038227    23.77465007
 H     14  13  12     1.100993391964   106.07848402    36.22215203
 H     16  15  14     1.023632106483   116.79595475   353.46967668
 H     17  16  15     1.093683744584   108.67786390   159.96191971
 H     17  16  15     1.096242926871   109.02555277    43.32566119
 H     18  17  16     1.104467501111   108.06840425    35.12296744
 H     19  18  17     1.104065273772   106.88905133   173.12220470
 H     21  20  19     1.028402444816   120.84178587     9.74523616
 H     22  21  20     1.096178127647   107.47912121    34.40748779
 H     24  23  22     1.023020368481   121.70591168   355.34731783
 H     25  24  23     1.101564894638   108.76237427    50.06219771
 H     26  25  24     1.096395047157   108.72402416    59.36254435
 H     26  25  24     1.098466988424   111.55202673   179.08413832
 H     26  25  24     1.098552022774   110.08683352   300.21509489
 H     28  22  21     1.101532691890   108.64193004    53.00055762
 H     28  22  21     1.103759907927   107.62195349   297.86623129
 H     29  28  22     1.104076230376   107.86805749   300.35845287
 H     30  29  28     1.100342389484   111.40884203    56.61923755
 H     30  29  28     1.099724625190   111.11695462   177.09895202
 H     30  29  28     1.101980893879   110.76991429   296.70045105
 H     31  29  28     1.097850720745   111.44285814   296.10778044
 H     31  29  28     1.102345290065   110.69552061    57.03689287
 H     31  29  28     1.099879240206   110.70761592   176.35820530
 H     34  33  19     1.105108551249   105.89072302    50.99795311
 H     34  33  19     1.106965093425   107.00205088   299.00544732
 H     35  34  33     1.101629776343   109.37721135    56.97852561
 H     35  34  33     1.101463463519   108.82790306   301.87054674
 H     36  35  34     1.104209060337   109.42359897    57.38420471
 H     36  35  34     1.104861010245   109.50198300   301.69807899
 H     37  36  35     1.104315980241   109.27856458    57.57413955
 H     37  36  35     1.104101838790   109.20772783   302.14690206
 H     38  37  36     1.104337385505   109.27605486    57.70001853
 H     38  37  36     1.104514271192   109.28861520   302.24821071
 H     39  38  37     1.104456034519   109.27804877    57.63784924
 H     39  38  37     1.104354074480   109.26863316   302.20273809
 H     40  39  38     1.104556640796   109.30696405    57.75491739
 H     40  39  38     1.104634780222   109.30354816   302.32382363
 H     41  40  39     1.103464448882   109.12331724    57.62635626
 H     41  40  39     1.103412807642   109.12289491   302.30362924
 H     42  41  40     1.099513466758   111.67234413   180.02013014
 H     42  41  40     1.100788026209   111.08087203   300.26355604
 H     42  41  40     1.100756224404   111.08148681    59.78290353
 H     44  18  17     0.972696189962   108.04111539   165.36059517
 H     46  14  13     1.100992129371   108.62517586    67.21215035
 H     46  14  13     1.100845420007   107.68221937   310.98245204
 H     47  46  14     1.098293263658   110.73336142   178.36228524
 H     47  46  14     1.097818583976   110.92160028   297.97103840
 H     47  46  14     1.100535209758   111.18668074    58.64054350
 H     49  11  10     1.103425190613   104.23952656   316.08440484
 H     50  49  11     1.099910364931   111.19478732    55.68643914
 H     50  49  11     1.099590928567   109.95184107   175.16234323
 H     50  49  11     1.096849844092   111.08229629   295.63818461
 H     51  49  11     1.100808063170   112.87549951   306.05194466
 H     51  49  11     1.099717430088   110.82606006    67.15791754
 H     51  49  11     1.098574509811   110.20707717   186.37152056

---------------------------
INTERNAL COORDINATES (A.U.)
---------------------------
 O      0   0   0     0.000000000000     0.00000000     0.00000000
 C      1   0   0     2.325380805611     0.00000000     0.00000000
 C      2   1   0     2.904142113505   120.65534511     0.00000000
 C      3   2   1     2.917537386670   110.61463874    63.50363911
 C      4   3   2     2.903910732940   103.70226627   270.57278110
 C      5   4   3     2.897040282776   103.44409161   323.06129872
 N      3   2   1     2.769783141910   110.29528756   310.03596774
 C      7   3   2     2.557738334152   118.23041757   293.30174040
 O      8   7   3     2.348324429026   120.49349757     1.37409677
 N      2   1   3     2.592495471602   120.69474725   175.25939523
 C     10   2   1     2.753718607048   130.72541839   168.01842020
 C     11  10   2     2.913362704110   113.36603933   267.08749793
 N     12  11  10     2.562733571017   116.16625416   350.42462993
 C     13  12  11     2.764652313667   121.70218836   179.50123642
 C     14  13  12     2.914932500194   109.12660087   279.82180047
 N     15  14  13     2.537626812241   114.99199749    75.45667214
 C     16  15  14     2.754633409762   120.76031198   190.33171942
 C     17  16  15     2.897390344017   111.92036342   280.36956366
 C     18  17  16     2.909385162380   115.15119246   155.83179881
 C     19  18  17     2.927945873935   118.29793518   290.11934057
 N     20  19  18     2.567502555169   117.38756348   350.74562447
 C     21  20  19     2.763209873476   120.68749178   169.68923002
 C     22  21  20     2.918232263858   111.15522914   280.14859754
 N     23  22  21     2.571783549739   115.09202362   317.46670839
 C     24  23  22     2.738089348296   121.54917567   169.36026851
 C     25  24  23     2.916047038183   110.91606337   290.19004580
 O     23  22  21     2.328464378878   121.94955478   137.21096220
 C     22  21  20     2.903582158794   109.79802745   155.50650801
 C     28  22  21     2.902648701108   114.97688119   175.75551799
 C     29  28  22     2.896375006989   109.53681078   183.07090150
 C     29  28  22     2.896124401940   112.29782168    58.98270224
 O     20  19  18     2.330256601958   119.11262821   172.10344254
 C     19  18  17     2.919810488911   113.03246908    54.85765886
 C     33  19  18     2.848937155034   115.73658321   134.20270255
 C     34  33  19     2.878181334214   114.75376887   174.81101435
 C     35  34  33     2.891282335314   112.68100774   179.71380824
 C     36  35  34     2.891646719383   113.24464474   179.54094713
 C     37  36  35     2.891572028853   113.49284860   179.89314921
 C     38  37  36     2.891899496194   113.55235800   179.97569740
 C     39  38  37     2.891611573117   113.54918145   179.92406666
 C     40  39  38     2.893144470003   113.61507618   180.04130352
 C     41  40  39     2.891076787122   113.14309140   179.96846244
 O     33  19  18     2.305284907408   121.03005736   312.62629430
 O     18  17  16     2.722777665613   105.95294348   278.36549779
 O     15  14  13     2.354003557728   121.66820051   257.07139348
 C     14  13  12     2.883696508706   110.53360419   155.95985412
 C     46  14  13     2.889556529104   112.65845374   189.09551950
 O     12  11  10     2.340897084094   120.48458456   173.82377815
 C     11  10   2     2.944059848701   109.59100411   142.28032871
 C     49  11  10     2.893355212048   112.37072501   199.21000284
 C     49  11  10     2.897584605210   112.07580729    73.07831421
 H      3   2   1     2.071851569006   111.32031411   189.04009817
 H      4   3   2     2.078556353363   109.00092941   152.42345430
 H      4   3   2     2.073143883923   112.12396421    32.78978636
 H      5   4   3     2.072989451971   109.59921775    79.90262518
 H      5   4   3     2.073704567674   112.86583697   201.60221274
 H      6   5   4     2.074167543226   112.72340392   150.18303482
 H      6   5   4     2.083692798941   111.43030600   272.09583067
 H     10   2   1     1.927762861405   112.21297804   357.38500064
[...]
      equations for an ideal gas
  (5) All vibrations are strictly harmonic

freq.       5.19  E(vib)   ...       0.59 
freq.       6.51  E(vib)   ...       0.58 
freq.      12.46  E(vib)   ...       0.57 
freq.      19.83  E(vib)   ...       0.56 
freq.      21.53  E(vib)   ...       0.56 
freq.      25.18  E(vib)   ...       0.56 
freq.      26.90  E(vib)   ...       0.55 
freq.      32.20  E(vib)   ...       0.55 
freq.      36.66  E(vib)   ...       0.54 
freq.      42.82  E(vib)   ...       0.53 
freq.      46.00  E(vib)   ...       0.53 
freq.      48.40  E(vib)   ...       0.53 
freq.      50.32  E(vib)   ...       0.52 
freq.      52.53  E(vib)   ...       0.52 
freq.      60.04  E(vib)   ...       0.51 
freq.      64.57  E(vib)   ...       0.50 
freq.      64.94  E(vib)   ...       0.50 
freq.      68.44  E(vib)   ...       0.50 
freq.      74.03  E(vib)   ...       0.49 
freq.      76.11  E(vib)   ...       0.49 
freq.      77.73  E(vib)   ...       0.49 
freq.      85.25  E(vib)   ...       0.48 
freq.      92.13  E(vib)   ...       0.47 
freq.      98.89  E(vib)   ...       0.46 
freq.     100.17  E(vib)   ...       0.46 
freq.     101.94  E(vib)   ...       0.46 
freq.     106.27  E(vib)   ...       0.45 
freq.     108.63  E(vib)   ...       0.45 
freq.     116.91  E(vib)   ...       0.44 
freq.     119.50  E(vib)   ...       0.44 
freq.     119.71  E(vib)   ...       0.44 
freq.     121.71  E(vib)   ...       0.44 
freq.     138.36  E(vib)   ...       0.42 
freq.     140.24  E(vib)   ...       0.41 
freq.     147.17  E(vib)   ...       0.41 
freq.     148.51  E(vib)   ...       0.41 
freq.     154.46  E(vib)   ...       0.40 
freq.     157.43  E(vib)   ...       0.40 
freq.     165.44  E(vib)   ...       0.39 
freq.     171.51  E(vib)   ...       0.38 
freq.     176.57  E(vib)   ...       0.38 
freq.     184.63  E(vib)   ...       0.37 
freq.     201.11  E(vib)   ...       0.35 
freq.     206.84  E(vib)   ...       0.35 
freq.     211.61  E(vib)   ...       0.34 
freq.     221.18  E(vib)   ...       0.33 
freq.     222.81  E(vib)   ...       0.33 
freq.     225.94  E(vib)   ...       0.33 
freq.     227.82  E(vib)   ...       0.33 
freq.     228.97  E(vib)   ...       0.32 
freq.     237.22  E(vib)   ...       0.32 
freq.     238.18  E(vib)   ...       0.32 
freq.     238.87  E(vib)   ...       0.32 
freq.     243.25  E(vib)   ...       0.31 
freq.     247.29  E(vib)   ...       0.31 
freq.     250.88  E(vib)   ...       0.30 
freq.     253.78  E(vib)   ...       0.30 
freq.     266.10  E(vib)   ...       0.29 
freq.     268.90  E(vib)   ...       0.29 
freq.     274.20  E(vib)   ...       0.28 
freq.     283.17  E(vib)   ...       0.28 
freq.     289.39  E(vib)   ...       0.27 
freq.     313.68  E(vib)   ...       0.25 
freq.     320.00  E(vib)   ...       0.25 
freq.     322.55  E(vib)   ...       0.25 
freq.     325.51  E(vib)   ...       0.24 
freq.     333.24  E(vib)   ...       0.24 
freq.     338.52  E(vib)   ...       0.23 
freq.     362.64  E(vib)   ...       0.22 
freq.     367.96  E(vib)   ...       0.21 
freq.     374.83  E(vib)   ...       0.21 
freq.     382.97  E(vib)   ...       0.20 
freq.     387.62  E(vib)   ...       0.20 
freq.     397.70  E(vib)   ...       0.20 
freq.     410.26  E(vib)   ...       0.19 
freq.     416.50  E(vib)   ...       0.18 
freq.     430.72  E(vib)   ...       0.18 
freq.     435.13  E(vib)   ...       0.17 
freq.     443.68  E(vib)   ...       0.17 
freq.     450.63  E(vib)   ...       0.17 
freq.     465.47  E(vib)   ...       0.16 
freq.     469.95  E(vib)   ...       0.16 
freq.     473.42  E(vib)   ...       0.15 
freq.     483.90  E(vib)   ...       0.15 
freq.     489.96  E(vib)   ...       0.15 
freq.     504.98  E(vib)   ...       0.14 
freq.     520.33  E(vib)   ...       0.13 
freq.     524.31  E(vib)   ...       0.13 
freq.     539.08  E(vib)   ...       0.12 
freq.     569.08  E(vib)   ...       0.11 
freq.     577.14  E(vib)   ...       0.11 
freq.     584.56  E(vib)   ...       0.11 
freq.     602.62  E(vib)   ...       0.10 
freq.     621.17  E(vib)   ...       0.09 
freq.     634.59  E(vib)   ...       0.09 
freq.     647.13  E(vib)   ...       0.09 
freq.     655.81  E(vib)   ...       0.08 
freq.     661.94  E(vib)   ...       0.08 
freq.     674.06  E(vib)   ...       0.08 
freq.     694.58  E(vib)   ...       0.07 
freq.     700.42  E(vib)   ...       0.07 
freq.     711.57  E(vib)   ...       0.07 
freq.     714.57  E(vib)   ...       0.07 
freq.     720.26  E(vib)   ...       0.07 
freq.     728.59  E(vib)   ...       0.06 
freq.     730.73  E(vib)   ...       0.06 
freq.     741.84  E(vib)   ...       0.06 
freq.     749.82  E(vib)   ...       0.06 
freq.     752.09  E(vib)   ...       0.06 
freq.     768.58  E(vib)   ...       0.06 
freq.     771.98  E(vib)   ...       0.05 
freq.     776.35  E(vib)   ...       0.05 
freq.     780.36  E(vib)   ...       0.05 
freq.     788.31  E(vib)   ...       0.05 
freq.     807.21  E(vib)   ...       0.05 
freq.     817.74  E(vib)   ...       0.05 
freq.     820.33  E(vib)   ...       0.05 
freq.     826.93  E(vib)   ...       0.04 
freq.     831.65  E(vib)   ...       0.04 
freq.     844.26  E(vib)   ...       0.04 
freq.     860.77  E(vib)   ...       0.04 
freq.     867.28  E(vib)   ...       0.04 
freq.     868.22  E(vib)   ...       0.04 
freq.     877.35  E(vib)   ...       0.04 
freq.     882.24  E(vib)   ...       0.04 
freq.     890.10  E(vib)   ...       0.04 
freq.     893.35  E(vib)   ...       0.03 
freq.     903.77  E(vib)   ...       0.03 
freq.     904.44  E(vib)   ...       0.03 
freq.     909.74  E(vib)   ...       0.03 
freq.     914.66  E(vib)   ...       0.03 
freq.     922.75  E(vib)   ...       0.03 
freq.     934.33  E(vib)   ...       0.03 
freq.     938.75  E(vib)   ...       0.03 
freq.     939.76  E(vib)   ...       0.03 
freq.     943.09  E(vib)   ...       0.03 
freq.     946.71  E(vib)   ...       0.03 
freq.     949.93  E(vib)   ...       0.03 
freq.     955.93  E(vib)   ...       0.03 
freq.     969.18  E(vib)   ...       0.03 
freq.     973.22  E(vib)   ...       0.03 
freq.     977.88  E(vib)   ...       0.03 
freq.     983.18  E(vib)   ...       0.02 
freq.     986.78  E(vib)   ...       0.02 
freq.    1003.54  E(vib)   ...       0.02 
freq.    1008.49  E(vib)   ...       0.02 
freq.    1019.68  E(vib)   ...       0.02 
freq.    1022.59  E(vib)   ...       0.02 
freq.    1029.52  E(vib)   ...       0.02 
freq.    1035.04  E(vib)   ...       0.02 
freq.    1036.80  E(vib)   ...       0.02 
freq.    1039.45  E(vib)   ...       0.02 
freq.    1043.76  E(vib)   ...       0.02 
freq.    1048.38  E(vib)   ...       0.02 
freq.    1049.55  E(vib)   ...       0.02 
freq.    1050.60  E(vib)   ...       0.02 
freq.    1052.97  E(vib)   ...       0.02 
freq.    1062.98  E(vib)   ...       0.02 
freq.    1065.01  E(vib)   ...       0.02 
freq.    1070.55  E(vib)   ...       0.02 
freq.    1072.06  E(vib)   ...       0.02 
freq.    1074.95  E(vib)   ...       0.02 
freq.    1077.43  E(vib)   ...       0.02 
freq.    1081.68  E(vib)   ...       0.02 
freq.    1096.46  E(vib)   ...       0.02 
freq.    1107.55  E(vib)   ...       0.02 
freq.    1108.72  E(vib)   ...       0.02 
freq.    1114.89  E(vib)   ...       0.01 
freq.    1132.10  E(vib)   ...       0.01 
freq.    1139.16  E(vib)   ...       0.01 
freq.    1139.59  E(vib)   ...       0.01 
freq.    1146.20  E(vib)   ...       0.01 
freq.    1152.05  E(vib)   ...       0.01 
freq.    1160.61  E(vib)   ...       0.01 
freq.    1162.01  E(vib)   ...       0.01 
freq.    1168.22  E(vib)   ...       0.01 
freq.    1170.83  E(vib)   ...       0.01 
freq.    1176.76  E(vib)   ...       0.01 
freq.    1186.29  E(vib)   ...       0.01 
freq.    1191.94  E(vib)   ...       0.01 
freq.    1195.47  E(vib)   ...       0.01 
freq.    1203.77  E(vib)   ...       0.01 
freq.    1204.36  E(vib)   ...       0.01 
freq.    1209.98  E(vib)   ...       0.01 
freq.    1211.92  E(vib)   ...       0.01 
freq.    1217.71  E(vib)   ...       0.01 
freq.    1226.28  E(vib)   ...       0.01 
freq.    1228.76  E(vib)   ...       0.01 
freq.    1228.97  E(vib)   ...       0.01 
freq.    1236.19  E(vib)   ...       0.01 
freq.    1240.48  E(vib)   ...       0.01 
freq.    1244.60  E(vib)   ...       0.01 
freq.    1248.27  E(vib)   ...       0.01 
freq.    1256.06  E(vib)   ...       0.01 
freq.    1260.63  E(vib)   ...       0.01 
freq.    1262.84  E(vib)   ...       0.01 
freq.    1268.16  E(vib)   ...       0.01 
freq.    1269.53  E(vib)   ...       0.01 
freq.    1272.00  E(vib)   ...       0.01 
freq.    1275.86  E(vib)   ...       0.01 
freq.    1279.59  E(vib)   ...       0.01 
freq.    1282.31  E(vib)   ...       0.01 
freq.    1284.95  E(vib)   ...       0.01 
freq.    1285.25  E(vib)   ...       0.01 
freq.    1286.26  E(vib)   ...       0.01 
freq.    1294.08  E(vib)   ...       0.01 
freq.    1295.64  E(vib)   ...       0.01 
freq.    1295.73  E(vib)   ...       0.01 
freq.    1303.56  E(vib)   ...       0.01 
freq.    1304.16  E(vib)   ...       0.01 
freq.    1309.35  E(vib)   ...       0.01 
freq.    1316.06  E(vib)   ...       0.01 
freq.    1318.30  E(vib)   ...       0.01 
freq.    1319.04  E(vib)   ...       0.01 
freq.    1323.06  E(vib)   ...       0.01 
freq.    1325.51  E(vib)   ...       0.01 
freq.    1330.62  E(vib)   ...       0.01 
freq.    1332.72  E(vib)   ...       0.01 
freq.    1334.15  E(vib)   ...       0.01 
freq.    1339.44  E(vib)   ...       0.01 
freq.    1342.88  E(vib)   ...       0.01 
freq.    1344.42  E(vib)   ...       0.01 
freq.    1346.79  E(vib)   ...       0.01 
freq.    1348.12  E(vib)   ...       0.01 
freq.    1349.02  E(vib)   ...       0.01 
freq.    1349.81  E(vib)   ...       0.01 
freq.    1352.05  E(vib)   ...       0.01 
freq.    1356.04  E(vib)   ...       0.01 
freq.    1362.72  E(vib)   ...       0.01 
freq.    1363.46  E(vib)   ...       0.01 
freq.    1370.33  E(vib)   ...       0.01 
freq.    1371.43  E(vib)   ...       0.01 
freq.    1379.73  E(vib)   ...       0.01 
freq.    1390.59  E(vib)   ...       0.00 
freq.    1395.93  E(vib)   ...       0.00 
freq.    1413.05  E(vib)   ...       0.00 
freq.    1420.46  E(vib)   ...       0.00 
freq.    1421.69  E(vib)   ...       0.00 
freq.    1431.47  E(vib)   ...       0.00 
freq.    1433.16  E(vib)   ...       0.00 
freq.    1433.58  E(vib)   ...       0.00 
freq.    1433.65  E(vib)   ...       0.00 
freq.    1434.87  E(vib)   ...       0.00 
freq.    1436.34  E(vib)   ...       0.00 
freq.    1436.95  E(vib)   ...       0.00 
freq.    1437.80  E(vib)   ...       0.00 
freq.    1438.85  E(vib)   ...       0.00 
freq.    1442.09  E(vib)   ...       0.00 
freq.    1443.55  E(vib)   ...       0.00 
freq.    1445.32  E(vib)   ...       0.00 
freq.    1446.36  E(vib)   ...       0.00 
freq.    1448.94  E(vib)   ...       0.00 
freq.    1449.68  E(vib)   ...       0.00 
freq.    1450.87  E(vib)   ...       0.00 
freq.    1452.88  E(vib)   ...       0.00 
freq.    1454.16  E(vib)   ...       0.00 
freq.    1454.90  E(vib)   ...       0.00 
freq.    1459.17  E(vib)   ...       0.00 
freq.    1460.03  E(vib)   ...       0.00 
freq.    1462.13  E(vib)   ...       0.00 
freq.    1462.74  E(vib)   ...       0.00 
freq.    1464.74  E(vib)   ...       0.00 
freq.    1466.67  E(vib)   ...       0.00 
freq.    1468.73  E(vib)   ...       0.00 
freq.    1480.10  E(vib)   ...       0.00 
freq.    1481.02  E(vib)   ...       0.00 
freq.    1519.25  E(vib)   ...       0.00 
freq.    1531.64  E(vib)   ...       0.00 
freq.    1626.07  E(vib)   ...       0.00 
freq.    1640.47  E(vib)   ...       0.00 
freq.    1654.15  E(vib)   ...       0.00 
freq.    1656.09  E(vib)   ...       0.00 
freq.    1676.35  E(vib)   ...       0.00 
freq.    1679.39  E(vib)   ...       0.00 
freq.    1716.41  E(vib)   ...       0.00 
freq.    2923.88  E(vib)   ...       0.00 
freq.    2924.56  E(vib)   ...       0.00 
freq.    2925.37  E(vib)   ...       0.00 
freq.    2926.23  E(vib)   ...       0.00 
freq.    2931.39  E(vib)   ...       0.00 
freq.    2931.62  E(vib)   ...       0.00 
freq.    2936.22  E(vib)   ...       0.00 
freq.    2938.87  E(vib)   ...       0.00 
freq.    2941.81  E(vib)   ...       0.00 
freq.    2944.31  E(vib)   ...       0.00 
freq.    2945.86  E(vib)   ...       0.00 
freq.    2946.26  E(vib)   ...       0.00 
freq.    2946.43  E(vib)   ...       0.00 
freq.    2947.58  E(vib)   ...       0.00 
freq.    2949.01  E(vib)   ...       0.00 
freq.    2951.71  E(vib)   ...       0.00 
freq.    2953.39  E(vib)   ...       0.00 
freq.    2956.20  E(vib)   ...       0.00 
freq.    2956.31  E(vib)   ...       0.00 
freq.    2961.16  E(vib)   ...       0.00 
freq.    2961.19  E(vib)   ...       0.00 
freq.    2966.08  E(vib)   ...       0.00 
freq.    2966.51  E(vib)   ...       0.00 
freq.    2967.02  E(vib)   ...       0.00 
freq.    2967.43  E(vib)   ...       0.00 
freq.    2969.93  E(vib)   ...       0.00 
freq.    2971.97  E(vib)   ...       0.00 
freq.    2977.83  E(vib)   ...       0.00 
freq.    2978.27  E(vib)   ...       0.00 
freq.    2983.73  E(vib)   ...       0.00 
freq.    2984.50  E(vib)   ...       0.00 
freq.    2987.40  E(vib)   ...       0.00 
freq.    2994.83  E(vib)   ...       0.00 
freq.    3005.01  E(vib)   ...       0.00 
freq.    3006.35  E(vib)   ...       0.00 
freq.    3008.47  E(vib)   ...       0.00 
freq.    3012.53  E(vib)   ...       0.00 
freq.    3017.61  E(vib)   ...       0.00 
freq.    3019.74  E(vib)   ...       0.00 
freq.    3020.23  E(vib)   ...       0.00 
freq.    3023.11  E(vib)   ...       0.00 
freq.    3023.51  E(vib)   ...       0.00 
freq.    3026.07  E(vib)   ...       0.00 
freq.    3026.72  E(vib)   ...       0.00 
freq.    3028.51  E(vib)   ...       0.00 
freq.    3028.70  E(vib)   ...       0.00 
freq.    3033.64  E(vib)   ...       0.00 
freq.    3035.59  E(vib)   ...       0.00 
freq.    3039.70  E(vib)   ...       0.00 
freq.    3041.75  E(vib)   ...       0.00 
freq.    3042.36  E(vib)   ...       0.00 
freq.    3048.10  E(vib)   ...       0.00 
freq.    3050.65  E(vib)   ...       0.00 
freq.    3052.25  E(vib)   ...       0.00 
freq.    3059.67  E(vib)   ...       0.00 
freq.    3060.71  E(vib)   ...       0.00 
freq.    3069.25  E(vib)   ...       0.00 
freq.    3087.36  E(vib)   ...       0.00 
freq.    3278.74  E(vib)   ...       0.00 
freq.    3384.25  E(vib)   ...       0.00 
freq.    3396.74  E(vib)   ...       0.00 
freq.    3454.36  E(vib)   ...       0.00 
freq.    3482.83  E(vib)   ...       0.00 
freq.    3682.76  E(vib)   ...       0.00 

------------
INNER ENERGY
------------

The inner energy is: U= E(el) + E(ZPE) + E(vib) + E(rot) + E(trans)
    E(el)   - is the total energy from the electronic structure calculation
              = E(kin-el) + E(nuc-el) + E(el-el) + E(nuc-nuc)
    E(ZPE)  - the the zero temperature vibrational energy from the frequency calculation
    E(vib)  - the the finite temperature correction to E(ZPE) due to population
              of excited vibrational states
    E(rot)  - is the rotational thermal energy
    E(trans)- is the translational thermal energy

Summary of contributions to the inner energy U:
Electronic energy                ...  -2380.07257636 Eh
Zero point energy                ...      0.97633560 Eh     612.66 kcal/mol
Thermal vibrational correction   ...      0.05648221 Eh      35.44 kcal/mol
Thermal rotational correction    ...      0.00141627 Eh       0.89 kcal/mol
Thermal translational correction ...      0.00141627 Eh       0.89 kcal/mol
-----------------------------------------------------------------------
Total thermal energy                  -2379.03692601 Eh


Summary of corrections to the electronic energy:
(perhaps to be used in another calculation)
Total thermal correction                  0.05931475 Eh      37.22 kcal/mol
Non-thermal (ZPE) correction              0.97633560 Eh     612.66 kcal/mol
-----------------------------------------------------------------------
Total correction                          1.03565035 Eh     649.88 kcal/mol


--------
ENTHALPY
--------

The enthalpy is H = U + kB*T
                kB is Boltzmann's constant
Total free energy                 ...  -2379.03692601 Eh 
Thermal Enthalpy correction       ...      0.00094421 Eh       0.59 kcal/mol
-----------------------------------------------------------------------
Total Enthalpy                    ...  -2379.03598180 Eh


Note: Only C1 symmetry has been detected, increase convergence thresholds 
      if your molecule has a higher symmetry. Symmetry factor of 1.0 is   
      used for the rotational entropy correction. 
 

Note: Rotational entropy computed according to Herzberg 
Infrared and Raman Spectra, Chapter V,1, Van Nostrand Reinhold, 1945 
Point Group:  C1, Symmetry Number:   1  
Rotational constants in cm-1:     0.002197     0.000802     0.000746 

Vibrational entropy computed according to the QRRHO of S. Grimme
Chem.Eur.J. 2012 18 9955


-------
ENTROPY
-------

The entropy contributions are T*S = T*(S(el)+S(vib)+S(rot)+S(trans))
     S(el)   - electronic entropy
     S(vib)  - vibrational entropy
     S(rot)  - rotational entropy
     S(trans)- translational entropy
The entropies will be listed as mutliplied by the temperature to get
units of energy

Electronic entropy                ...      0.00000000 Eh      0.00 kcal/mol
Vibrational entropy               ...      0.10500495 Eh     65.89 kcal/mol
Rotational entropy                ...      0.01916474 Eh     12.03 kcal/mol
Translational entropy             ...      0.02166895 Eh     13.60 kcal/mol
-----------------------------------------------------------------------
Final entropy term                ...      0.14583864 Eh     91.51 kcal/mol

In case the symmetry of your molecule has not been determined correctly
or in case you have a reason to use a different symmetry number we print 
out the resulting rotational entropy values for sn=1,12 :
 --------------------------------------------------------
|  sn= 1 | S(rot)=       0.01916474 Eh     12.03 kcal/mol|
|  sn= 2 | S(rot)=       0.01851028 Eh     11.62 kcal/mol|
|  sn= 3 | S(rot)=       0.01812745 Eh     11.38 kcal/mol|
|  sn= 4 | S(rot)=       0.01785582 Eh     11.20 kcal/mol|
|  sn= 5 | S(rot)=       0.01764514 Eh     11.07 kcal/mol|
|  sn= 6 | S(rot)=       0.01747299 Eh     10.96 kcal/mol|
|  sn= 7 | S(rot)=       0.01732744 Eh     10.87 kcal/mol|
|  sn= 8 | S(rot)=       0.01720137 Eh     10.79 kcal/mol|
|  sn= 9 | S(rot)=       0.01709016 Eh     10.72 kcal/mol|
|  sn=10 | S(rot)=       0.01699068 Eh     10.66 kcal/mol|
|  sn=11 | S(rot)=       0.01690069 Eh     10.61 kcal/mol|
|  sn=12 | S(rot)=       0.01681853 Eh     10.55 kcal/mol|
 --------------------------------------------------------


-------------------
GIBBS FREE ENERGY
-------------------

The Gibbs free energy is G = H - T*S

Total enthalpy                    ...  -2379.03598180 Eh 
Total entropy correction          ...     -0.14583864 Eh    -91.51 kcal/mol
-----------------------------------------------------------------------
Final Gibbs free energy         ...  -2379.18182043 Eh

For completeness - the Gibbs free energy minus the electronic energy
G-E(el)                           ...      0.89075593 Eh    558.96 kcal/mol


Timings for individual modules:

Sum of individual times         ...    23669.019 sec (= 394.484 min)
GTO integral calculation        ...       14.088 sec (=   0.235 min)   0.1 %
SCF iterations                  ...      280.661 sec (=   4.678 min)   1.2 %
SCF Gradient evaluation         ...       59.964 sec (=   0.999 min)   0.3 %
Geometry relaxation             ...        2.132 sec (=   0.036 min)   0.0 %
Analytical frequency calculation...    23312.175 sec (= 388.536 min)  98.5 %
                             ****ORCA TERMINATED NORMALLY****
TOTAL RUN TIME: 0 days 6 hours 34 minutes 42 seconds 259 msec
