
                                 *****************
                                 * O   R   C   A *
                                 *****************

           --- An Ab Initio, DFT and Semiempirical electronic structure package ---

                  #######################################################
                  #                        -***-                        #
                  #          Department of theory and spectroscopy      #
                  #               Directorship: Frank Neese             #
                  #        Max Planck Institute fuer Kohlenforschung    #
                  #                Kaiser Wilhelm Platz 1               #
                  #                 D-45470 Muelheim/Ruhr               #
                  #                      Germany                        #
                  #                                                     #
                  #                  All rights reserved                #
                  #                        -***-                        #
                  #######################################################


                         Program Version 4.2.0 -  RELEASE  -


 With contributions from (in alphabetic order):
   Daniel Aravena         : Magnetic Suceptibility
   Michael Atanasov       : Ab Initio Ligand Field Theory (pilot matlab implementation)
   Alexander A. Auer      : GIAO ZORA, VPT2
   Ute Becker             : Parallelization
   Giovanni Bistoni       : ED, misc. LED, open-shell LED, HFLED
   Martin Brehm           : Molecular dynamics
   Dmytro Bykov           : SCF Hessian
   Vijay G. Chilkuri      : MRCI spin determinant printing, contributions to CSF-ICE
   Dipayan Datta          : RHF DLPNO-CCSD density
   Achintya Kumar Dutta   : EOM-CC, STEOM-CC
   Dmitry Ganyushin       : Spin-Orbit,Spin-Spin,Magnetic field MRCI
   Miquel Garcia          : C-PCM Hessian, Gaussian charge scheme
   Yang Guo               : DLPNO-NEVPT2, CIM, IAO-localization
   Andreas Hansen         : Spin unrestricted coupled pair/coupled cluster methods
   Benjamin Helmich-Paris : CASSCF linear response (MC-RPA)
   Lee Huntington         : MR-EOM, pCC
   Robert Izsak           : Overlap fitted RIJCOSX, COSX-SCS-MP3, EOM
   Christian Kollmar      : KDIIS, OOCD, Brueckner-CCSD(T), CCSD density
   Simone Kossmann        : Meta GGA functionals, TD-DFT gradient, OOMP2, MP2 Hessian
   Martin Krupicka        : AUTO-CI
   Lucas Lang             : DCDCAS
   Dagmar Lenk            : GEPOL surface, SMD
   Dimitrios Liakos       : Extrapolation schemes; Compound Job, initial MDCI parallelization
   Dimitrios Manganas     : Further ROCIS development; embedding schemes
   Dimitrios Pantazis     : SARC Basis sets
   Taras Petrenko         : DFT Hessian,TD-DFT gradient, ASA, ECA, R-Raman, ABS, FL, XAS/XES, NRVS
   Peter Pinski           : DLPNO-MP2, DLPNO-MP2 Gradient
   Christoph Reimann      : Effective Core Potentials
   Marius Retegan         : Local ZFS, SOC
   Christoph Riplinger    : Optimizer, TS searches, QM/MM, DLPNO-CCSD(T), (RO)-DLPNO pert. Triples
   Tobias Risthaus        : Range-separated hybrids, TD-DFT gradient, RPA, STAB
   Michael Roemelt        : Original ROCIS implementation
   Masaaki Saitow         : Open-shell DLPNO-CCSD energy and density
   Barbara Sandhoefer     : DKH picture change effects
   Avijit Sen             : IP-ROCIS
   Kantharuban Sivalingam : CASSCF convergence, NEVPT2, FIC-MRCI
   Bernardo de Souza      : ESD, SOC TD-DFT
   Georgi Stoychev        : AutoAux, RI-MP2 NMR
   Willem Van den Heuvel  : Paramagnetic NMR
   Boris Wezisla          : Elementary symmetry handling
   Frank Wennmohs         : Technical directorship


 We gratefully acknowledge several colleagues who have allowed us to
 interface, adapt or use parts of their codes:
   Stefan Grimme, W. Hujo, H. Kruse,             : VdW corrections, initial TS optimization,
                  C. Bannwarth                     DFT functionals, gCP, sTDA/sTD-DF
   Ed Valeev, F. Pavosevic, A. Kumar             : LibInt (2-el integral package), F12 methods
   Garnet Chan, S. Sharma, J. Yang, R. Olivares  : DMRG
   Ulf Ekstrom                                   : XCFun DFT Library
   Mihaly Kallay                                 : mrcc  (arbitrary order and MRCC methods)
   Andreas Klamt, Michael Diedenhofen            : otool_cosmo (COSMO solvation model)
   Jiri Pittner, Ondrej Demel                    : Mk-CCSD
   Frank Weinhold                                : gennbo (NPA and NBO analysis)
   Christopher J. Cramer and Donald G. Truhlar   : smd solvation model
   Lars Goerigk                                  : TD-DFT with DH, B97 family of functionals
   V. Asgeirsson, H. Jonsson                     : NEB implementation
   FAccTs GmbH                                   : IRC, NEB, NEB-TS, Multilevel, MM, QM/MM, CI optimization
   S Lehtola, MJT Oliveira, MAL Marques          : LibXC Library


 Your calculation uses the libint2 library for the computation of 2-el integrals
 For citations please refer to: http://libint.valeyev.net

 Your ORCA version has been built with support for libXC version: 4.2.3
 For citations please refer to: https://tddft.org/programs/libxc/

 This ORCA versions uses:
   CBLAS   interface :  Fast vector & matrix operations
   LAPACKE interface :  Fast linear algebra routines
   SCALAPACK package :  Parallel linear algebra routines




***************************************
The coordinates will be read from file: 8.xyz
***************************************


Your calculation utilizes the atom-pairwise dispersion correction
with the Becke-Johnson damping scheme (D3BJ)
Cite in your paper:
S.Grimme, S.Ehrlich, L.Goerigk, J Comput Chem, (2011), 32, 1456–1465 
S.Grimme, J.Antony, S.Ehrlich and H.Krieg, J.Chem.Phys., 132, (2010), 154104 
   

----- Orbital basis set information -----
Your calculation utilizes the basis: def2-TZVP
   F. Weigend and R. Ahlrichs, Phys. Chem. Chem. Phys. 7, 3297 (2005).

----- AuxJ basis set information -----
Your calculation utilizes the auxiliary basis: def2/J
   F. Weigend, Phys. Chem. Chem. Phys. 8, 1057 (2006).

================================================================================
                                        WARNINGS
                       Please study these warnings very carefully!
================================================================================


WARNING: Geometry Optimization
  ===> : Switching off AutoStart
         For restart on a previous wavefunction, please use MOREAD

INFO   : the flag for use of LIBINT has been found!

================================================================================
                                       INPUT FILE
================================================================================
NAME = 8.inp
|  1> !RI BP86 def2-tzvp def2/J D3BJ TIGHTSCF TightOpt Grid5 FinalGrid6 freq
|  2> %maxcore 4000
|  3> %pal nprocs 24
|  4> end
|  5> * xyzfile 0 1 8.xyz 
|  6> 
|  7>                          ****END OF INPUT****
================================================================================

                       *****************************
                       * Geometry Optimization Run *
                       *****************************

Geometry optimization settings:
Update method            Update   .... BFGS
Choice of coordinates    CoordSys .... Z-matrix Internals
Initial Hessian          InHess   .... Almoef's Model

Convergence Tolerances:
Energy Change            TolE     ....  1.0000e-06 Eh
Max. Gradient            TolMAXG  ....  1.0000e-04 Eh/bohr
RMS Gradient             TolRMSG  ....  3.0000e-05 Eh/bohr
Max. Displacement        TolMAXD  ....  1.0000e-03 bohr
RMS Displacement         TolRMSD  ....  6.0000e-04 bohr
Strict Convergence                ....  False
------------------------------------------------------------------------------
                        ORCA OPTIMIZATION COORDINATE SETUP
------------------------------------------------------------------------------

The optimization will be done in new redundant internal coordinates
Making redundant internal coordinates   ...  (new redundants) done
Evaluating the initial hessian          ...  (Almloef) done
Evaluating the coordinates              ...  done
Calculating the B-matrix                .... done
Calculating the G-matrix                .... done
Diagonalizing the G-matrix              .... done
Small eigenvalue found = 2.643e-04
Small eigenvalue found = 8.047e-04
Small eigenvalue found = 2.479e-03
Small eigenvalue found = 3.323e-03
Small eigenvalue found = 4.264e-03
Small eigenvalue found = 5.846e-03
Small eigenvalue found = 6.968e-03
Small eigenvalue found = 8.415e-03
Small eigenvalue found = 9.557e-03
Small eigenvalue found = 1.076e-02
Small eigenvalue found = 1.491e-02
Small eigenvalue found = 1.598e-02
Small eigenvalue found = 1.738e-02
Small eigenvalue found = 1.989e-02
Small eigenvalue found = 2.582e-02
Small eigenvalue found = 2.680e-02
Small eigenvalue found = 2.724e-02
The first mode is                       ....  328
The number of degrees of freedom        ....  339

    -----------------------------------------------------------------
                    Redundant Internal Coordinates


    -----------------------------------------------------------------
         Definition                    Initial Value    Approx d2E/dq
    -----------------------------------------------------------------
      1. B(C   1,O   0)                  1.2312         1.002923   
      2. B(C   2,C   1)                  1.5521         0.344382   
      3. B(C   3,C   2)                  1.5282         0.376108   
      4. B(C   4,C   3)                  1.5330         0.369503   
      5. B(C   5,C   4)                  1.5299         0.373653   
      6. B(N   6,C   5)                  1.4818         0.399424   
      7. B(N   6,C   2)                  1.4837         0.396623   
      8. B(C   7,N   6)                  1.3551         0.636066   
      9. B(O   8,C   7)                  1.2481         0.942484   
     10. B(N   9,C   1)                  1.3613         0.621769   
     11. B(C  10,N   9)                  1.4615         0.430337   
     12. B(C  11,C  10)                  1.5459         0.352432   
     13. B(N  12,C  11)                  1.3711         0.599731   
     14. B(C  13,N  12)                  1.4567         0.437947   
     15. B(C  14,C  13)                  1.5414         0.358317   
     16. B(N  15,C  14)                  1.3677         0.607417   
     17. B(C  16,N  15)                  1.4454         0.456497   
     18. B(C  17,C  16)                  1.5410         0.358843   
     19. B(C  18,C  17)                  1.5374         0.363592   
     20. B(C  19,C  18)                  1.5355         0.366149   
     21. B(N  20,C  19)                  1.3563         0.633393   
     22. B(C  21,N  20)                  1.4594         0.433650   
     23. B(C  22,C  21)                  1.5425         0.356816   
     24. B(N  23,C  22)                  1.3609         0.622661   
     25. B(C  24,C   7)                  1.5426         0.356622   
     26. B(C  24,N  23)                  1.4560         0.439151   
     27. B(C  25,C  24)                  1.5270         0.377730   
     28. B(O  26,C  22)                  1.2320         0.999912   
     29. B(C  27,C  21)                  1.5403         0.359668   
     30. B(C  28,C  27)                  1.5345         0.367458   
     31. B(C  29,C  28)                  1.5327         0.369927   
     32. B(C  30,C  28)                  1.5325         0.370135   
     33. B(O  31,C  19)                  1.2316         1.001358   
     34. B(C  32,C  18)                  1.5340         0.368125   
     35. B(C  33,C  32)                  1.5004         0.416442   
     36. B(C  34,C  33)                  1.5227         0.383746   
     37. B(C  35,C  34)                  1.5301         0.373379   
     38. B(C  36,C  35)                  1.5299         0.373724   
     39. B(C  37,C  36)                  1.5302         0.373348   
     40. B(C  38,C  37)                  1.5303         0.373211   
     41. B(C  39,C  38)                  1.5302         0.373334   
     42. B(C  40,C  39)                  1.5310         0.372242   
     43. B(C  41,C  40)                  1.5298         0.373795   
     44. B(O  42,C  32)                  1.2261         1.021762   
     45. B(O  43,C  17)                  1.4500         0.448848   
     46. B(O  44,C  14)                  1.2336         0.993922   
     47. B(C  45,C  13)                  1.5460         0.352314   
     48. B(C  46,C  45)                  1.5278         0.376574   
     49. B(O  47,C  11)                  1.2271         1.018131   
     50. B(C  48,C  10)                  1.5576         0.337578   
     51. B(C  49,C  48)                  1.5319         0.370988   
     52. B(C  50,C  48)                  1.5347         0.367145   
     53. B(H  51,C   2)                  1.1022         0.344324   
     54. B(H  52,C   3)                  1.0997         0.347432   
     55. B(H  53,C   3)                  1.0956         0.352753   
     56. B(H  54,C   4)                  1.0994         0.347896   
     57. B(H  54,O  31)                  3.4872         0.000048   
     58. B(H  55,C   4)                  1.0970         0.350995   
     59. B(H  56,C   5)                  1.0947         0.353888   
     60. B(H  57,C   5)                  1.1018         0.344854   
     61. B(H  58,N   9)                  1.0331         0.397520   
     62. B(H  59,C  10)                  1.1044         0.341557   
     63. B(H  60,N  12)                  1.0187         0.419173   
     64. B(H  61,C  13)                  1.1017         0.344971   
     65. B(H  62,N  15)                  1.0192         0.418280   
     66. B(H  63,C  16)                  1.0992         0.348154   
     67. B(H  64,C  16)                  1.1014         0.345333   
     68. B(H  65,C  17)                  1.1032         0.343047   
     69. B(H  66,C  18)                  1.0932         0.355868   
     70. B(H  67,N  20)                  1.0197         0.417551   
     71. B(H  68,C  21)                  1.1006         0.346383   
     72. B(H  69,H  60)                  4.3072         0.000001   
     73. B(H  69,N  23)                  1.0223         0.413554   
     74. B(H  70,C  24)                  1.1033         0.342981   
     75. B(H  71,C  25)                  1.0978         0.349983   
     76. B(H  72,C  25)                  1.0967         0.351366   
     77. B(H  73,C  25)                  1.0982         0.349402   
     78. B(H  74,C  27)                  1.0998         0.347333   
     79. B(H  75,C  27)                  1.0985         0.349071   
     80. B(H  76,C  28)                  1.1047         0.341175   
     81. B(H  77,H  56)                  4.8247         0.000000   
     82. B(H  77,C  29)                  1.0997         0.347500   
     83. B(H  78,C  29)                  1.1013         0.345480   
     84. B(H  79,C  29)                  1.0997         0.347488   
     85. B(H  80,C  30)                  1.0999         0.347203   
     86. B(H  81,C  30)                  1.0994         0.347925   
     87. B(H  82,C  30)                  1.1015         0.345142   
     88. B(H  83,C  33)                  1.1075         0.337675   
     89. B(H  84,C  33)                  1.1076         0.337555   
     90. B(H  85,C  34)                  1.1016         0.345123   
     91. B(H  86,H  81)                  4.1147         0.000001   
     92. B(H  86,C  34)                  1.1020         0.344601   
     93. B(H  87,C  35)                  1.1045         0.341466   
     94. B(H  88,C  35)                  1.1038         0.342271   
     95. B(H  89,C  36)                  1.1042         0.341834   
     96. B(H  90,C  36)                  1.1044         0.341605   
     97. B(H  91,C  37)                  1.1044         0.341602   
     98. B(H  92,C  37)                  1.1042         0.341795   
     99. B(H  93,C  38)                  1.1044         0.341582   
    100. B(H  94,C  38)                  1.1045         0.341482   
    101. B(H  95,C  39)                  1.1046         0.341351   
    102. B(H  96,C  39)                  1.1045         0.341419   
    103. B(H  97,C  40)                  1.1034         0.342779   
    104. B(H  98,C  40)                  1.1035         0.342733   
    105. B(H  99,C  41)                  1.0994         0.347829   
    106. B(H 100,C  41)                  1.1007         0.346199   
    107. B(H 101,C  41)                  1.1007         0.346171   
    108. B(H 102,H  73)                  3.1396         0.000037   
    109. B(H 102,O  43)                  0.9736         0.494537   
    110. B(H 103,H  56)                  4.1707         0.000001   
    111. B(H 103,C  45)                  1.1042         0.341783   
    112. B(H 104,C  45)                  1.1007         0.346168   
    113. B(H 105,C  46)                  1.0994         0.347847   
    114. B(H 106,H  84)                  3.1031         0.000042   
    115. B(H 106,C  46)                  1.0959         0.352430   
    116. B(H 107,C  46)                  1.1001         0.347011   
    117. B(H 108,C  48)                  1.1001         0.347041   
    118. B(H 109,C  49)                  1.0974         0.350387   
    119. B(H 110,C  49)                  1.0992         0.348093   
    120. B(H 111,C  49)                  1.1016         0.345124   
    121. B(H 112,C  50)                  1.0952         0.353243   
    122. B(H 113,C  50)                  1.1030         0.343304   
    123. B(H 114,C  50)                  1.0996         0.347606   
    124. A(O   0,C   1,N   9)          123.9149         0.467688   
    125. A(C   2,C   1,N   9)          113.1681         0.388777   
    126. A(O   0,C   1,C   2)          122.8618         0.423037   
    127. A(C   1,C   2,H  51)          106.0653         0.317694   
    128. A(N   6,C   2,H  51)          107.5673         0.323180   
    129. A(C   1,C   2,N   6)          114.5538         0.359773   
    130. A(C   1,C   2,C   3)          112.2228         0.358757   
    131. A(C   3,C   2,H  51)          112.9922         0.322301   
    132. A(C   3,C   2,N   6)          103.5361         0.365228   
    133. A(C   4,C   3,H  53)          113.0638         0.322643   
    134. A(C   4,C   3,H  52)          110.8000         0.321841   
    135. A(C   2,C   3,C   4)          103.2475         0.363091   
    136. A(C   2,C   3,H  53)          110.7576         0.323582   
    137. A(C   2,C   3,H  52)          109.5688         0.322776   
    138. A(H  52,C   3,H  53)          109.2581         0.288278   
    139. A(H  54,C   4,H  55)          108.0939         0.288113   
    140. A(C   3,C   4,H  55)          113.3336         0.322379   
    141. A(C   3,C   4,C   5)          103.8733         0.362685   
    142. A(C   3,C   4,H  54)          109.7016         0.321911   
    143. A(C   5,C   4,H  55)          111.9338         0.322970   
    144. A(C   5,C   4,H  54)          109.8472         0.322501   
    145. A(H  56,C   5,H  57)          108.8999         0.288087   
    146. A(C   4,C   5,N   6)          103.4438         0.365259   
    147. A(C   4,C   5,H  56)          112.0936         0.323405   
    148. A(N   6,C   5,H  57)          110.0683         0.323635   
    149. A(N   6,C   5,H  56)          110.1343         0.325012   
    150. A(C   4,C   5,H  57)          112.1045         0.322037   
    151. A(C   5,N   6,C   7)          126.2194         0.398043   
    152. A(C   2,N   6,C   7)          120.6302         0.397551   
    153. A(C   2,N   6,C   5)          111.5798         0.366710   
    154. A(O   8,C   7,C  24)          120.1526         0.420985   
    155. A(N   6,C   7,O   8)          121.7994         0.464324   
    156. A(N   6,C   7,C  24)          117.9548         0.392715   
    157. A(C   1,N   9,C  10)          122.8720         0.401689   
    158. A(C  10,N   9,H  58)          119.8510         0.332557   
    159. A(C   1,N   9,H  58)          114.9929         0.353712   
    160. A(C  48,C  10,H  59)          107.0780         0.316248   
    161. A(C  11,C  10,H  59)          104.8602         0.318474   
    162. A(N   9,C  10,C  11)          112.6770         0.366266   
    163. A(N   9,C  10,C  48)          114.5922         0.363576   
    164. A(N   9,C  10,H  59)          104.8298         0.327109   
    165. A(C  11,C  10,C  48)          111.8828         0.353619   
    166. A(N  12,C  11,O  47)          122.6773         0.465889   
    167. A(C  10,C  11,O  47)          122.5122         0.425934   
    168. A(C  10,C  11,N  12)          114.6286         0.387897   
    169. A(C  13,N  12,H  60)          117.9280         0.336478   
    170. A(C  11,N  12,C  13)          121.9042         0.400378   
    171. A(C  11,N  12,H  60)          116.4622         0.354729   
    172. A(C  14,C  13,C  45)          111.5387         0.357194   
    173. A(N  12,C  13,H  61)          106.3627         0.328594   
    174. A(C  14,C  13,H  61)          107.9278         0.319855   
    175. A(N  12,C  13,C  14)          111.2869         0.368413   
    176. A(C  45,C  13,H  61)          109.9995         0.318974   
    177. A(N  12,C  13,C  45)          109.5782         0.367347   
    178. A(C  13,C  14,N  15)          114.3575         0.389886   
    179. A(N  15,C  14,O  44)          122.9737         0.464924   
    180. A(C  13,C  14,O  44)          122.6299         0.425363   
    181. A(C  14,N  15,H  62)          114.5374         0.355368   
    182. A(C  16,N  15,H  62)          117.1572         0.338692   
    183. A(C  14,N  15,C  16)          122.2708         0.404223   
    184. A(H  63,C  16,H  64)          107.9864         0.287415   
    185. A(C  17,C  16,H  64)          109.8439         0.319986   
    186. A(N  15,C  16,H  63)          108.3760         0.331358   
    187. A(C  17,C  16,H  63)          110.5807         0.320412   
    188. A(N  15,C  16,C  17)          109.9755         0.371143   
    189. A(N  15,C  16,H  64)          110.0422         0.330912   
    190. A(O  43,C  17,H  65)          109.7809         0.329627   
    191. A(C  18,C  17,H  65)          108.7318         0.320327   
    192. A(C  16,C  17,H  65)          110.0354         0.319639   
    193. A(C  16,C  17,C  18)          110.3927         0.359203   
    194. A(C  18,C  17,O  43)          108.1961         0.370904   
    195. A(C  16,C  17,O  43)          109.6728         0.370066   
    196. A(C  19,C  18,H  66)          104.2696         0.322626   
    197. A(C  17,C  18,H  66)          110.4016         0.322256   
    198. A(C  17,C  18,C  32)          110.6811         0.360769   
    199. A(C  17,C  18,C  19)          112.4742         0.360438   
    200. A(C  19,C  18,C  32)          109.4200         0.361201   
    201. A(C  32,C  18,H  66)          109.3843         0.322911   
    202. A(C  18,C  19,N  20)          114.3010         0.394242   
    203. A(N  20,C  19,O  31)          124.9346         0.469145   
    204. A(C  18,C  19,O  31)          120.7285         0.427583   
    205. A(C  19,N  20,H  67)          116.0521         0.357798   
    206. A(C  19,N  20,C  21)          124.0176         0.403548   
    207. A(C  21,N  20,H  67)          119.0151         0.335710   
    208. A(C  27,C  21,H  68)          108.5842         0.320265   
    209. A(C  22,C  21,H  68)          105.0244         0.319849   
    210. A(N  20,C  21,H  68)          105.6885         0.328281   
    211. A(N  20,C  21,C  22)          113.4644         0.367526   
    212. A(C  22,C  21,C  27)          110.2199         0.358195   
    213. A(N  20,C  21,C  27)          113.3057         0.368028   
    214. A(C  21,C  22,N  23)          116.7527         0.391291   
    215. A(C  21,C  22,O  26)          119.6788         0.425500   
    216. A(N  23,C  22,O  26)          123.5651         0.467553   
    217. A(C  22,N  23,C  24)          121.1265         0.403229   
    218. A(C  24,N  23,H  69)          118.6978         0.335876   
    219. A(C  22,N  23,H  69)          120.1691         0.356178   
    220. A(C  25,C  24,H  70)          109.3008         0.322322   
    221. A(N  23,C  24,H  70)          104.5384         0.328429   
    222. A(C   7,C  24,H  70)          107.6536         0.319305   
    223. A(N  23,C  24,C  25)          111.5100         0.371946   
    224. A(C   7,C  24,N  23)          112.4931         0.368287   
    225. A(C   7,C  24,C  25)          111.0302         0.361163   
    226. A(H  71,C  25,H  73)          109.2261         0.288177   
    227. A(C  24,C  25,H  73)          110.9833         0.323304   
    228. A(H  71,C  25,H  72)          109.2031         0.288430   
    229. A(C  24,C  25,H  72)          110.8504         0.323601   
    230. A(C  24,C  25,H  71)          109.0912         0.323392   
    231. A(H  72,C  25,H  73)          107.4481         0.288355   
    232. A(C  28,C  27,H  75)          109.2878         0.321796   
    233. A(C  21,C  27,C  28)          114.2684         0.359991   
    234. A(H  74,C  27,H  75)          107.0987         0.287793   
    235. A(C  21,C  27,H  75)          108.6108         0.320670   
    236. A(C  28,C  27,H  74)          110.4084         0.321533   
    237. A(C  21,C  27,H  74)          106.9012         0.320409   
    238. A(C  29,C  28,C  30)          110.9415         0.362170   
    239. A(C  27,C  28,C  30)          112.5993         0.361756   
    240. A(C  27,C  28,C  29)          109.6219         0.361722   
    241. A(C  30,C  28,H  76)          107.9423         0.320975   
    242. A(C  29,C  28,H  76)          107.5845         0.320945   
    243. A(C  27,C  28,H  76)          107.9666         0.320594   
    244. A(C  28,C  29,H  79)          111.1698         0.321910   
    245. A(H  78,C  29,H  79)          107.7353         0.287348   
    246. A(H  77,C  29,H  79)          108.0335         0.287610   
    247. A(H  77,C  29,H  78)          107.7693         0.287349   
    248. A(C  28,C  29,H  78)          110.8055         0.321604   
    249. A(C  28,C  29,H  77)          111.1771         0.321912   
    250. A(H  81,C  30,H  82)          107.7658         0.287360   
    251. A(H  80,C  30,H  82)          107.8439         0.287267   
    252. A(C  28,C  30,H  82)          110.7486         0.321583   
    253. A(H  80,C  30,H  81)          106.9812         0.287628   
    254. A(C  28,C  30,H  81)          110.8822         0.322006   
    255. A(C  28,C  30,H  80)          112.4132         0.321896   
    256. A(C  33,C  32,O  42)          124.2699         0.439187   
    257. A(C  18,C  32,O  42)          120.3013         0.429547   
    258. A(C  18,C  32,C  33)          115.3926         0.369247   
    259. A(C  32,C  33,C  34)          115.3640         0.371895   
    260. A(C  34,C  33,H  84)          112.5176         0.322315   
    261. A(H  83,C  33,H  84)          103.3147         0.285034   
    262. A(C  32,C  33,H  84)          106.5737         0.326673   
    263. A(C  34,C  33,H  83)          111.6182         0.322333   
    264. A(C  32,C  33,H  83)          106.5575         0.326692   
    265. A(C  33,C  34,C  35)          112.3413         0.364992   
    266. A(H  85,C  34,H  86)          105.6976         0.286927   
    267. A(C  35,C  34,H  86)          109.9821         0.321960   
    268. A(C  33,C  34,H  86)          109.3689         0.323408   
    269. A(C  35,C  34,H  85)          109.9825         0.322039   
    270. A(C  33,C  34,H  85)          109.2487         0.323488   
    271. A(C  34,C  35,C  36)          113.2179         0.363344   
    272. A(H  87,C  35,H  88)          105.8617         0.286148   
    273. A(C  36,C  35,H  88)          109.4345         0.321651   
    274. A(C  34,C  35,H  88)          109.4276         0.321602   
    275. A(C  36,C  35,H  87)          109.2640         0.321527   
    276. A(C  34,C  35,H  87)          109.3713         0.321478   
    277. A(C  35,C  36,C  37)          113.4024         0.363339   
    278. A(H  89,C  36,H  90)          105.9097         0.286109   
    279. A(C  37,C  36,H  90)          109.3250         0.321495   
    280. A(C  35,C  36,H  90)          109.2894         0.321548   
    281. A(C  37,C  36,H  89)          109.3580         0.321531   
    282. A(C  35,C  36,H  89)          109.2836         0.321584   
    283. A(C  36,C  37,C  38)          113.5084         0.363253   
    284. A(H  91,C  37,H  92)          105.8878         0.286103   
    285. A(C  38,C  37,H  92)          109.3180         0.321505   
    286. A(C  36,C  37,H  92)          109.2937         0.321525   
    287. A(C  38,C  37,H  91)          109.2811         0.321475   
    288. A(C  36,C  37,H  91)          109.2704         0.321495   
    289. A(C  37,C  38,C  39)          113.5161         0.363251   
    290. A(H  93,C  38,H  94)          105.8940         0.286060   
    291. A(C  39,C  38,H  94)          109.2846         0.321474   
    292. A(C  37,C  38,H  94)          109.2798         0.321457   
    293. A(C  39,C  38,H  93)          109.2994         0.321490   
    294. A(C  37,C  38,H  93)          109.2853         0.321472   
    295. A(C  38,C  39,C  40)          113.5864         0.363090   
    296. A(H  95,C  39,H  96)          105.8555         0.286022   
    297. A(C  40,C  39,H  96)          109.2500         0.321310   
    298. A(C  38,C  39,H  96)          109.3164         0.321465   
    299. A(C  40,C  39,H  95)          109.2378         0.321300   
    300. A(C  38,C  39,H  95)          109.3055         0.321454   
    301. A(C  39,C  40,C  41)          113.1267         0.363166   
    302. A(H  97,C  40,H  98)          105.9373         0.286379   
    303. A(C  41,C  40,H  98)          109.6362         0.321732   
    304. A(C  39,C  40,H  98)          109.1228         0.321513   
    305. A(C  41,C  40,H  97)          109.6372         0.321739   
    306. A(C  39,C  40,H  97)          109.1261         0.321520   
    307. A(H 100,C  41,H 101)          107.4376         0.287271   
    308. A(H  99,C  41,H 101)          107.6893         0.287482   
    309. A(C  40,C  41,H 101)          111.0883         0.322258   
    310. A(H  99,C  41,H 100)          107.6897         0.287485   
    311. A(C  40,C  41,H 100)          111.0896         0.322262   
    312. A(C  40,C  41,H  99)          111.6541         0.322511   
    313. A(C  17,O  43,H 102)          107.9017         0.347348   
    314. A(C  13,C  45,C  46)          115.1449         0.360227   
    315. A(C  46,C  45,H 104)          109.8099         0.322649   
    316. A(C  13,C  45,H 104)          105.7608         0.319154   
    317. A(C  46,C  45,H 103)          110.5999         0.321976   
    318. A(C  13,C  45,H 103)          108.8783         0.318491   
    319. A(H 103,C  45,H 104)          106.1746         0.286695   
    320. A(H 106,C  46,H 107)          107.7601         0.288182   
    321. A(H 105,C  46,H 107)          107.7732         0.287593   
    322. A(C  45,C  46,H 107)          110.7577         0.322778   
    323. A(H 105,C  46,H 106)          108.8553         0.288291   
    324. A(C  45,C  46,H 106)          111.5225         0.323599   
    325. A(C  45,C  46,H 105)          110.0586         0.322905   
    326. A(C  50,C  48,H 108)          108.8869         0.321444   
    327. A(C  49,C  48,H 108)          108.6940         0.321993   
    328. A(C  10,C  48,H 108)          107.4124         0.317069   
    329. A(C  49,C  48,C  50)          109.9367         0.361846   
    330. A(C  10,C  48,C  50)          110.0825         0.356080   
    331. A(C  10,C  48,C  49)          111.7446         0.356710   
    332. A(H 110,C  49,H 111)          107.5817         0.287380   
    333. A(H 109,C  49,H 111)          108.1756         0.287675   
    334. A(C  48,C  49,H 111)          111.4368         0.321701   
    335. A(H 109,C  49,H 110)          107.3852         0.288060   
    336. A(C  48,C  49,H 110)          109.5170         0.322153   
    337. A(C  48,C  49,H 109)          112.5430         0.322499   
    338. A(H 113,C  50,H 114)          107.5294         0.287080   
    339. A(H 112,C  50,H 114)          108.5843         0.288363   
    340. A(C  48,C  50,H 114)          110.2147         0.321530   
    341. A(H 112,C  50,H 113)          108.7790         0.287802   
    342. A(C  48,C  50,H 113)          110.3745         0.320875   
    343. A(C  48,C  50,H 112)          111.2588         0.322378   
    344. D(H  51,C   2,C   1,N   9)    -58.4165         0.008989   
    345. D(C   3,C   2,C   1,N   9)    177.7520         0.008989   
    346. D(N   6,C   2,C   1,N   9)     60.0657         0.008989   
    347. D(N   6,C   2,C   1,O   0)   -122.5412         0.008989   
    348. D(C   3,C   2,C   1,O   0)     -4.8549         0.008989   
    349. D(H  51,C   2,C   1,O   0)    118.9765         0.008989   
    350. D(C   4,C   3,C   2,N   6)     31.3825         0.011287   
    351. D(H  53,C   3,C   2,H  51)    -91.2447         0.011287   
    352. D(H  53,C   3,C   2,C   1)     28.6291         0.011287   
    353. D(C   4,C   3,C   2,H  51)    147.4476         0.011287   
    354. D(H  53,C   3,C   2,N   6)    152.6901         0.011287   
    355. D(H  52,C   3,C   2,H  51)     29.3572         0.011287   
    356. D(C   4,C   3,C   2,C   1)    -92.6785         0.011287   
    357. D(H  52,C   3,C   2,C   1)    149.2311         0.011287   
    358. D(H  52,C   3,C   2,N   6)    -86.7079         0.011287   
    359. D(H  55,C   4,C   3,H  53)     80.2450         0.010916   
    360. D(H  55,C   4,C   3,H  52)    -42.7941         0.010916   
    361. D(H  54,C   4,C   3,H  52)   -163.7070         0.010916   
    362. D(H  55,C   4,C   3,C   2)   -160.0209         0.010916   
    363. D(H  54,C   4,C   3,H  53)    -40.6679         0.010916   
    364. D(C   5,C   4,C   3,C   2)    -38.3144         0.010916   
    365. D(H  54,C   4,C   3,C   2)     79.0663         0.010916   
    366. D(C   5,C   4,C   3,H  53)   -158.0485         0.010916   
    367. D(C   5,C   4,C   3,H  52)     78.9124         0.010916   
    368. D(N   6,C   5,C   4,C   3)     29.8514         0.011148   
    369. D(H  57,C   5,C   4,C   3)    -88.6958         0.011148   
    370. D(H  56,C   5,C   4,H  55)    -88.8940         0.011148   
    371. D(H  56,C   5,C   4,C   3)    148.4716         0.011148   
    372. D(H  57,C   5,C   4,H  54)    154.0249         0.011148   
    373. D(H  56,C   5,C   4,H  54)     31.1923         0.011148   
    374. D(H  57,C   5,C   4,H  55)     33.9386         0.011148   
    375. D(N   6,C   5,C   4,H  54)    -87.4279         0.011148   
    376. D(N   6,C   5,C   4,H  55)    152.4858         0.011148   
    377. D(C   5,N   6,C   2,C   3)    -13.2547         0.013436   
    378. D(C   7,N   6,C   5,H  57)    -56.1212         0.013622   
    379. D(C   7,N   6,C   5,H  56)     63.9606         0.013622   
    380. D(C   7,N   6,C   5,C   4)   -176.0706         0.013622   
    381. D(C   2,N   6,C   5,H  57)    109.5329         0.013622   
    382. D(C   2,N   6,C   5,H  56)   -130.3853         0.013622   
    383. D(C   7,N   6,C   2,H  51)     33.4684         0.013436   
    384. D(C   2,N   6,C   5,C   4)    -10.4165         0.013622   
    385. D(C   7,N   6,C   2,C   3)    153.3122         0.013436   
    386. D(C   5,N   6,C   2,C   1)    109.2710         0.013436   
    387. D(C   7,N   6,C   2,C   1)    -84.1621         0.013436   
    388. D(C   5,N   6,C   2,H  51)   -133.0986         0.013436   
    389. D(C  24,C   7,N   6,C   5)      2.9583         0.032896   
    390. D(C  24,C   7,N   6,C   2)   -161.5102         0.032896   
    391. D(O   8,C   7,N   6,C   5)    179.4518         0.032896   
    392. D(O   8,C   7,N   6,C   2)     14.9833         0.032896   
    393. D(H  58,N   9,C   1,O   0)   -176.2351         0.031319   
    394. D(C  10,N   9,C   1,C   2)    163.8939         0.031319   
    395. D(H  58,N   9,C   1,C   2)      1.1262         0.031319   
    396. D(C  10,N   9,C   1,O   0)    -13.4673         0.031319   
    397. D(H  59,C  10,N   9,C   1)   -176.0564         0.015789   
    398. D(C  48,C  10,N   9,H  58)    102.9923         0.015789   
    399. D(C  48,C  10,N   9,C   1)    -58.9739         0.015789   
    400. D(C  11,C  10,N   9,C   1)     70.4806         0.015789   
    401. D(H  59,C  10,N   9,H  58)    -14.0903         0.015789   
    402. D(C  11,C  10,N   9,H  58)   -127.5533         0.015789   
    403. D(O  47,C  11,C  10,N   9)   -164.3135         0.009374   
    404. D(N  12,C  11,C  10,H  59)    -92.9750         0.009374   
    405. D(N  12,C  11,C  10,C  48)    151.3033         0.009374   
    406. D(N  12,C  11,C  10,N   9)     20.4693         0.009374   
    407. D(O  47,C  11,C  10,H  59)     82.2421         0.009374   
    408. D(O  47,C  11,C  10,C  48)    -33.4795         0.009374   
    409. D(H  60,N  12,C  11,O  47)    165.8869         0.028980   
    410. D(H  60,N  12,C  11,C  10)    -18.9048         0.028980   
    411. D(C  13,N  12,C  11,O  47)      8.0442         0.028980   
    412. D(C  13,N  12,C  11,C  10)   -176.7475         0.028980   
    413. D(H  61,C  13,N  12,C  11)     -0.5262         0.016354   
    414. D(H  61,C  13,N  12,H  60)   -158.0599         0.016354   
    415. D(C  45,C  13,N  12,H  60)    -39.1951         0.016354   
    416. D(C  45,C  13,N  12,C  11)    118.3386         0.016354   
    417. D(C  14,C  13,N  12,C  11)   -117.8294         0.016354   
    418. D(C  14,C  13,N  12,H  60)     84.6370         0.016354   
    419. D(O  44,C  14,C  13,C  45)    -51.0313         0.009662   
    420. D(O  44,C  14,C  13,N  12)   -173.7427         0.009662   
    421. D(N  15,C  14,C  13,H  61)   -112.3003         0.009662   
    422. D(N  15,C  14,C  13,C  45)    126.7594         0.009662   
    423. D(O  44,C  14,C  13,H  61)     69.9090         0.009662   
    424. D(N  15,C  14,C  13,N  12)      4.0480         0.009662   
    425. D(H  62,N  15,C  14,O  44)    173.0788         0.029783   
    426. D(H  62,N  15,C  14,C  13)     -4.7032         0.029783   
    427. D(C  16,N  15,C  14,O  44)     21.2331         0.029783   
    428. D(C  16,N  15,C  14,C  13)   -156.5489         0.029783   
    429. D(H  64,C  16,N  15,H  62)     62.7731         0.017784   
    430. D(H  64,C  16,N  15,C  14)   -146.0704         0.017784   
    431. D(H  63,C  16,N  15,H  62)   -179.3520         0.017784   
    432. D(H  63,C  16,N  15,C  14)    -28.1954         0.017784   
    433. D(C  17,C  16,N  15,C  14)     92.7936         0.017784   
    434. D(C  17,C  16,N  15,H  62)    -58.3630         0.017784   
    435. D(H  65,C  17,C  16,H  64)     54.0048         0.010336   
    436. D(H  65,C  17,C  16,H  63)    -65.0846         0.010336   
    437. D(H  65,C  17,C  16,N  15)    175.2597         0.010336   
    438. D(O  43,C  17,C  16,H  64)    -66.8543         0.010336   
    439. D(O  43,C  17,C  16,H  63)    174.0562         0.010336   
    440. D(O  43,C  17,C  16,N  15)     54.4006         0.010336   
    441. D(C  18,C  17,C  16,H  64)    174.0212         0.010336   
    442. D(C  18,C  17,C  16,H  63)     54.9318         0.010336   
    443. D(C  18,C  17,C  16,N  15)    -64.7239         0.010336   
    444. D(H  66,C  18,C  17,H  65)    156.0774         0.010592   
    445. D(H  66,C  18,C  17,O  43)    -84.7378         0.010592   
    446. D(H  66,C  18,C  17,C  16)     35.2795         0.010592   
    447. D(C  32,C  18,C  17,O  43)    154.0034         0.010592   
    448. D(C  32,C  18,C  17,C  16)    -85.9794         0.010592   
    449. D(C  32,C  18,C  17,H  65)     34.8186         0.010592   
    450. D(C  19,C  18,C  17,H  65)    -87.9171         0.010592   
    451. D(C  19,C  18,C  17,O  43)     31.2677         0.010592   
    452. D(C  19,C  18,C  17,C  16)    151.2849         0.010592   
    453. D(O  31,C  19,C  18,H  66)      5.4050         0.010055   
    454. D(O  31,C  19,C  18,C  32)    122.3279         0.010055   
    455. D(O  31,C  19,C  18,C  17)   -114.2300         0.010055   
    456. D(N  20,C  19,C  18,H  66)   -176.6690         0.010055   
    457. D(N  20,C  19,C  18,C  17)     63.6960         0.010055   
    458. D(N  20,C  19,C  18,C  32)    -59.7460         0.010055   
    459. D(H  67,N  20,C  19,O  31)   -171.1889         0.032598   
    460. D(H  67,N  20,C  19,C  18)     10.9858         0.032598   
    461. D(C  21,N  20,C  19,O  31)     -2.2789         0.032598   
    462. D(C  21,N  20,C  19,C  18)    179.8958         0.032598   
    463. D(H  68,C  21,N  20,H  67)     -7.8676         0.016033   
    464. D(H  68,C  21,N  20,C  19)   -176.4705         0.016033   
    465. D(C  27,C  21,N  20,H  67)    110.9115         0.016033   
    466. D(C  27,C  21,N  20,C  19)    -57.6914         0.016033   
    467. D(C  22,C  21,N  20,H  67)   -122.4155         0.016033   
    468. D(C  22,C  21,N  20,C  19)     68.9817         0.016033   
    469. D(N  23,C  22,C  21,C  27)    134.7224         0.009588   
    470. D(N  23,C  22,C  21,N  20)      6.4423         0.009588   
    471. D(O  26,C  22,C  21,H  68)     70.8576         0.009588   
    472. D(O  26,C  22,C  21,C  27)    -45.9187         0.009588   
    473. D(O  26,C  22,C  21,N  20)   -174.1988         0.009588   
    474. D(N  23,C  22,C  21,H  68)   -108.5012         0.009588   
    475. D(H  69,N  23,C  22,O  26)    179.6361         0.031416   
    476. D(H  69,N  23,C  22,C  21)     -1.0324         0.031416   
    477. D(C  24,N  23,C  22,O  26)      0.5825         0.031416   
    478. D(C  24,N  23,C  22,C  21)    179.9140         0.031416   
    479. D(H  70,C  24,N  23,H  69)   -170.4696         0.016444   
    480. D(H  70,C  24,N  23,C  22)      8.5976         0.016444   
    481. D(C  25,C  24,N  23,H  69)     71.5462         0.016444   
    482. D(C  25,C  24,N  23,C  22)   -109.3867         0.016444   
    483. D(C   7,C  24,N  23,H  69)    -53.9520         0.016444   
    484. D(C   7,C  24,N  23,C  22)    125.1152         0.016444   
    485. D(H  70,C  24,C   7,O   8)   -123.6921         0.009578   
    486. D(H  70,C  24,C   7,N   6)     52.8615         0.009578   
    487. D(C  25,C  24,C   7,O   8)     -4.0902         0.009578   
    488. D(C  25,C  24,C   7,N   6)    172.4634         0.009578   
    489. D(N  23,C  24,C   7,O   8)    121.6686         0.009578   
    490. D(N  23,C  24,C   7,N   6)    -61.7778         0.009578   
    491. D(H  73,C  25,C  24,H  70)   -178.6045         0.011379   
    492. D(H  73,C  25,C  24,N  23)    -63.5227         0.011379   
    493. D(H  73,C  25,C  24,C   7)     62.7821         0.011379   
    494. D(H  72,C  25,C  24,H  70)     62.0735         0.011379   
    495. D(H  72,C  25,C  24,N  23)    177.1552         0.011379   
    496. D(H  72,C  25,C  24,C   7)    -56.5399         0.011379   
    497. D(H  71,C  25,C  24,H  70)    -58.2097         0.011379   
    498. D(H  71,C  25,C  24,N  23)     56.8720         0.011379   
    499. D(H  71,C  25,C  24,C   7)   -176.8231         0.011379   
    500. D(H  75,C  27,C  21,H  68)   -171.5237         0.010380   
    501. D(H  75,C  27,C  21,C  22)    -56.9859         0.010380   
    502. D(H  75,C  27,C  21,N  20)     71.3810         0.010380   
    503. D(H  74,C  27,C  21,H  68)    -56.2739         0.010380   
    504. D(H  74,C  27,C  21,C  22)     58.2639         0.010380   
    505. D(H  74,C  27,C  21,N  20)   -173.3691         0.010380   
    506. D(C  28,C  27,C  21,H  68)     66.1901         0.010380   
    507. D(C  28,C  27,C  21,C  22)   -179.2721         0.010380   
    508. D(C  28,C  27,C  21,N  20)    -50.9052         0.010380   
    509. D(H  76,C  28,C  27,H  75)    -62.0757         0.010803   
    510. D(H  76,C  28,C  27,H  74)   -179.6288         0.010803   
    511. D(H  76,C  28,C  27,C  21)     59.8400         0.010803   
    512. D(C  30,C  28,C  27,H  75)    178.8617         0.010803   
    513. D(C  30,C  28,C  27,H  74)     61.3086         0.010803   
    514. D(C  30,C  28,C  27,C  21)    -59.2226         0.010803   
    515. D(C  29,C  28,C  27,H  75)     54.8470         0.010803   
    516. D(C  29,C  28,C  27,H  74)    -62.7061         0.010803   
    517. D(C  29,C  28,C  27,C  21)    176.7627         0.010803   
    518. D(H  79,C  29,C  28,C  30)     58.1103         0.010940   
    519. D(H  79,C  29,C  28,C  27)   -176.9115         0.010940   
    520. D(H  78,C  29,C  28,H  76)   -179.5243         0.010940   
    521. D(H  78,C  29,C  28,C  30)    -61.6652         0.010940   
    522. D(H  78,C  29,C  28,C  27)     63.3130         0.010940   
    523. D(H  77,C  29,C  28,H  76)     60.6525         0.010940   
    524. D(H  77,C  29,C  28,C  30)    178.5116         0.010940   
    525. D(H  79,C  29,C  28,H  76)    -59.7488         0.010940   
    526. D(H  77,C  29,C  28,C  27)    -56.5102         0.010940   
    527. D(H  82,C  30,C  28,H  76)   -176.9518         0.010951   
    528. D(H  82,C  30,C  28,C  29)     65.4070         0.010951   
    529. D(H  82,C  30,C  28,C  27)    -57.8751         0.010951   
    530. D(H  81,C  30,C  28,H  76)     63.4603         0.010951   
    531. D(H  81,C  30,C  28,C  29)    -54.1809         0.010951   
    532. D(H  81,C  30,C  28,C  27)   -177.4629         0.010951   
    533. D(H  80,C  30,C  28,H  76)    -56.2412         0.010951   
    534. D(H  80,C  30,C  28,C  29)   -173.8824         0.010951   
    535. D(H  80,C  30,C  28,C  27)     62.8355         0.010951   
    536. D(O  42,C  32,C  18,H  66)   -170.7918         0.010155   
    537. D(O  42,C  32,C  18,C  19)     75.5611         0.010155   
    538. D(O  42,C  32,C  18,C  17)    -48.9336         0.010155   
    539. D(C  33,C  32,C  18,H  66)     11.3053         0.010155   
    540. D(C  33,C  32,C  18,C  19)   -102.3419         0.010155   
    541. D(C  33,C  32,C  18,C  17)    133.1634         0.010155   
    542. D(H  84,C  33,C  32,O  42)    123.5709         0.012831   
    543. D(H  84,C  33,C  32,C  18)    -58.6200         0.012831   
    544. D(H  83,C  33,C  32,O  42)   -126.6035         0.012831   
    545. D(H  83,C  33,C  32,C  18)     51.2056         0.012831   
    546. D(C  34,C  33,C  32,O  42)     -2.1107         0.012831   
    547. D(C  34,C  33,C  32,C  18)    175.6983         0.012831   
    548. D(H  86,C  34,C  33,H  84)   -178.5945         0.011725   
    549. D(H  86,C  34,C  33,H  83)     65.7816         0.011725   
    550. D(H  86,C  34,C  33,C  32)    -56.0288         0.011725   
    551. D(H  85,C  34,C  33,H  84)    -63.3469         0.011725   
    552. D(H  85,C  34,C  33,H  83)   -178.9708         0.011725   
    553. D(H  85,C  34,C  33,C  32)     59.2188         0.011725   
    554. D(C  35,C  34,C  33,H  84)     58.9870         0.011725   
    555. D(C  35,C  34,C  33,H  83)    -56.6369         0.011725   
    556. D(C  35,C  34,C  33,C  32)   -178.4474         0.011725   
    557. D(H  88,C  35,C  34,H  86)   -179.8671         0.011133   
    558. D(H  88,C  35,C  34,H  85)     64.1212         0.011133   
    559. D(H  88,C  35,C  34,C  33)    -57.7962         0.011133   
    560. D(H  87,C  35,C  34,H  86)    -64.3224         0.011133   
    561. D(H  87,C  35,C  34,H  85)    179.6659         0.011133   
    562. D(H  87,C  35,C  34,C  33)     57.7485         0.011133   
    563. D(C  36,C  35,C  34,H  86)     57.7750         0.011133   
    564. D(C  36,C  35,C  34,H  85)    -58.2367         0.011133   
    565. D(C  36,C  35,C  34,C  33)    179.8459         0.011133   
    566. D(H  90,C  36,C  35,H  87)     64.8782         0.011152   
    567. D(H  90,C  36,C  35,C  34)    -57.2790         0.011152   
    568. D(H  89,C  36,C  35,H  88)    -64.1566         0.011152   
    569. D(H  89,C  36,C  35,H  87)   -179.6453         0.011152   
    570. D(H  89,C  36,C  35,C  34)     58.1974         0.011152   
    571. D(C  37,C  36,C  35,H  88)     58.1243         0.011152   
    572. D(C  37,C  36,C  35,H  87)    -57.3644         0.011152   
    573. D(H  90,C  36,C  35,H  88)   -179.6331         0.011152   
    574. D(C  37,C  36,C  35,C  34)   -179.5217         0.011152   
    575. D(H  92,C  37,C  36,H  90)    179.9926         0.011131   
    576. D(H  92,C  37,C  36,H  89)     64.4551         0.011131   
    577. D(H  92,C  37,C  36,C  35)    -57.7845         0.011131   
    578. D(H  91,C  37,C  36,H  90)    -64.5620         0.011131   
    579. D(H  91,C  37,C  36,H  89)    179.9004         0.011131   
    580. D(H  91,C  37,C  36,C  35)     57.6609         0.011131   
    581. D(C  38,C  37,C  36,H  90)     57.6830         0.011131   
    582. D(C  38,C  37,C  36,H  89)    -57.8546         0.011131   
    583. D(C  38,C  37,C  36,C  35)    179.9059         0.011131   
    584. D(H  94,C  38,C  37,H  92)   -179.8408         0.011123   
    585. D(H  94,C  38,C  37,H  91)     64.6944         0.011123   
    586. D(H  94,C  38,C  37,C  36)    -57.5446         0.011123   
    587. D(H  93,C  38,C  37,H  92)    -64.3875         0.011123   
    588. D(H  93,C  38,C  37,H  91)   -179.8522         0.011123   
    589. D(H  93,C  38,C  37,C  36)     57.9088         0.011123   
    590. D(C  39,C  38,C  37,H  92)     57.8975         0.011123   
    591. D(C  39,C  38,C  37,H  91)    -57.5673         0.011123   
    592. D(C  39,C  38,C  37,C  36)   -179.8063         0.011123   
    593. D(H  95,C  39,C  38,H  94)    -64.5687         0.011130   
    594. D(H  95,C  39,C  38,H  93)    179.9676         0.011130   
    595. D(H  95,C  39,C  38,C  37)     57.6904         0.011130   
    596. D(C  40,C  39,C  38,H  94)     57.7000         0.011130   
    597. D(C  40,C  39,C  38,H  93)    -57.7637         0.011130   
    598. D(C  40,C  39,C  38,C  37)    179.9591         0.011130   
    599. D(H  96,C  39,C  38,H  94)    179.9926         0.011130   
    600. D(H  96,C  39,C  38,H  93)     64.5288         0.011130   
    601. D(H  96,C  39,C  38,C  37)    -57.7483         0.011130   
    602. D(H  98,C  40,C  39,H  95)     64.7134         0.011069   
    603. D(H  98,C  40,C  39,C  38)    -57.5928         0.011069   
    604. D(H  97,C  40,C  39,H  96)    -64.5912         0.011069   
    605. D(H  97,C  40,C  39,H  95)   -179.9558         0.011069   
    606. D(H  97,C  40,C  39,C  38)     57.7380         0.011069   
    607. D(C  41,C  40,C  39,H  96)     57.7452         0.011069   
    608. D(C  41,C  40,C  39,H  95)    -57.6194         0.011069   
    609. D(H  98,C  40,C  39,H  96)   -179.9220         0.011069   
    610. D(C  41,C  40,C  39,C  38)   -179.9255         0.011069   
    611. D(H 101,C  41,C  40,H  98)    -62.2781         0.011156   
    612. D(H 101,C  41,C  40,H  97)   -178.1814         0.011156   
    613. D(H 101,C  41,C  40,C  39)     59.7678         0.011156   
    614. D(H 100,C  41,C  40,H  98)    178.1867         0.011156   
    615. D(H 100,C  41,C  40,H  97)     62.2834         0.011156   
    616. D(H 100,C  41,C  40,C  39)    -59.7674         0.011156   
    617. D(H  99,C  41,C  40,H  98)     57.9536         0.011156   
    618. D(H  99,C  41,C  40,H  97)    -57.9496         0.011156   
    619. D(H  99,C  41,C  40,C  39)    179.9995         0.011156   
    620. D(H 102,O  43,C  17,H  65)    -51.8755         0.015866   
    621. D(H 102,O  43,C  17,C  18)   -170.3951         0.015866   
    622. D(H 102,O  43,C  17,C  16)     69.1374         0.015866   
    623. D(H 104,C  45,C  13,H  61)     72.5750         0.009990   
    624. D(H 104,C  45,C  13,C  14)   -167.7014         0.009990   
    625. D(H 104,C  45,C  13,N  12)    -44.0171         0.009990   
    626. D(H 103,C  45,C  13,H  61)   -173.6958         0.009990   
    627. D(H 103,C  45,C  13,C  14)    -53.9722         0.009990   
    628. D(H 103,C  45,C  13,N  12)     69.7121         0.009990   
    629. D(C  46,C  45,C  13,H  61)    -48.8565         0.009990   
    630. D(C  46,C  45,C  13,C  14)     70.8671         0.009990   
    631. D(C  46,C  45,C  13,N  12)   -165.4486         0.009990   
    632. D(H 107,C  46,C  45,H 104)    -60.8906         0.011313   
    633. D(H 107,C  46,C  45,H 103)   -177.7439         0.011313   
    634. D(H 107,C  46,C  45,C  13)     58.3194         0.011313   
    635. D(H 106,C  46,C  45,H 104)    179.1009         0.011313   
    636. D(H 106,C  46,C  45,H 103)     62.2476         0.011313   
    637. D(H 106,C  46,C  45,C  13)    -61.6891         0.011313   
    638. D(H 105,C  46,C  45,H 104)     58.1816         0.011313   
    639. D(H 105,C  46,C  45,H 103)    -58.6717         0.011313   
    640. D(H 105,C  46,C  45,C  13)    177.3915         0.011313   
    641. D(H 108,C  48,C  10,H  59)   -156.6698         0.009239   
    642. D(H 108,C  48,C  10,C  11)    -42.3067         0.009239   
    643. D(H 108,C  48,C  10,N   9)     87.5404         0.009239   
    644. D(C  50,C  48,C  10,H  59)    -38.2539         0.009239   
    645. D(C  50,C  48,C  10,C  11)     76.1092         0.009239   
    646. D(C  50,C  48,C  10,N   9)   -154.0437         0.009239   
    647. D(C  49,C  48,C  10,H  59)     84.2046         0.009239   
    648. D(C  49,C  48,C  10,C  11)   -161.4323         0.009239   
    649. D(C  49,C  48,C  10,N   9)    -31.5852         0.009239   
    650. D(H 111,C  49,C  48,C  50)     66.8288         0.010999   
    651. D(H 111,C  49,C  48,C  10)    -55.7130         0.010999   
    652. D(H 110,C  49,C  48,H 108)     67.0108         0.010999   
    653. D(H 110,C  49,C  48,C  50)    -52.0834         0.010999   
    654. D(H 110,C  49,C  48,C  10)   -174.6253         0.010999   
    655. D(H 109,C  49,C  48,H 108)    -52.3538         0.010999   
    656. D(H 109,C  49,C  48,C  50)   -171.4480         0.010999   
    657. D(H 111,C  49,C  48,H 108)   -174.0770         0.010999   
    658. D(H 109,C  49,C  48,C  10)     66.0102         0.010999   
    659. D(H 114,C  50,C  48,H 108)    -59.7552         0.010786   
    660. D(H 114,C  50,C  48,C  49)     59.2207         0.010786   
    661. D(H 114,C  50,C  48,C  10)   -177.2605         0.010786   
    662. D(H 113,C  50,C  48,H 108)   -178.3844         0.010786   
    663. D(H 113,C  50,C  48,C  49)    -59.4085         0.010786   
    664. D(H 113,C  50,C  48,C  10)     64.1103         0.010786   
    665. D(H 112,C  50,C  48,H 108)     60.7539         0.010786   
    666. D(H 112,C  50,C  48,C  49)    179.7298         0.010786   
    667. D(H 112,C  50,C  48,C  10)    -56.7514         0.010786   
    -----------------------------------------------------------------

Number of atoms                         .... 115
Number of degrees of freedom            .... 667

         *************************************************************
         *                GEOMETRY OPTIMIZATION CYCLE   1            *
         *************************************************************
---------------------------------
CARTESIAN COORDINATES (ANGSTROEM)
---------------------------------
  O      4.223777   -2.303338    3.219595
  C      4.809785   -1.275433    2.879295
  C      4.836775    0.007191    3.752973
  C      3.964388   -0.124927    5.000675
  C      2.616690    0.449675    4.549475
  C      3.001918    1.631534    3.657547
  N      4.304840    1.220076    3.084144
  C      5.097517    1.968398    2.279120
  O      6.188628    1.541222    1.849303
  N      5.542202   -1.161220    1.737490
  C      5.949368   -2.314594    0.937544
  C      4.762901   -2.978251    0.201653
  N      3.663749   -2.173190    0.047436
  C      2.432571   -2.659393   -0.560719
  C      2.102188   -1.884654   -1.851607
  N      3.050999   -0.970920   -2.219566
  C      2.743905    0.165169   -3.058774
  C      2.397614    1.386520   -2.185323
  C      1.110346    1.125946   -1.386225
  C      1.077366    1.896865   -0.058727
  N      1.068179    3.246059   -0.196882
  C      1.035641    4.181265    0.923029
  C      2.338897    4.197173    1.747987
  N      3.378493    3.463455    1.265250
  C      4.653358    3.412294    1.966655
  C      5.741169    4.167934    1.206805
  O      2.398374    4.864735    2.781736
  C     -0.178452    3.980592    1.849481
  C     -1.527495    3.932565    1.119789
  C     -2.647669    3.650005    2.126987
  C     -1.813948    5.212234    0.326692
  O      1.099756    1.298238    1.017372
  C     -0.126438    1.489182   -2.217839
  C     -1.225825    0.468087   -2.215662
  C     -2.493159    0.872547   -2.956509
  C     -3.580283   -0.201432   -2.878614
  C     -4.864773    0.186161   -3.613749
  C     -5.959024   -0.880044   -3.528738
  C     -7.245808   -0.493837   -4.261365
  C     -8.341842   -1.557910   -4.172504
  C     -9.630348   -1.172727   -4.904123
  C    -10.719305   -2.242847   -4.807045
  O     -0.187847    2.568582   -2.796175
  O      3.472539    1.634091   -1.244134
  O      1.049634   -2.047340   -2.474108
  C      1.278789   -2.572278    0.464543
  C      0.021743   -3.358378    0.095594
  O      4.834327   -4.102350   -0.285198
  C      6.816611   -3.359230    1.700882
  C      7.687963   -2.698240    2.773510
  C      7.699890   -4.133488    0.713092
  H      5.897404    0.194503    3.987097
  H      4.392725    0.477330    5.815084
  H      3.899662   -1.170895    5.320246
  H      2.072424   -0.301454    3.959366
  H      1.974659    0.758114    5.383745
  H      2.273710    1.797954    2.857257
  H      3.119494    2.563925    4.232641
  H      6.025111   -0.255873    1.617412
  H      6.580516   -1.893408    0.135090
  H      3.604705   -1.362978    0.662025
  H      2.615457   -3.710934   -0.833703
  H      3.816876   -0.865190   -1.555423
  H      1.895475   -0.100696   -3.705061
  H      3.603783    0.399938   -3.705743
  H      2.246092    2.275188   -2.821226
  H      1.052190    0.075437   -1.089283
  H      0.909052    3.598556   -1.140399
  H      0.971065    5.183216    0.472271
  H      3.270026    2.923459    0.403981
  H      4.461152    3.918629    2.927832
  H      5.416264    5.204925    1.051376
  H      6.683148    4.165388    1.768394
  H      5.937354    3.700551    0.232573
  H     -0.165151    4.805191    2.577133
  H     -0.038146    3.049041    2.414422
  H     -1.499353    3.089343    0.406670
  H     -2.459075    2.718303    2.679882
  H     -2.728194    4.466407    2.861717
  H     -3.620503    3.555792    1.622936
  H     -1.081414    5.380783   -0.476320
  H     -2.804871    5.166031   -0.147161
  H     -1.798397    6.092982    0.988092
  H     -1.432399    0.228990   -1.154190
  H     -0.786461   -0.470054   -2.607614
  H     -2.246824    1.083169   -4.009314
  H     -2.871053    1.821571   -2.543109
  H     -3.815030   -0.408934   -1.819522
  H     -3.191577   -1.148007   -3.292532
  H     -4.631506    0.387481   -4.674055
  H     -5.247930    1.136691   -3.202315
  H     -6.189909   -1.081554   -2.467754
  H     -5.575432   -1.830146   -3.940350
  H     -7.015441   -0.294894   -5.322962
  H     -7.627368    0.457973   -3.851144
  H     -8.571916   -1.757387   -3.110752
  H     -7.960850   -2.509996   -4.582748
  H     -9.398570   -0.974667   -5.964587
  H    -10.008330   -0.220744   -4.493671
  H    -11.632604   -1.941797   -5.339978
  H    -10.378079   -3.195575   -5.240001
  H    -10.992310   -2.436099   -3.758357
  H      4.244623    1.948049   -1.747422
  H      1.035193   -1.509467    0.638830
  H      1.691370   -2.951642    1.411902
  H     -0.723630   -3.276704    0.899635
  H     -0.421977   -2.992411   -0.837193
  H      0.254536   -4.425034   -0.039411
  H      6.128167   -4.063677    2.190699
  H      7.094733   -2.258984    3.585615
  H      8.352327   -3.450509    3.221864
  H      8.322943   -1.906709    2.344884
  H      7.097385   -4.619482   -0.061721
  H      8.420661   -3.453796    0.228199
  H      8.277077   -4.904717    1.243382

----------------------------
CARTESIAN COORDINATES (A.U.)
----------------------------
  NO LB      ZA    FRAG     MASS         X           Y           Z
   0 O     8.0000    0    15.999    7.981781   -4.352677    6.084152
   1 C     6.0000    0    12.011    9.089177   -2.410220    5.441079
   2 C     6.0000    0    12.011    9.140180    0.013589    7.092091
   3 C     6.0000    0    12.011    7.491607   -0.236077    9.449906
   4 C     6.0000    0    12.011    4.944827    0.849762    8.597261
   5 C     6.0000    0    12.011    5.672804    3.083152    6.911763
   6 N     7.0000    0    14.007    8.134969    2.305609    5.828188
   7 C     6.0000    0    12.011    9.632911    3.719734    4.306912
   8 O     8.0000    0    15.999   11.694811    2.912488    3.494676
   9 N     7.0000    0    14.007   10.473244   -2.194387    3.283380
  10 C     6.0000    0    12.011   11.242676   -4.373950    1.771702
  11 C     6.0000    0    12.011    9.000578   -5.628078    0.381069
  12 N     7.0000    0    14.007    6.923482   -4.106734    0.089641
  13 C     6.0000    0    12.011    4.596893   -5.025524   -1.059605
  14 C     6.0000    0    12.011    3.972560   -3.561480   -3.499029
  15 N     7.0000    0    14.007    5.765553   -1.834772   -4.194372
  16 C     6.0000    0    12.011    5.185228    0.312124   -5.780244
  17 C     6.0000    0    12.011    4.530833    2.620143   -4.129662
  18 C     6.0000    0    12.011    2.098250    2.127729   -2.619585
  19 C     6.0000    0    12.011    2.035926    3.584555   -0.110978
  20 N     7.0000    0    14.007    2.018565    6.134162   -0.372054
  21 C     6.0000    0    12.011    1.957078    7.901446    1.744272
  22 C     6.0000    0    12.011    4.419876    7.931508    3.303218
  23 N     7.0000    0    14.007    6.384426    6.544982    2.390977
  24 C     6.0000    0    12.011    8.793573    6.448301    3.716440
  25 C     6.0000    0    12.011   10.849237    7.876254    2.280531
  26 O     8.0000    0    15.999    4.532269    9.193017    5.256720
  27 C     6.0000    0    12.011   -0.337226    7.522228    3.495013
  28 C     6.0000    0    12.011   -2.886546    7.431470    2.116094
  29 C     6.0000    0    12.011   -5.003369    6.897510    4.019424
  30 C     6.0000    0    12.011   -3.427865    9.849695    0.617358
  31 O     8.0000    0    15.999    2.078238    2.453315    1.922554
  32 C     6.0000    0    12.011   -0.238934    2.814146   -4.191108
  33 C     6.0000    0    12.011   -2.316473    0.884557   -4.186993
  34 C     6.0000    0    12.011   -4.711388    1.648875   -5.586992
  35 C     6.0000    0    12.011   -6.765754   -0.380652   -5.439793
  36 C     6.0000    0    12.011   -9.193089    0.351794   -6.828995
  37 C     6.0000    0    12.011  -11.260923   -1.663043   -6.668348
  38 C     6.0000    0    12.011  -13.692593   -0.933217   -8.052812
  39 C     6.0000    0    12.011  -15.763798   -2.944022   -7.884889
  40 C     6.0000    0    12.011  -18.198720   -2.216133   -9.267449
  41 C     6.0000    0    12.011  -20.256552   -4.238367   -9.083999
  42 O     8.0000    0    15.999   -0.354980    4.853917   -5.284004
  43 O     8.0000    0    15.999    6.562148    3.087984   -2.351073
  44 O     8.0000    0    15.999    1.983521   -3.868912   -4.675387
  45 C     6.0000    0    12.011    2.416562   -4.860900    0.877858
  46 C     6.0000    0    12.011    0.041088   -6.346415    0.180647
  47 O     8.0000    0    15.999    9.135553   -7.752319   -0.538947
  48 C     6.0000    0    12.011   12.881529   -6.348024    3.214201
  49 C     6.0000    0    12.011   14.528145   -5.098935    5.241173
  50 C     6.0000    0    12.011   14.550683   -7.811160    1.347549
  51 H     1.0000    0     1.008   11.144478    0.367558    7.534522
  52 H     1.0000    0     1.008    8.301047    0.902022   10.988915
  53 H     1.0000    0     1.008    7.369293   -2.212670   10.053807
  54 H     1.0000    0     1.008    3.916313   -0.569665    7.482117
  55 H     1.0000    0     1.008    3.731565    1.432628   10.173804
  56 H     1.0000    0     1.008    4.296688    3.397640    5.399434
  57 H     1.0000    0     1.008    5.894989    4.845117    7.998532
  58 H     1.0000    0     1.008   11.385810   -0.483531    3.056466
  59 H     1.0000    0     1.008   12.435372   -3.578023    0.255283
  60 H     1.0000    0     1.008    6.811905   -2.575655    1.251046
  61 H     1.0000    0     1.008    4.942498   -7.012649   -1.575470
  62 H     1.0000    0     1.008    7.212850   -1.634972   -2.939323
  63 H     1.0000    0     1.008    3.581929   -0.190289   -7.001551
  64 H     1.0000    0     1.008    6.810163    0.755773   -7.002839
  65 H     1.0000    0     1.008    4.244498    4.299483   -5.331344
  66 H     1.0000    0     1.008    1.988352    0.142555   -2.058446
  67 H     1.0000    0     1.008    1.717859    6.800285   -2.155042
  68 H     1.0000    0     1.008    1.835046    9.794859    0.892464
  69 H     1.0000    0     1.008    6.179453    5.524537    0.763413
  70 H     1.0000    0     1.008    8.430356    7.405136    5.532801
  71 H     1.0000    0     1.008   10.235255    9.835883    1.986813
  72 H     1.0000    0     1.008   12.629320    7.871443    3.341781
  73 H     1.0000    0     1.008   11.219973    6.993028    0.439499
  74 H     1.0000    0     1.008   -0.312090    9.080495    4.870075
  75 H     1.0000    0     1.008   -0.072085    5.761852    4.562596
  76 H     1.0000    0     1.008   -2.833366    5.838013    0.768495
  77 H     1.0000    0     1.008   -4.646978    5.136848    5.064244
  78 H     1.0000    0     1.008   -5.155539    8.440285    5.407861
  79 H     1.0000    0     1.008   -6.841760    6.719473    3.066904
  80 H     1.0000    0     1.008   -2.043577   10.168206   -0.900114
  81 H     1.0000    0     1.008   -5.300437    9.762384   -0.278095
  82 H     1.0000    0     1.008   -3.398478   11.514067    1.867224
  83 H     1.0000    0     1.008   -2.706841    0.432728   -2.181103
  84 H     1.0000    0     1.008   -1.486196   -0.888273   -4.927676
  85 H     1.0000    0     1.008   -4.245881    2.046893   -7.576506
  86 H     1.0000    0     1.008   -5.425504    3.442270   -4.805780
  87 H     1.0000    0     1.008   -7.209362   -0.772772   -3.438398
  88 H     1.0000    0     1.008   -6.031206   -2.169419   -6.221984
  89 H     1.0000    0     1.008   -8.752278    0.732232   -8.832683
  90 H     1.0000    0     1.008   -9.917151    2.148036   -6.051499
  91 H     1.0000    0     1.008  -11.697234   -2.043841   -4.663379
  92 H     1.0000    0     1.008  -10.536040   -3.458474   -7.446183
  93 H     1.0000    0     1.008  -13.257262   -0.557270  -10.058940
  94 H     1.0000    0     1.008  -14.413636    0.865444   -7.277608
  95 H     1.0000    0     1.008  -16.198575   -3.320981   -5.878470
  96 H     1.0000    0     1.008  -15.043827   -4.743204   -8.660138
  97 H     1.0000    0     1.008  -17.760724   -1.841854  -11.271436
  98 H     1.0000    0     1.008  -18.913003   -0.417146   -8.491807
  99 H     1.0000    0     1.008  -21.982436   -3.669465  -10.091096
 100 H     1.0000    0     1.008  -19.611727   -6.038762   -9.902168
 101 H     1.0000    0     1.008  -20.772456   -4.603560   -7.102265
 102 H     1.0000    0     1.008    8.021175    3.681278   -3.302150
 103 H     1.0000    0     1.008    1.956231   -2.852479    1.207214
 104 H     1.0000    0     1.008    3.196226   -5.577796    2.668108
 105 H     1.0000    0     1.008   -1.367463   -6.192073    1.700063
 106 H     1.0000    0     1.008   -0.797421   -5.654837   -1.582065
 107 H     1.0000    0     1.008    0.481003   -8.362103   -0.074475
 108 H     1.0000    0     1.008   11.580558   -7.679237    4.139821
 109 H     1.0000    0     1.008   13.407103   -4.268862    6.775829
 110 H     1.0000    0     1.008   15.783610   -6.520517    6.088440
 111 H     1.0000    0     1.008   15.728083   -3.603157    4.431188
 112 H     1.0000    0     1.008   13.412115   -8.729555   -0.116635
 113 H     1.0000    0     1.008   15.912744   -6.526728    0.431233
 114 H     1.0000    0     1.008   15.641409   -9.268572    2.349651

--------------------------------
INTERNAL COORDINATES (ANGSTROEM)
--------------------------------
 O      0   0   0     0.000000000000     0.00000000     0.00000000
 C      1   0   0     1.231176967804     0.00000000     0.00000000
 C      2   1   0     1.552148986437   122.86176048     0.00000000
 C      3   2   1     1.528160649234   112.22278959   355.14507512
 C      4   3   2     1.532983115516   103.24752807   267.32147506
 C      5   4   3     1.529943241870   103.87329356   321.68564257
 N      6   5   4     1.481787733525   103.44382287    29.85141517
 C      7   6   5     1.355133948579   126.21935407   183.92939820
 O      8   7   6     1.248096207992   121.79941084   179.45180673
 N      2   1   3     1.361322280077   123.91491646   177.11172369
 C     10   2   1     1.461495757216   122.87201618   346.53267663
 C     11  10   2     1.545859091631   112.67702682    70.48058054
 N     12  11  10     1.371145647528   114.62862961    20.46934519
 C     13  12  11     1.456723921892   121.90418207   183.25250057
 C     14  13  12     1.541351260534   111.28691724   242.17061493
 N     15  14  13     1.367679295402   114.35746192     4.04797695
 C     16  15  14     1.445431831632   122.27080842   203.45105475
 C     17  16  15     1.540951846836   109.97550161    92.79355121
 C     18  17  16     1.537372695141   110.39267025   295.27613861
 C     19  18  17     1.535465345459   112.47419444   151.28493353
 N     20  19  18     1.356280033470   114.30102500    63.69598949
 C     21  20  19     1.459407872149   124.01762624   179.89580936
 C     22  21  20     1.542493746011   113.46441674    68.98166695
 N     23  22  21     1.360931946588   116.75274274     6.44231347
 C     24  23  22     1.455976874664   121.12652402   179.91404162
 C     25  24  23     1.526989126415   111.51002707   250.61334323
 O     23  22  21     1.231995492460   119.67882542   185.80117762
 C     22  21  20     1.540326577225   113.30568952   302.30864039
 C     28  22  21     1.534494266610   114.26837349   309.09483289
 C     29  28  22     1.532670740862   109.62191175   176.76270195
 C     29  28  22     1.532518331205   112.59925718   300.77743167
 O     20  19  18     1.231602083750   120.72852581   245.76997427
 C     19  18  17     1.534000564451   110.68106494   274.02063527
 C     33  19  18     1.500429797211   115.39260457   133.16344150
 C     34  33  19     1.522687813323   115.36401010   175.69834206
 C     35  34  33     1.530142827932   112.34130896   181.55263508
 C     36  35  34     1.529891005148   113.21786680   179.84590278
 C     37  36  35     1.530165211899   113.40235371   180.47827455
 C     38  37  36     1.530265417298   113.50835085   179.90587900
 C     39  38  37     1.530175472186   113.51613705   180.19373505
 C     40  39  38     1.530973145946   113.58642256   179.95912333
 C     41  40  39     1.529839584280   113.12666866   180.07447467
 O     33  19  18     1.226111060291   120.30126327   311.06638691
 O     18  17  16     1.450031604343   109.67279132    54.40058707
 O     15  14  13     1.233630878255   122.62989758   186.25734245
 C     14  13  12     1.545950086448   109.57820241   118.33857122
 C     46  14  13     1.527823183157   115.14486910   194.55140234
 O     12  11  10     1.227080092907   122.51220349   195.68649263
 C     11  10   2     1.557581022826   114.59220836   301.02613808
 C     49  11  10     1.531891323934   111.74460913   328.41482037
 C     49  11  10     1.534726043353   110.08246950   205.95629502
 H      3   2   1     1.102194933595   106.06533408   118.97654344
 H      4   3   2     1.099748756033   109.56877954   149.23108012
 H      4   3   2     1.095611358173   110.75757609    28.62914072
 H      5   4   3     1.099385345565   109.70159145    79.06625622
 H      5   4   3     1.096971131481   113.33360652   199.97912680
 H      6   5   4     1.094736480741   112.09359082   148.47160371
 H      6   5   4     1.101776101526   112.10451170   271.30420845
 H     10   2   1     1.033088320962   114.99294097   183.76491963
 H     11  10   2     1.104390641768   104.82976284   183.94356170
 H     13  12  11     1.018650672678   116.46221149   341.09522525
 H     14  13  12     1.101683565019   106.36269859   359.47376645
 H     16  15  14     1.019231254727   114.53744584   355.29675589
 H     17  16  15     1.099183573617   108.37604948   331.80457600
 H     17  16  15     1.101397785596   110.04220083   213.92961449
 H     18  17  16     1.103205708042   110.03540934   175.25973407
 H     19  18  17     1.093217975971   110.40159575    35.27945132
 H     21  20  19     1.019705761886   116.05214209    10.98581365
 H     22  21  20     1.100571801382   105.68849341   183.52953161
 H     24  23  22     1.022324206404   120.16910097   358.96761158
 H     25  24  23     1.103258568291   104.53839616     8.59758913
 H     26  25  24     1.097757574481   109.09117889    56.87202543
 H     26  25  24     1.096683328718   110.85042676   177.15523424
 H     26  25  24     1.098209381485   110.98327028   296.47725124
 H     28  22  21     1.099826044565   106.90119861   186.63085054
 H     28  22  21     1.098467454644   108.61084983    71.38103267
 H     29  28  22     1.104695587496   107.96659600    59.83999371
 H     30  29  28     1.099695385699   111.17705910   303.48982860
 H     30  29  28     1.101282396052   110.80550679    63.31298959
 H     30  29  28     1.099704977062   111.16980726   183.08853689
 H     31  29  28     1.099928027664   112.41324187    62.83549094
 H     31  29  28     1.099362955895   110.88216726   182.53705344
 H     31  29  28     1.101548371142   110.74862065   302.12490733
 H     34  33  19     1.107502826988   106.55753643    51.20556091
 H     34  33  19     1.107599106233   106.57370815   301.37995609
 H     35  34  33     1.101563625752   109.24872090    59.21875892
 H     35  34  33     1.101975450040   109.36885445   303.97116758
 H     36  35  34     1.104463655399   109.37127549    57.74850447
 H     36  35  34     1.103822214045   109.42756425   302.20379436
 H     37  36  35     1.104170427910   109.28358623    58.19742661
 H     37  36  35     1.104352640294   109.28941840   302.72095696
 H     38  37  36     1.104355182629   109.27035279    57.66090166
 H     38  37  36     1.104201371200   109.29373526   302.21553982
 H     39  38  37     1.104371165154   109.28534543    57.90877752
 H     39  38  37     1.104450782047   109.27983062   302.45543645
 H     40  39  38     1.104554889523   109.30549329    57.69040822
 H     40  39  38     1.104501235078   109.31641967   302.25167336
 H     41  40  39     1.103418803472   109.12612785    57.73804484
 H     41  40  39     1.103455045656   109.12280182   302.40723434
 H     42  41  40     1.099437735414   111.65406489   179.99951276
 H     42  41  40     1.100716725431   111.08964463   300.23257961
 H     42  41  40     1.100738209990   111.08834726    59.76775845
 H     44  18  17     0.973643764920   107.90169137    69.13740449
 H     46  14  13     1.104211240770   108.87831880    69.71206184
 H     46  14  13     1.100740632817   105.76076256   315.98290394
 H     47  46  14     1.099423714641   110.05863544   177.39154675
 H     47  46  14     1.095860722179   111.52253263   298.31088191
 H     47  46  14     1.100078928238   110.75768764    58.31936842
 H     49  11  10     1.100055472448   107.41239481    87.54038407
 H     50  49  11     1.097443358627   112.54296339    66.01016856
 H     50  49  11     1.099230876671   109.51703034   185.37474615
 H     50  49  11     1.101563288547   111.43677886   304.28695969
 H     51  49  11     1.095233686426   111.25884501   303.24856932
 H     51  49  11     1.103002564319   110.37447382    64.11031113
 H     51  49  11     1.099612231963   110.21471743   182.73949734

---------------------------
INTERNAL COORDINATES (A.U.)
---------------------------
 O      0   0   0     0.000000000000     0.00000000     0.00000000
 C      1   0   0     2.326587291542     0.00000000     0.00000000
 C      2   1   0     2.933136503409   122.86176048     0.00000000
 C      3   2   1     2.887805115687   112.22278959   355.14507512
 C      4   3   2     2.896918256251   103.24752807   267.32147506
 C      5   4   3     2.891173727578   103.87329356   321.68564257
 N      6   5   4     2.800173004966   103.44382287    29.85141517
 C      7   6   5     2.560832037594   126.21935407   183.92939820
 O      8   7   6     2.358560021891   121.79941084   179.45180673
 N      2   1   3     2.572526289350   123.91491646   177.11172369
 C     10   2   1     2.761826727026   122.87201618   346.53267663
 C     11  10   2     2.921250324816   112.67702682    70.48058054
 N     12  11  10     2.591089763546   114.62862961    20.46934519
 C     13  12  11     2.752809265107   121.90418207   183.25250057
 C     14  13  12     2.912731758583   111.28691724   242.17061493
 N     15  14  13     2.584539307344   114.35746192     4.04797695
 C     16  15  14     2.731470307036   122.27080842   203.45105475
 C     17  16  15     2.911976976080   109.97550161    92.79355121
 C     18  17  16     2.905213359584   110.39267025   295.27613861
 C     19  18  17     2.901608991045   112.47419444   151.28493353
 N     20  19  18     2.562997824165   114.30102500    63.69598949
 C     21  20  19     2.757881196051   124.01762624   179.89580936
 C     22  21  20     2.914890743248   113.46441674    68.98166695
 N     23  22  21     2.571788665955   116.75274274     6.44231347
 C     24  23  22     2.751397550438   121.12652402   179.91404162
 C     25  24  23     2.885591258400   111.51002707   250.61334323
 O     23  22  21     2.328134078975   119.67882542   185.80117762
 C     22  21  20     2.910795387755   113.30568952   302.30864039
 C     28  22  21     2.899773917965   114.26837349   309.09483289
 C     29  28  22     2.896327953704   109.62191175   176.76270195
 C     29  28  22     2.896039941191   112.59925718   300.77743167
 O     20  19  18     2.327390644255   120.72852581   245.76997427
 C     19  18  17     2.898840956094   110.68106494   274.02063527
 C     33  19  18     2.835401399904   115.39260457   133.16344150
 C     34  33  19     2.877462954640   115.36401010   175.69834206
 C     35  34  33     2.891550890576   112.34130896   181.55263508
 C     36  35  34     2.891075014479   113.21786680   179.84590278
 C     37  36  35     2.891593190142   113.40235371   180.47827455
 C     38  37  36     2.891782550904   113.50835085   179.90587900
 C     39  38  37     2.891612579276   113.51613705   180.19373505
 C     40  39  38     2.893119964226   113.58642256   179.95912333
 C     41  40  39     2.890977843121   113.12666866   180.07447467
 O     33  19  18     2.317014113722   120.30126327   311.06638691
 O     18  17  16     2.740162617739   109.67279132    54.40058707
 O     15  14  13     2.331224510250   122.62989758   186.25734245
 C     14  13  12     2.921422280098   109.57820241   118.33857122
 C     46  14  13     2.887167397222   115.14486910   194.55140234
 O     12  11  10     2.318845319980   122.51220349   195.68649263
 C     11  10   2     2.943401564534   114.59220836   301.02613808
 C     49  11  10     2.894855069165   111.74460913   328.41482037
 C     49  11  10     2.900211912534   110.08246950   205.95629502
 H      3   2   1     2.082846570689   106.06533408   118.97654344
 H      4   3   2     2.078223965022   109.56877954   149.23108012
 H      4   3   2     2.070405416160   110.75757609    28.62914072
 H      5   4   3     2.077537218764   109.70159145    79.06625622
 H      5   4   3     2.072975015317   113.33360652   199.97912680
 H      6   5   4     2.068752137414   112.09359082   148.47160371
[...]
freq.      82.99  E(vib)   ...       0.48 
freq.      85.80  E(vib)   ...       0.48 
freq.      96.70  E(vib)   ...       0.46 
freq.      97.01  E(vib)   ...       0.46 
freq.     100.96  E(vib)   ...       0.46 
freq.     107.26  E(vib)   ...       0.45 
freq.     113.42  E(vib)   ...       0.45 
freq.     114.48  E(vib)   ...       0.44 
freq.     118.12  E(vib)   ...       0.44 
freq.     123.65  E(vib)   ...       0.43 
freq.     133.31  E(vib)   ...       0.42 
freq.     138.71  E(vib)   ...       0.42 
freq.     144.28  E(vib)   ...       0.41 
freq.     151.89  E(vib)   ...       0.40 
freq.     155.28  E(vib)   ...       0.40 
freq.     159.84  E(vib)   ...       0.39 
freq.     164.37  E(vib)   ...       0.39 
freq.     165.29  E(vib)   ...       0.39 
freq.     174.87  E(vib)   ...       0.38 
freq.     177.08  E(vib)   ...       0.37 
freq.     181.75  E(vib)   ...       0.37 
freq.     195.86  E(vib)   ...       0.36 
freq.     201.29  E(vib)   ...       0.35 
freq.     208.33  E(vib)   ...       0.34 
freq.     215.77  E(vib)   ...       0.34 
freq.     219.79  E(vib)   ...       0.33 
freq.     222.57  E(vib)   ...       0.33 
freq.     222.87  E(vib)   ...       0.33 
freq.     226.00  E(vib)   ...       0.33 
freq.     236.84  E(vib)   ...       0.32 
freq.     237.19  E(vib)   ...       0.32 
freq.     241.71  E(vib)   ...       0.31 
freq.     247.26  E(vib)   ...       0.31 
freq.     248.10  E(vib)   ...       0.31 
freq.     256.98  E(vib)   ...       0.30 
freq.     259.73  E(vib)   ...       0.30 
freq.     272.57  E(vib)   ...       0.29 
freq.     281.77  E(vib)   ...       0.28 
freq.     289.70  E(vib)   ...       0.27 
freq.     302.14  E(vib)   ...       0.26 
freq.     310.46  E(vib)   ...       0.26 
freq.     316.08  E(vib)   ...       0.25 
freq.     318.88  E(vib)   ...       0.25 
freq.     331.00  E(vib)   ...       0.24 
freq.     335.03  E(vib)   ...       0.24 
freq.     339.35  E(vib)   ...       0.23 
freq.     347.91  E(vib)   ...       0.23 
freq.     353.20  E(vib)   ...       0.22 
freq.     355.34  E(vib)   ...       0.22 
freq.     361.36  E(vib)   ...       0.22 
freq.     374.99  E(vib)   ...       0.21 
freq.     389.07  E(vib)   ...       0.20 
freq.     392.88  E(vib)   ...       0.20 
freq.     394.85  E(vib)   ...       0.20 
freq.     406.04  E(vib)   ...       0.19 
freq.     412.11  E(vib)   ...       0.19 
freq.     416.81  E(vib)   ...       0.18 
freq.     433.70  E(vib)   ...       0.17 
freq.     454.05  E(vib)   ...       0.16 
freq.     455.02  E(vib)   ...       0.16 
freq.     461.59  E(vib)   ...       0.16 
freq.     475.29  E(vib)   ...       0.15 
freq.     483.64  E(vib)   ...       0.15 
freq.     497.96  E(vib)   ...       0.14 
freq.     505.24  E(vib)   ...       0.14 
freq.     529.02  E(vib)   ...       0.13 
freq.     536.56  E(vib)   ...       0.12 
freq.     542.64  E(vib)   ...       0.12 
freq.     562.63  E(vib)   ...       0.11 
freq.     577.91  E(vib)   ...       0.11 
freq.     593.59  E(vib)   ...       0.10 
freq.     597.22  E(vib)   ...       0.10 
freq.     603.31  E(vib)   ...       0.10 
freq.     616.35  E(vib)   ...       0.09 
freq.     628.30  E(vib)   ...       0.09 
freq.     648.66  E(vib)   ...       0.08 
freq.     662.75  E(vib)   ...       0.08 
freq.     666.24  E(vib)   ...       0.08 
freq.     687.88  E(vib)   ...       0.07 
freq.     703.50  E(vib)   ...       0.07 
freq.     707.25  E(vib)   ...       0.07 
freq.     711.09  E(vib)   ...       0.07 
freq.     711.97  E(vib)   ...       0.07 
freq.     718.22  E(vib)   ...       0.07 
freq.     720.61  E(vib)   ...       0.07 
freq.     728.46  E(vib)   ...       0.06 
freq.     742.83  E(vib)   ...       0.06 
freq.     745.36  E(vib)   ...       0.06 
freq.     749.64  E(vib)   ...       0.06 
freq.     766.13  E(vib)   ...       0.06 
freq.     768.25  E(vib)   ...       0.06 
freq.     781.87  E(vib)   ...       0.05 
freq.     798.75  E(vib)   ...       0.05 
freq.     805.21  E(vib)   ...       0.05 
freq.     807.82  E(vib)   ...       0.05 
freq.     822.31  E(vib)   ...       0.05 
freq.     833.56  E(vib)   ...       0.04 
freq.     845.15  E(vib)   ...       0.04 
freq.     854.10  E(vib)   ...       0.04 
freq.     860.80  E(vib)   ...       0.04 
freq.     862.44  E(vib)   ...       0.04 
freq.     870.30  E(vib)   ...       0.04 
freq.     876.22  E(vib)   ...       0.04 
freq.     877.71  E(vib)   ...       0.04 
freq.     879.34  E(vib)   ...       0.04 
freq.     885.15  E(vib)   ...       0.04 
freq.     893.92  E(vib)   ...       0.03 
freq.     900.50  E(vib)   ...       0.03 
freq.     901.29  E(vib)   ...       0.03 
freq.     904.72  E(vib)   ...       0.03 
freq.     912.16  E(vib)   ...       0.03 
freq.     913.19  E(vib)   ...       0.03 
freq.     921.50  E(vib)   ...       0.03 
freq.     934.03  E(vib)   ...       0.03 
freq.     935.78  E(vib)   ...       0.03 
freq.     939.75  E(vib)   ...       0.03 
freq.     943.36  E(vib)   ...       0.03 
freq.     951.75  E(vib)   ...       0.03 
freq.     952.95  E(vib)   ...       0.03 
freq.     954.43  E(vib)   ...       0.03 
freq.     972.92  E(vib)   ...       0.03 
freq.     977.79  E(vib)   ...       0.03 
freq.     981.57  E(vib)   ...       0.02 
freq.     984.74  E(vib)   ...       0.02 
freq.     991.59  E(vib)   ...       0.02 
freq.    1000.18  E(vib)   ...       0.02 
freq.    1007.58  E(vib)   ...       0.02 
freq.    1021.01  E(vib)   ...       0.02 
freq.    1025.88  E(vib)   ...       0.02 
freq.    1031.77  E(vib)   ...       0.02 
freq.    1034.36  E(vib)   ...       0.02 
freq.    1037.73  E(vib)   ...       0.02 
freq.    1043.86  E(vib)   ...       0.02 
freq.    1045.38  E(vib)   ...       0.02 
freq.    1050.58  E(vib)   ...       0.02 
freq.    1052.67  E(vib)   ...       0.02 
freq.    1058.83  E(vib)   ...       0.02 
freq.    1063.15  E(vib)   ...       0.02 
freq.    1071.68  E(vib)   ...       0.02 
freq.    1080.29  E(vib)   ...       0.02 
freq.    1081.77  E(vib)   ...       0.02 
freq.    1092.88  E(vib)   ...       0.02 
freq.    1098.61  E(vib)   ...       0.02 
freq.    1102.82  E(vib)   ...       0.02 
freq.    1103.31  E(vib)   ...       0.02 
freq.    1106.65  E(vib)   ...       0.02 
freq.    1113.15  E(vib)   ...       0.01 
freq.    1115.21  E(vib)   ...       0.01 
freq.    1115.52  E(vib)   ...       0.01 
freq.    1121.80  E(vib)   ...       0.01 
freq.    1124.69  E(vib)   ...       0.01 
freq.    1134.40  E(vib)   ...       0.01 
freq.    1136.72  E(vib)   ...       0.01 
freq.    1151.08  E(vib)   ...       0.01 
freq.    1159.47  E(vib)   ...       0.01 
freq.    1163.02  E(vib)   ...       0.01 
freq.    1170.94  E(vib)   ...       0.01 
freq.    1173.96  E(vib)   ...       0.01 
freq.    1180.90  E(vib)   ...       0.01 
freq.    1186.12  E(vib)   ...       0.01 
freq.    1191.33  E(vib)   ...       0.01 
freq.    1194.56  E(vib)   ...       0.01 
freq.    1203.04  E(vib)   ...       0.01 
freq.    1204.60  E(vib)   ...       0.01 
freq.    1207.78  E(vib)   ...       0.01 
freq.    1218.00  E(vib)   ...       0.01 
freq.    1220.28  E(vib)   ...       0.01 
freq.    1220.73  E(vib)   ...       0.01 
freq.    1223.74  E(vib)   ...       0.01 
freq.    1232.82  E(vib)   ...       0.01 
freq.    1233.41  E(vib)   ...       0.01 
freq.    1237.13  E(vib)   ...       0.01 
freq.    1241.32  E(vib)   ...       0.01 
freq.    1243.14  E(vib)   ...       0.01 
freq.    1261.61  E(vib)   ...       0.01 
freq.    1262.21  E(vib)   ...       0.01 
freq.    1266.93  E(vib)   ...       0.01 
freq.    1270.21  E(vib)   ...       0.01 
freq.    1270.92  E(vib)   ...       0.01 
freq.    1279.02  E(vib)   ...       0.01 
freq.    1283.25  E(vib)   ...       0.01 
freq.    1283.39  E(vib)   ...       0.01 
freq.    1286.49  E(vib)   ...       0.01 
freq.    1289.89  E(vib)   ...       0.01 
freq.    1291.48  E(vib)   ...       0.01 
freq.    1294.40  E(vib)   ...       0.01 
freq.    1294.96  E(vib)   ...       0.01 
freq.    1296.45  E(vib)   ...       0.01 
freq.    1306.76  E(vib)   ...       0.01 
freq.    1310.08  E(vib)   ...       0.01 
freq.    1312.00  E(vib)   ...       0.01 
freq.    1312.44  E(vib)   ...       0.01 
freq.    1314.44  E(vib)   ...       0.01 
freq.    1317.42  E(vib)   ...       0.01 
freq.    1317.69  E(vib)   ...       0.01 
freq.    1319.36  E(vib)   ...       0.01 
freq.    1321.91  E(vib)   ...       0.01 
freq.    1328.00  E(vib)   ...       0.01 
freq.    1331.18  E(vib)   ...       0.01 
freq.    1333.83  E(vib)   ...       0.01 
freq.    1335.65  E(vib)   ...       0.01 
freq.    1337.19  E(vib)   ...       0.01 
freq.    1341.00  E(vib)   ...       0.01 
freq.    1344.24  E(vib)   ...       0.01 
freq.    1348.76  E(vib)   ...       0.01 
freq.    1351.54  E(vib)   ...       0.01 
freq.    1353.35  E(vib)   ...       0.01 
freq.    1357.63  E(vib)   ...       0.01 
freq.    1358.58  E(vib)   ...       0.01 
freq.    1360.81  E(vib)   ...       0.01 
freq.    1363.79  E(vib)   ...       0.01 
freq.    1364.03  E(vib)   ...       0.01 
freq.    1367.89  E(vib)   ...       0.01 
freq.    1372.20  E(vib)   ...       0.01 
freq.    1390.11  E(vib)   ...       0.00 
freq.    1390.73  E(vib)   ...       0.00 
freq.    1424.94  E(vib)   ...       0.00 
freq.    1427.63  E(vib)   ...       0.00 
freq.    1427.91  E(vib)   ...       0.00 
freq.    1433.56  E(vib)   ...       0.00 
freq.    1433.81  E(vib)   ...       0.00 
freq.    1434.20  E(vib)   ...       0.00 
freq.    1434.69  E(vib)   ...       0.00 
freq.    1437.33  E(vib)   ...       0.00 
freq.    1438.74  E(vib)   ...       0.00 
freq.    1439.21  E(vib)   ...       0.00 
freq.    1440.28  E(vib)   ...       0.00 
freq.    1443.14  E(vib)   ...       0.00 
freq.    1445.30  E(vib)   ...       0.00 
freq.    1445.71  E(vib)   ...       0.00 
freq.    1446.01  E(vib)   ...       0.00 
freq.    1451.03  E(vib)   ...       0.00 
freq.    1451.22  E(vib)   ...       0.00 
freq.    1451.69  E(vib)   ...       0.00 
freq.    1452.60  E(vib)   ...       0.00 
freq.    1453.31  E(vib)   ...       0.00 
freq.    1454.35  E(vib)   ...       0.00 
freq.    1456.51  E(vib)   ...       0.00 
freq.    1460.35  E(vib)   ...       0.00 
freq.    1460.63  E(vib)   ...       0.00 
freq.    1464.94  E(vib)   ...       0.00 
freq.    1466.70  E(vib)   ...       0.00 
freq.    1469.90  E(vib)   ...       0.00 
freq.    1470.61  E(vib)   ...       0.00 
freq.    1481.89  E(vib)   ...       0.00 
freq.    1496.33  E(vib)   ...       0.00 
freq.    1512.82  E(vib)   ...       0.00 
freq.    1532.01  E(vib)   ...       0.00 
freq.    1605.80  E(vib)   ...       0.00 
freq.    1669.63  E(vib)   ...       0.00 
freq.    1671.04  E(vib)   ...       0.00 
freq.    1683.32  E(vib)   ...       0.00 
freq.    1685.75  E(vib)   ...       0.00 
freq.    1691.46  E(vib)   ...       0.00 
freq.    1693.25  E(vib)   ...       0.00 
freq.    2920.36  E(vib)   ...       0.00 
freq.    2924.96  E(vib)   ...       0.00 
freq.    2926.50  E(vib)   ...       0.00 
freq.    2928.45  E(vib)   ...       0.00 
freq.    2930.11  E(vib)   ...       0.00 
freq.    2933.13  E(vib)   ...       0.00 
freq.    2939.11  E(vib)   ...       0.00 
freq.    2939.84  E(vib)   ...       0.00 
freq.    2942.59  E(vib)   ...       0.00 
freq.    2942.86  E(vib)   ...       0.00 
freq.    2944.67  E(vib)   ...       0.00 
freq.    2945.96  E(vib)   ...       0.00 
freq.    2947.80  E(vib)   ...       0.00 
freq.    2948.43  E(vib)   ...       0.00 
freq.    2953.06  E(vib)   ...       0.00 
freq.    2953.88  E(vib)   ...       0.00 
freq.    2956.15  E(vib)   ...       0.00 
freq.    2956.95  E(vib)   ...       0.00 
freq.    2957.19  E(vib)   ...       0.00 
freq.    2959.29  E(vib)   ...       0.00 
freq.    2960.41  E(vib)   ...       0.00 
freq.    2963.13  E(vib)   ...       0.00 
freq.    2963.88  E(vib)   ...       0.00 
freq.    2965.84  E(vib)   ...       0.00 
freq.    2967.62  E(vib)   ...       0.00 
freq.    2969.24  E(vib)   ...       0.00 
freq.    2970.49  E(vib)   ...       0.00 
freq.    2978.76  E(vib)   ...       0.00 
freq.    2982.34  E(vib)   ...       0.00 
freq.    2986.39  E(vib)   ...       0.00 
freq.    2986.53  E(vib)   ...       0.00 
freq.    2987.03  E(vib)   ...       0.00 
freq.    2987.86  E(vib)   ...       0.00 
freq.    2990.92  E(vib)   ...       0.00 
freq.    2991.54  E(vib)   ...       0.00 
freq.    2995.57  E(vib)   ...       0.00 
freq.    2997.67  E(vib)   ...       0.00 
freq.    3002.07  E(vib)   ...       0.00 
freq.    3015.98  E(vib)   ...       0.00 
freq.    3018.12  E(vib)   ...       0.00 
freq.    3020.35  E(vib)   ...       0.00 
freq.    3021.92  E(vib)   ...       0.00 
freq.    3027.14  E(vib)   ...       0.00 
freq.    3027.69  E(vib)   ...       0.00 
freq.    3027.96  E(vib)   ...       0.00 
freq.    3029.19  E(vib)   ...       0.00 
freq.    3029.32  E(vib)   ...       0.00 
freq.    3030.49  E(vib)   ...       0.00 
freq.    3036.34  E(vib)   ...       0.00 
freq.    3045.07  E(vib)   ...       0.00 
freq.    3045.31  E(vib)   ...       0.00 
freq.    3053.43  E(vib)   ...       0.00 
freq.    3059.89  E(vib)   ...       0.00 
freq.    3063.76  E(vib)   ...       0.00 
freq.    3065.57  E(vib)   ...       0.00 
freq.    3066.89  E(vib)   ...       0.00 
freq.    3073.53  E(vib)   ...       0.00 
freq.    3074.45  E(vib)   ...       0.00 
freq.    3206.95  E(vib)   ...       0.00 
freq.    3399.67  E(vib)   ...       0.00 
freq.    3446.27  E(vib)   ...       0.00 
freq.    3450.97  E(vib)   ...       0.00 
freq.    3470.58  E(vib)   ...       0.00 
freq.    3674.46  E(vib)   ...       0.00 

------------
INNER ENERGY
------------

The inner energy is: U= E(el) + E(ZPE) + E(vib) + E(rot) + E(trans)
    E(el)   - is the total energy from the electronic structure calculation
              = E(kin-el) + E(nuc-el) + E(el-el) + E(nuc-nuc)
    E(ZPE)  - the the zero temperature vibrational energy from the frequency calculation
    E(vib)  - the the finite temperature correction to E(ZPE) due to population
              of excited vibrational states
    E(rot)  - is the rotational thermal energy
    E(trans)- is the translational thermal energy

Summary of contributions to the inner energy U:
Electronic energy                ...  -2380.07717145 Eh
Zero point energy                ...      0.97711509 Eh     613.15 kcal/mol
Thermal vibrational correction   ...      0.05584579 Eh      35.04 kcal/mol
Thermal rotational correction    ...      0.00141627 Eh       0.89 kcal/mol
Thermal translational correction ...      0.00141627 Eh       0.89 kcal/mol
-----------------------------------------------------------------------
Total thermal energy                  -2379.04137802 Eh


Summary of corrections to the electronic energy:
(perhaps to be used in another calculation)
Total thermal correction                  0.05867833 Eh      36.82 kcal/mol
Non-thermal (ZPE) correction              0.97711509 Eh     613.15 kcal/mol
-----------------------------------------------------------------------
Total correction                          1.03579342 Eh     649.97 kcal/mol


--------
ENTHALPY
--------

The enthalpy is H = U + kB*T
                kB is Boltzmann's constant
Total free energy                 ...  -2379.04137802 Eh 
Thermal Enthalpy correction       ...      0.00094421 Eh       0.59 kcal/mol
-----------------------------------------------------------------------
Total Enthalpy                    ...  -2379.04043381 Eh


Note: Only C1 symmetry has been detected, increase convergence thresholds 
      if your molecule has a higher symmetry. Symmetry factor of 1.0 is   
      used for the rotational entropy correction. 
 

Note: Rotational entropy computed according to Herzberg 
Infrared and Raman Spectra, Chapter V,1, Van Nostrand Reinhold, 1945 
Point Group:  C1, Symmetry Number:   1  
Rotational constants in cm-1:     0.002467     0.000950     0.000791 

Vibrational entropy computed according to the QRRHO of S. Grimme
Chem.Eur.J. 2012 18 9955


-------
ENTROPY
-------

The entropy contributions are T*S = T*(S(el)+S(vib)+S(rot)+S(trans))
     S(el)   - electronic entropy
     S(vib)  - vibrational entropy
     S(rot)  - rotational entropy
     S(trans)- translational entropy
The entropies will be listed as mutliplied by the temperature to get
units of energy

Electronic entropy                ...      0.00000000 Eh      0.00 kcal/mol
Vibrational entropy               ...      0.10368779 Eh     65.06 kcal/mol
Rotational entropy                ...      0.01900218 Eh     11.92 kcal/mol
Translational entropy             ...      0.02166895 Eh     13.60 kcal/mol
-----------------------------------------------------------------------
Final entropy term                ...      0.14435892 Eh     90.59 kcal/mol

In case the symmetry of your molecule has not been determined correctly
or in case you have a reason to use a different symmetry number we print 
out the resulting rotational entropy values for sn=1,12 :
 --------------------------------------------------------
|  sn= 1 | S(rot)=       0.01900218 Eh     11.92 kcal/mol|
|  sn= 2 | S(rot)=       0.01834772 Eh     11.51 kcal/mol|
|  sn= 3 | S(rot)=       0.01796489 Eh     11.27 kcal/mol|
|  sn= 4 | S(rot)=       0.01769327 Eh     11.10 kcal/mol|
|  sn= 5 | S(rot)=       0.01748258 Eh     10.97 kcal/mol|
|  sn= 6 | S(rot)=       0.01731044 Eh     10.86 kcal/mol|
|  sn= 7 | S(rot)=       0.01716489 Eh     10.77 kcal/mol|
|  sn= 8 | S(rot)=       0.01703881 Eh     10.69 kcal/mol|
|  sn= 9 | S(rot)=       0.01692760 Eh     10.62 kcal/mol|
|  sn=10 | S(rot)=       0.01682812 Eh     10.56 kcal/mol|
|  sn=11 | S(rot)=       0.01673813 Eh     10.50 kcal/mol|
|  sn=12 | S(rot)=       0.01665598 Eh     10.45 kcal/mol|
 --------------------------------------------------------


-------------------
GIBBS FREE ENERGY
-------------------

The Gibbs free energy is G = H - T*S

Total enthalpy                    ...  -2379.04043381 Eh 
Total entropy correction          ...     -0.14435892 Eh    -90.59 kcal/mol
-----------------------------------------------------------------------
Final Gibbs free energy         ...  -2379.18479274 Eh

For completeness - the Gibbs free energy minus the electronic energy
G-E(el)                           ...      0.89237871 Eh    559.97 kcal/mol

--------------------------------------------------------------------------
WARNING: No preset parameters were found for the device that Open MPI
detected:

  Local host:            eu-g1-018-4
  Device name:           mlx5_0
  Device vendor ID:      0x02c9
  Device vendor part ID: 4123

Default device parameters will be used, which may result in lower
performance.  You can edit any of the files specified by the
btl_openib_device_param_files MCA parameter to set values for your
device.

NOTE: You can turn off this warning by setting the MCA parameter
      btl_openib_warn_no_device_params_found to 0.
--------------------------------------------------------------------------
--------------------------------------------------------------------------
WARNING: There was an error initializing an OpenFabrics device.

  Local host:   eu-g1-018-4
  Local device: mlx5_0
--------------------------------------------------------------------------

Timings for individual modules:

Sum of individual times         ...    26980.601 sec (= 449.677 min)
GTO integral calculation        ...       16.378 sec (=   0.273 min)   0.1 %
SCF iterations                  ...      367.295 sec (=   6.122 min)   1.4 %
SCF Gradient evaluation         ...       72.647 sec (=   1.211 min)   0.3 %
Geometry relaxation             ...        4.485 sec (=   0.075 min)   0.0 %
Analytical frequency calculation...    26519.795 sec (= 441.997 min)  98.3 %
                             ****ORCA TERMINATED NORMALLY****
TOTAL RUN TIME: 0 days 7 hours 39 minutes 47 seconds 407 msec
