
                                 *****************
                                 * O   R   C   A *
                                 *****************

           --- An Ab Initio, DFT and Semiempirical electronic structure package ---

                  #######################################################
                  #                        -***-                        #
                  #          Department of theory and spectroscopy      #
                  #               Directorship: Frank Neese             #
                  #        Max Planck Institute fuer Kohlenforschung    #
                  #                Kaiser Wilhelm Platz 1               #
                  #                 D-45470 Muelheim/Ruhr               #
                  #                      Germany                        #
                  #                                                     #
                  #                  All rights reserved                #
                  #                        -***-                        #
                  #######################################################


                         Program Version 4.2.0 -  RELEASE  -


 With contributions from (in alphabetic order):
   Daniel Aravena         : Magnetic Suceptibility
   Michael Atanasov       : Ab Initio Ligand Field Theory (pilot matlab implementation)
   Alexander A. Auer      : GIAO ZORA, VPT2
   Ute Becker             : Parallelization
   Giovanni Bistoni       : ED, misc. LED, open-shell LED, HFLED
   Martin Brehm           : Molecular dynamics
   Dmytro Bykov           : SCF Hessian
   Vijay G. Chilkuri      : MRCI spin determinant printing, contributions to CSF-ICE
   Dipayan Datta          : RHF DLPNO-CCSD density
   Achintya Kumar Dutta   : EOM-CC, STEOM-CC
   Dmitry Ganyushin       : Spin-Orbit,Spin-Spin,Magnetic field MRCI
   Miquel Garcia          : C-PCM Hessian, Gaussian charge scheme
   Yang Guo               : DLPNO-NEVPT2, CIM, IAO-localization
   Andreas Hansen         : Spin unrestricted coupled pair/coupled cluster methods
   Benjamin Helmich-Paris : CASSCF linear response (MC-RPA)
   Lee Huntington         : MR-EOM, pCC
   Robert Izsak           : Overlap fitted RIJCOSX, COSX-SCS-MP3, EOM
   Christian Kollmar      : KDIIS, OOCD, Brueckner-CCSD(T), CCSD density
   Simone Kossmann        : Meta GGA functionals, TD-DFT gradient, OOMP2, MP2 Hessian
   Martin Krupicka        : AUTO-CI
   Lucas Lang             : DCDCAS
   Dagmar Lenk            : GEPOL surface, SMD
   Dimitrios Liakos       : Extrapolation schemes; Compound Job, initial MDCI parallelization
   Dimitrios Manganas     : Further ROCIS development; embedding schemes
   Dimitrios Pantazis     : SARC Basis sets
   Taras Petrenko         : DFT Hessian,TD-DFT gradient, ASA, ECA, R-Raman, ABS, FL, XAS/XES, NRVS
   Peter Pinski           : DLPNO-MP2, DLPNO-MP2 Gradient
   Christoph Reimann      : Effective Core Potentials
   Marius Retegan         : Local ZFS, SOC
   Christoph Riplinger    : Optimizer, TS searches, QM/MM, DLPNO-CCSD(T), (RO)-DLPNO pert. Triples
   Tobias Risthaus        : Range-separated hybrids, TD-DFT gradient, RPA, STAB
   Michael Roemelt        : Original ROCIS implementation
   Masaaki Saitow         : Open-shell DLPNO-CCSD energy and density
   Barbara Sandhoefer     : DKH picture change effects
   Avijit Sen             : IP-ROCIS
   Kantharuban Sivalingam : CASSCF convergence, NEVPT2, FIC-MRCI
   Bernardo de Souza      : ESD, SOC TD-DFT
   Georgi Stoychev        : AutoAux, RI-MP2 NMR
   Willem Van den Heuvel  : Paramagnetic NMR
   Boris Wezisla          : Elementary symmetry handling
   Frank Wennmohs         : Technical directorship


 We gratefully acknowledge several colleagues who have allowed us to
 interface, adapt or use parts of their codes:
   Stefan Grimme, W. Hujo, H. Kruse,             : VdW corrections, initial TS optimization,
                  C. Bannwarth                     DFT functionals, gCP, sTDA/sTD-DF
   Ed Valeev, F. Pavosevic, A. Kumar             : LibInt (2-el integral package), F12 methods
   Garnet Chan, S. Sharma, J. Yang, R. Olivares  : DMRG
   Ulf Ekstrom                                   : XCFun DFT Library
   Mihaly Kallay                                 : mrcc  (arbitrary order and MRCC methods)
   Andreas Klamt, Michael Diedenhofen            : otool_cosmo (COSMO solvation model)
   Jiri Pittner, Ondrej Demel                    : Mk-CCSD
   Frank Weinhold                                : gennbo (NPA and NBO analysis)
   Christopher J. Cramer and Donald G. Truhlar   : smd solvation model
   Lars Goerigk                                  : TD-DFT with DH, B97 family of functionals
   V. Asgeirsson, H. Jonsson                     : NEB implementation
   FAccTs GmbH                                   : IRC, NEB, NEB-TS, Multilevel, MM, QM/MM, CI optimization
   S Lehtola, MJT Oliveira, MAL Marques          : LibXC Library


 Your calculation uses the libint2 library for the computation of 2-el integrals
 For citations please refer to: http://libint.valeyev.net

 Your ORCA version has been built with support for libXC version: 4.2.3
 For citations please refer to: https://tddft.org/programs/libxc/

 This ORCA versions uses:
   CBLAS   interface :  Fast vector & matrix operations
   LAPACKE interface :  Fast linear algebra routines
   SCALAPACK package :  Parallel linear algebra routines




***************************************
The coordinates will be read from file: 80.xyz
***************************************


Your calculation utilizes the atom-pairwise dispersion correction
with the Becke-Johnson damping scheme (D3BJ)
Cite in your paper:
S.Grimme, S.Ehrlich, L.Goerigk, J Comput Chem, (2011), 32, 1456–1465 
S.Grimme, J.Antony, S.Ehrlich and H.Krieg, J.Chem.Phys., 132, (2010), 154104 
   

----- Orbital basis set information -----
Your calculation utilizes the basis: def2-TZVP
   F. Weigend and R. Ahlrichs, Phys. Chem. Chem. Phys. 7, 3297 (2005).

----- AuxJ basis set information -----
Your calculation utilizes the auxiliary basis: def2/J
   F. Weigend, Phys. Chem. Chem. Phys. 8, 1057 (2006).

================================================================================
                                        WARNINGS
                       Please study these warnings very carefully!
================================================================================


WARNING: Geometry Optimization
  ===> : Switching off AutoStart
         For restart on a previous wavefunction, please use MOREAD

INFO   : the flag for use of LIBINT has been found!

================================================================================
                                       INPUT FILE
================================================================================
NAME = 80.inp
|  1> !RI BP86 def2-tzvp def2/J D3BJ TIGHTSCF TightOpt Grid5 FinalGrid6 freq
|  2> %maxcore 4000
|  3> %pal nprocs 24
|  4> end
|  5> * xyzfile 0 1 80.xyz 
|  6> 
|  7>                          ****END OF INPUT****
================================================================================

                       *****************************
                       * Geometry Optimization Run *
                       *****************************

Geometry optimization settings:
Update method            Update   .... BFGS
Choice of coordinates    CoordSys .... Z-matrix Internals
Initial Hessian          InHess   .... Almoef's Model

Convergence Tolerances:
Energy Change            TolE     ....  1.0000e-06 Eh
Max. Gradient            TolMAXG  ....  1.0000e-04 Eh/bohr
RMS Gradient             TolRMSG  ....  3.0000e-05 Eh/bohr
Max. Displacement        TolMAXD  ....  1.0000e-03 bohr
RMS Displacement         TolRMSD  ....  6.0000e-04 bohr
Strict Convergence                ....  False
------------------------------------------------------------------------------
                        ORCA OPTIMIZATION COORDINATE SETUP
------------------------------------------------------------------------------

The optimization will be done in new redundant internal coordinates
Making redundant internal coordinates   ...  (new redundants) done
Evaluating the initial hessian          ...  (Almloef) done
Evaluating the coordinates              ...  done
Calculating the B-matrix                .... done
Calculating the G-matrix                .... done
Diagonalizing the G-matrix              .... done
Small eigenvalue found = 1.263e-03
Small eigenvalue found = 1.813e-03
Small eigenvalue found = 2.910e-03
Small eigenvalue found = 3.325e-03
Small eigenvalue found = 3.913e-03
Small eigenvalue found = 5.752e-03
Small eigenvalue found = 8.026e-03
Small eigenvalue found = 8.950e-03
Small eigenvalue found = 1.005e-02
Small eigenvalue found = 1.143e-02
Small eigenvalue found = 1.490e-02
Small eigenvalue found = 1.743e-02
Small eigenvalue found = 1.937e-02
Small eigenvalue found = 2.073e-02
Small eigenvalue found = 2.305e-02
Small eigenvalue found = 2.324e-02
Small eigenvalue found = 2.650e-02
Small eigenvalue found = 2.854e-02
The first mode is                       ....  328
The number of degrees of freedom        ....  339

    -----------------------------------------------------------------
                    Redundant Internal Coordinates


    -----------------------------------------------------------------
         Definition                    Initial Value    Approx d2E/dq
    -----------------------------------------------------------------
      1. B(C   1,O   0)                  1.2277         1.015815   
      2. B(C   2,C   1)                  1.5352         0.366507   
      3. B(C   3,C   2)                  1.5491         0.348265   
      4. B(C   4,C   3)                  1.5329         0.369596   
      5. B(C   5,C   4)                  1.5296         0.374080   
      6. B(N   6,C   2)                  1.4761         0.407898   
      7. B(N   6,C   5)                  1.4725         0.413276   
      8. B(C   7,N   6)                  1.3615         0.621454   
      9. B(O   8,C   7)                  1.2372         0.981025   
     10. B(N   9,C   1)                  1.3676         0.607666   
     11. B(C  10,N   9)                  1.4666         0.422414   
     12. B(C  11,C  10)                  1.5356         0.365993   
     13. B(N  12,C  11)                  1.3604         0.623825   
     14. B(C  13,N  12)                  1.4585         0.435070   
     15. B(C  14,C  13)                  1.5380         0.362747   
     16. B(N  15,C  14)                  1.3589         0.627255   
     17. B(C  16,N  15)                  1.4503         0.448380   
     18. B(C  17,C  16)                  1.5330         0.369497   
     19. B(C  18,C  17)                  1.5710         0.321338   
     20. B(C  19,C  18)                  1.5331         0.369330   
     21. B(N  20,C  19)                  1.3687         0.605244   
     22. B(C  21,N  20)                  1.4654         0.424140   
     23. B(C  22,C  21)                  1.5545         0.341403   
     24. B(N  23,C  22)                  1.3589         0.627284   
     25. B(C  24,N  23)                  1.4495         0.449697   
     26. B(C  24,C   7)                  1.5302         0.373303   
     27. B(C  25,C  24)                  1.5410         0.358829   
     28. B(O  26,C  22)                  1.2279         1.015168   
     29. B(C  27,C  21)                  1.5368         0.364355   
     30. B(C  28,C  27)                  1.5388         0.361630   
     31. B(C  29,C  28)                  1.5323         0.370492   
     32. B(C  30,C  28)                  1.5334         0.368963   
     33. B(O  31,C  19)                  1.2270         1.018416   
     34. B(C  32,C  18)                  1.5365         0.364811   
     35. B(C  33,C  32)                  1.5125         0.398313   
     36. B(C  34,C  33)                  1.5384         0.362173   
     37. B(C  35,C  34)                  1.5290         0.374918   
     38. B(C  36,C  35)                  1.5282         0.375987   
     39. B(C  37,C  36)                  1.5306         0.372766   
     40. B(C  38,C  37)                  1.5289         0.375085   
     41. B(C  39,C  38)                  1.5303         0.373111   
     42. B(C  40,C  39)                  1.5308         0.372530   
     43. B(C  41,C  40)                  1.5298         0.373790   
     44. B(O  42,C  32)                  1.2293         1.009977   
     45. B(O  43,C  17)                  1.4222         0.497117   
     46. B(O  44,C  14)                  1.2296         1.008832   
     47. B(C  45,C  13)                  1.5352         0.366509   
     48. B(C  46,C  45)                  1.5301         0.373407   
     49. B(O  47,C  11)                  1.2359         0.985592   
     50. B(C  48,C  10)                  1.5573         0.337933   
     51. B(C  49,C  48)                  1.5310         0.372272   
     52. B(C  50,C  48)                  1.5313         0.371743   
     53. B(H  51,C   2)                  1.0991         0.348240   
     54. B(H  52,C   3)                  1.0947         0.353989   
     55. B(H  53,C   3)                  1.1007         0.346180   
     56. B(H  54,C   4)                  1.0971         0.350832   
     57. B(H  55,C   4)                  1.1002         0.346906   
     58. B(H  56,C   5)                  1.1032         0.343047   
     59. B(H  57,C   5)                  1.0940         0.354904   
     60. B(H  58,O  42)                  2.0613         0.009098   
     61. B(H  58,N   9)                  1.0233         0.412110   
     62. B(H  59,C  10)                  1.1012         0.345590   
     63. B(H  60,N  12)                  1.0172         0.421459   
     64. B(H  61,C  13)                  1.1022         0.344343   
     65. B(H  62,N  15)                  1.0194         0.417963   
     66. B(H  63,C  16)                  1.0963         0.351868   
     67. B(H  64,C  16)                  1.0980         0.349711   
     68. B(H  65,C  17)                  1.1017         0.344913   
     69. B(H  66,C  18)                  1.0997         0.347453   
     70. B(H  67,N  20)                  1.0142         0.426057   
     71. B(H  68,C  21)                  1.1034         0.342741   
     72. B(H  69,N  23)                  1.0181         0.420067   
     73. B(H  70,H  62)                  4.3367         0.000000   
     74. B(H  70,C  24)                  1.0999         0.347247   
     75. B(H  71,C  25)                  1.0959         0.352402   
     76. B(H  72,C  25)                  1.0991         0.348299   
     77. B(H  73,C  25)                  1.0977         0.350009   
     78. B(H  74,C  27)                  1.0995         0.347795   
     79. B(H  75,C  27)                  1.0999         0.347244   
     80. B(H  76,C  28)                  1.1070         0.338241   
     81. B(H  77,C  29)                  1.0999         0.347180   
     82. B(H  78,C  29)                  1.1007         0.346161   
     83. B(H  79,C  29)                  1.0995         0.347792   
     84. B(H  80,C  30)                  1.0996         0.347612   
     85. B(H  81,C  30)                  1.0997         0.347472   
     86. B(H  82,C  30)                  1.0986         0.348951   
     87. B(H  83,C  33)                  1.0975         0.350251   
     88. B(H  84,C  33)                  1.1028         0.343510   
     89. B(H  85,C  34)                  1.1006         0.346303   
     90. B(H  86,C  34)                  1.0998         0.347355   
     91. B(H  87,H  69)                  1.9778         0.002643   
     92. B(H  87,C  35)                  1.1041         0.341964   
     93. B(H  88,C  35)                  1.1054         0.340309   
     94. B(H  89,C  36)                  1.1029         0.343486   
     95. B(H  90,C  36)                  1.0998         0.347358   
     96. B(H  91,C  37)                  1.1055         0.340214   
     97. B(H  92,C  37)                  1.1049         0.340937   
     98. B(H  93,C  38)                  1.1036         0.342566   
     99. B(H  94,C  38)                  1.1035         0.342737   
    100. B(H  95,H  80)                  3.7352         0.000004   
    101. B(H  95,C  39)                  1.1047         0.341222   
    102. B(H  96,C  39)                  1.1044         0.341513   
    103. B(H  97,C  40)                  1.1030         0.343316   
    104. B(H  98,H  73)                  4.7813         0.000000   
    105. B(H  98,C  40)                  1.1030         0.343315   
    106. B(H  99,C  41)                  1.0991         0.348271   
    107. B(H 100,C  41)                  1.1004         0.346547   
    108. B(H 101,C  41)                  1.1004         0.346556   
    109. B(H 102,O  43)                  0.9840         0.476040   
    110. B(H 103,C  45)                  1.0987         0.348836   
    111. B(H 104,H  56)                  3.5016         0.000010   
    112. B(H 104,C  45)                  1.1027         0.343728   
    113. B(H 105,C  46)                  1.0984         0.349214   
    114. B(H 106,C  46)                  1.0994         0.347928   
    115. B(H 107,C  46)                  1.1006         0.346313   
    116. B(H 108,C  48)                  1.0972         0.350750   
    117. B(H 109,C  49)                  1.0993         0.348013   
    118. B(H 110,C  49)                  1.0997         0.347461   
    119. B(H 111,C  49)                  1.0984         0.349145   
    120. B(H 112,C  50)                  1.0990         0.348449   
    121. B(H 113,C  50)                  1.0988         0.348703   
    122. B(H 114,H 102)                  4.5858         0.000000   
    123. B(H 114,C  50)                  1.0986         0.348849   
    124. A(O   0,C   1,N   9)          126.2159         0.466818   
    125. A(C   2,C   1,N   9)          115.0990         0.391457   
    126. A(O   0,C   1,C   2)          118.3529         0.428759   
    127. A(C   1,C   2,H  51)          105.8627         0.321534   
    128. A(N   6,C   2,H  51)          108.7378         0.325274   
    129. A(C   1,C   2,N   6)          117.7267         0.365364   
    130. A(C   1,C   2,C   3)          108.9397         0.357865   
    131. A(C   3,C   2,H  51)          111.9272         0.318863   
    132. A(C   3,C   2,N   6)          103.7757         0.362189   
    133. A(C   4,C   3,H  53)          110.0229         0.321664   
    134. A(C   4,C   3,H  52)          114.0895         0.322842   
    135. A(C   2,C   3,C   4)          104.4063         0.358376   
    136. A(C   2,C   3,H  53)          109.4534         0.318554   
    137. A(C   2,C   3,H  52)          111.3122         0.319716   
    138. A(H  52,C   3,H  53)          107.5099         0.288273   
    139. A(H  54,C   4,H  55)          108.1692         0.287964   
    140. A(C   3,C   4,H  55)          110.5363         0.321774   
    141. A(C   3,C   4,C   5)          102.8286         0.362771   
    142. A(C   3,C   4,H  54)          113.0883         0.322368   
    143. A(C   5,C   4,H  55)          109.5195         0.322410   
    144. A(C   5,C   4,H  54)          112.6234         0.323006   
    145. A(H  56,C   5,H  57)          108.0127         0.287980   
    146. A(C   4,C   5,N   6)          102.8284         0.367471   
    147. A(C   4,C   5,H  56)          111.2135         0.321820   
    148. A(N   6,C   5,H  57)          111.4997         0.326995   
    149. A(N   6,C   5,H  56)          110.0110         0.325171   
    150. A(C   4,C   5,H  57)          113.2365         0.323618   
    151. A(C   5,N   6,C   7)          127.1054         0.398803   
    152. A(C   2,N   6,C   7)          119.3063         0.397886   
    153. A(C   2,N   6,C   5)          111.7117         0.370643   
    154. A(O   8,C   7,C  24)          120.7099         0.427494   
    155. A(N   6,C   7,O   8)          121.1813         0.465758   
    156. A(N   6,C   7,C  24)          118.0240         0.394264   
    157. A(C   1,N   9,C  10)          125.6835         0.398764   
    158. A(C  10,N   9,H  58)          112.6284         0.333521   
    159. A(C   1,N   9,H  58)          114.6797         0.354498   
    160. A(C  48,C  10,H  59)          107.1704         0.316907   
    161. A(C  11,C  10,H  59)          106.0971         0.321059   
    162. A(N   9,C  10,C  11)          108.8880         0.367472   
    163. A(N   9,C  10,C  48)          113.8769         0.362489   
    164. A(N   9,C  10,H  59)          110.1024         0.326740   
    165. A(C  11,C  10,C  48)          110.4153         0.355953   
    166. A(N  12,C  11,O  47)          122.9838         0.466479   
    167. A(C  10,C  11,O  47)          121.7719         0.426337   
    168. A(C  10,C  11,N  12)          115.2148         0.393162   
    169. A(C  13,N  12,H  60)          118.5143         0.336413   
    170. A(C  11,N  12,C  13)          123.2270         0.402698   
    171. A(C  11,N  12,H  60)          116.1055         0.357439   
    172. A(C  14,C  13,C  45)          109.6190         0.360356   
    173. A(N  12,C  13,H  61)          109.2114         0.328138   
    174. A(C  14,C  13,H  61)          104.2266         0.320402   
    175. A(N  12,C  13,C  14)          114.1377         0.368774   
    176. A(C  45,C  13,H  61)          109.3909         0.320943   
    177. A(N  12,C  13,C  45)          110.0425         0.369428   
    178. A(C  13,C  14,N  15)          115.8656         0.392927   
    179. A(N  15,C  14,O  44)          124.7597         0.468947   
    180. A(C  13,C  14,O  44)          119.3303         0.427438   
    181. A(C  14,N  15,H  62)          119.4631         0.357266   
    182. A(C  16,N  15,H  62)          117.8027         0.337637   
    183. A(C  14,N  15,C  16)          121.8278         0.405237   
    184. A(H  63,C  16,H  64)          109.7873         0.288460   
    185. A(C  17,C  16,H  64)          107.7700         0.322185   
    186. A(N  15,C  16,H  63)          110.3775         0.330956   
    187. A(C  17,C  16,H  63)          109.9040         0.322510   
    188. A(N  15,C  16,C  17)          112.4025         0.371867   
    189. A(N  15,C  16,H  64)          106.4909         0.330620   
    190. A(O  43,C  17,H  65)          105.7215         0.335557   
    191. A(C  18,C  17,H  65)          105.5444         0.314224   
    192. A(C  16,C  17,H  65)          106.3377         0.321457   
    193. A(C  16,C  17,C  18)          117.0365         0.353498   
    194. A(C  18,C  17,O  43)          108.9520         0.369542   
    195. A(C  16,C  17,O  43)          112.3823         0.378551   
    196. A(C  19,C  18,H  66)          109.3339         0.321819   
    197. A(C  17,C  18,H  66)          104.9059         0.314599   
    198. A(C  17,C  18,C  32)          111.8195         0.352735   
    199. A(C  17,C  18,C  19)          116.8281         0.353471   
    200. A(C  19,C  18,C  32)          106.9767         0.361177   
    201. A(C  32,C  18,H  66)          106.5206         0.321171   
    202. A(C  18,C  19,N  20)          113.3785         0.391709   
    203. A(N  20,C  19,O  31)          121.8054         0.466695   
    204. A(C  18,C  19,O  31)          124.5035         0.429547   
    205. A(C  19,N  20,H  67)          119.1144         0.356264   
    206. A(C  19,N  20,C  21)          122.3847         0.398769   
    207. A(C  21,N  20,H  67)          118.4934         0.335597   
    208. A(C  27,C  21,H  68)          109.1012         0.320389   
    209. A(C  22,C  21,H  68)          106.2492         0.317007   
    210. A(N  20,C  21,H  68)          104.9194         0.326514   
    211. A(N  20,C  21,C  22)          109.9124         0.363375   
    212. A(C  22,C  21,C  27)          112.0150         0.356300   
    213. A(N  20,C  21,C  27)          114.1031         0.367446   
    214. A(C  21,C  22,N  23)          113.9903         0.388787   
    215. A(C  21,C  22,O  26)          122.9620         0.423298   
    216. A(N  23,C  22,O  26)          122.9799         0.469490   
    217. A(C  22,N  23,C  24)          121.5347         0.405451   
    218. A(C  24,N  23,H  69)          115.5579         0.338085   
    219. A(C  22,N  23,H  69)          121.7320         0.357574   
    220. A(C  25,C  24,H  70)          109.6425         0.320273   
    221. A(N  23,C  24,H  70)          107.7774         0.330393   
    222. A(C   7,C  24,H  70)          111.5740         0.322352   
    223. A(N  23,C  24,C  25)          111.6559         0.370184   
    224. A(C   7,C  24,N  23)          107.3110         0.372712   
    225. A(C   7,C  24,C  25)          108.8790         0.360817   
    226. A(H  71,C  25,H  73)          109.4702         0.288567   
    227. A(C  24,C  25,H  73)          109.6163         0.320688   
    228. A(H  71,C  25,H  72)          108.8051         0.288346   
    229. A(C  24,C  25,H  72)          111.5358         0.320432   
    230. A(C  24,C  25,H  71)          108.8236         0.321046   
    231. A(H  72,C  25,H  73)          108.5641         0.288038   
    232. A(C  28,C  27,H  75)          108.8036         0.320680   
    233. A(C  21,C  27,C  28)          113.8667         0.359805   
    234. A(H  74,C  27,H  75)          107.5992         0.287616   
    235. A(C  21,C  27,H  75)          108.0267         0.321074   
    236. A(C  28,C  27,H  74)          109.9212         0.320763   
    237. A(C  21,C  27,H  74)          108.4277         0.321157   
    238. A(C  29,C  28,C  30)          110.6692         0.362069   
    239. A(C  27,C  28,C  30)          112.8781         0.360576   
    240. A(C  27,C  28,C  29)          109.8511         0.360831   
    241. A(C  30,C  28,H  76)          107.9313         0.320356   
    242. A(C  29,C  28,H  76)          107.9213         0.320572   
    243. A(C  27,C  28,H  76)          107.3969         0.319307   
    244. A(C  28,C  29,H  79)          111.2050         0.322036   
    245. A(H  78,C  29,H  79)          107.7466         0.287476   
    246. A(H  77,C  29,H  79)          108.0137         0.287608   
    247. A(H  77,C  29,H  78)          107.7560         0.287396   
    248. A(C  28,C  29,H  78)          110.4709         0.321789   
    249. A(C  28,C  29,H  77)          111.4944         0.321943   
    250. A(H  81,C  30,H  82)          108.6640         0.287795   
    251. A(H  80,C  30,H  82)          107.1657         0.287813   
    252. A(C  28,C  30,H  82)          110.7291         0.321994   
    253. A(H  80,C  30,H  81)          107.4196         0.287622   
    254. A(C  28,C  30,H  81)          110.4462         0.321770   
    255. A(C  28,C  30,H  80)          112.2605         0.321791   
    256. A(C  33,C  32,O  42)          121.3977         0.434768   
    257. A(C  18,C  32,O  42)          120.4707         0.427960   
    258. A(C  18,C  32,C  33)          118.1311         0.365871   
    259. A(C  32,C  33,C  34)          111.7011         0.365416   
    260. A(C  34,C  33,H  84)          111.1816         0.320192   
    261. A(H  83,C  33,H  84)          106.7168         0.287447   
    262. A(C  32,C  33,H  84)          105.5720         0.325224   
    263. A(C  34,C  33,H  83)          111.1910         0.321212   
    264. A(C  32,C  33,H  83)          110.2215         0.326265   
    265. A(C  33,C  34,C  35)          111.4645         0.361655   
    266. A(H  85,C  34,H  86)          107.3951         0.287438   
    267. A(C  35,C  34,H  86)          108.7848         0.322597   
    268. A(C  33,C  34,H  86)          109.5252         0.320776   
    269. A(C  35,C  34,H  85)          110.6043         0.322437   
    270. A(C  33,C  34,H  85)          108.9754         0.320617   
    271. A(C  34,C  35,C  36)          115.2537         0.363975   
    272. A(H  87,C  35,H  88)          105.7788         0.285956   
    273. A(C  36,C  35,H  88)          110.1301         0.321666   
    274. A(C  34,C  35,H  88)          109.7634         0.321516   
    275. A(C  36,C  35,H  87)          107.7533         0.321922   
    276. A(C  34,C  35,H  87)          107.6863         0.321771   
    277. A(C  35,C  36,C  37)          111.7990         0.363617   
    278. A(H  89,C  36,H  90)          107.1272         0.287071   
    279. A(C  37,C  36,H  90)          108.9053         0.322293   
    280. A(C  35,C  36,H  90)          108.6667         0.322748   
    281. A(C  37,C  36,H  89)          110.0872         0.321702   
    282. A(C  35,C  36,H  89)          110.1228         0.322156   
    283. A(C  36,C  37,C  38)          114.2452         0.363467   
    284. A(H  91,C  37,H  92)          106.1371         0.285810   
    285. A(C  38,C  37,H  92)          109.5286         0.321637   
    286. A(C  36,C  37,H  92)          109.9324         0.321310   
    287. A(C  38,C  37,H  91)          108.2804         0.321525   
    288. A(C  36,C  37,H  91)          108.3826         0.321199   
    289. A(C  37,C  38,C  39)          112.9994         0.363525   
    290. A(H  93,C  38,H  94)          106.1116         0.286352   
    291. A(C  39,C  38,H  94)          109.3656         0.321636   
    292. A(C  37,C  38,H  94)          108.8753         0.321914   
    293. A(C  39,C  38,H  93)          109.5609         0.321610   
    294. A(C  37,C  38,H  93)          109.6924         0.321888   
    295. A(C  38,C  39,C  40)          113.7503         0.363101   
    296. A(H  95,C  39,H  96)          105.8815         0.286017   
    297. A(C  40,C  39,H  96)          109.2329         0.321366   
    298. A(C  38,C  39,H  96)          109.4130         0.321448   
    299. A(C  40,C  39,H  95)          109.1959         0.321321   
    300. A(C  38,C  39,H  95)          109.0683         0.321403   
    301. A(C  39,C  40,C  41)          113.0637         0.363213   
    302. A(H  97,C  40,H  98)          105.9681         0.286525   
    303. A(C  41,C  40,H  98)          109.6514         0.321820   
    304. A(C  39,C  40,H  98)          109.0640         0.321643   
    305. A(C  41,C  40,H  97)          109.6699         0.321821   
    306. A(C  39,C  40,H  97)          109.1751         0.321643   
    307. A(H 100,C  41,H 101)          107.4541         0.287366   
    308. A(H  99,C  41,H 101)          107.7053         0.287589   
    309. A(C  40,C  41,H 101)          111.0654         0.322316   
    310. A(H  99,C  41,H 100)          107.6859         0.287587   
    311. A(C  40,C  41,H 100)          111.0855         0.322315   
    312. A(C  40,C  41,H  99)          111.6541         0.322577   
    313. A(C  17,O  43,H 102)          109.3196         0.351119   
    314. A(C  13,C  45,C  46)          113.9386         0.362141   
    315. A(C  46,C  45,H 104)          110.6456         0.321830   
    316. A(C  13,C  45,H 104)          108.7902         0.320849   
    317. A(C  46,C  45,H 103)          109.8600         0.322608   
    318. A(C  13,C  45,H 103)          106.6525         0.321625   
    319. A(H 103,C  45,H 104)          106.6283         0.287293   
    320. A(H 106,C  46,H 107)          107.3363         0.287513   
    321. A(H 105,C  46,H 107)          107.0147         0.287679   
    322. A(C  45,C  46,H 107)          112.7805         0.322225   
    323. A(H 105,C  46,H 106)          107.8842         0.287888   
    324. A(C  45,C  46,H 106)          110.9533         0.322471   
    325. A(C  45,C  46,H 105)          110.6460         0.322666   
    326. A(C  50,C  48,H 108)          108.6446         0.322662   
    327. A(C  49,C  48,H 108)          107.6083         0.322737   
    328. A(C  10,C  48,H 108)          104.5749         0.317673   
    329. A(C  49,C  48,C  50)          111.4438         0.362830   
    330. A(C  10,C  48,C  50)          110.7697         0.356897   
    331. A(C  10,C  48,C  49)          113.4184         0.356983   
    332. A(H 110,C  49,H 111)          107.4595         0.287819   
    333. A(H 109,C  49,H 111)          107.2049         0.287890   
    334. A(C  48,C  49,H 111)          109.7061         0.322494   
    335. A(H 109,C  49,H 110)          108.5377         0.287673   
    336. A(C  48,C  49,H 110)          111.9826         0.322239   
    337. A(C  48,C  49,H 109)          111.7453         0.322323   
    338. A(H 113,C  50,H 114)          108.1370         0.287941   
    339. A(H 112,C  50,H 114)          107.4156         0.287908   
    340. A(C  48,C  50,H 114)          112.1585         0.322374   
    341. A(H 112,C  50,H 113)          107.9432         0.287889   
    342. A(C  48,C  50,H 113)          109.5873         0.322352   
    343. A(C  48,C  50,H 112)          111.4459         0.322314   
    344. D(H  51,C   2,C   1,N   9)   -140.9163         0.010073   
    345. D(C   3,C   2,C   1,N   9)     98.5569         0.010073   
    346. D(N   6,C   2,C   1,N   9)    -19.1384         0.010073   
    347. D(N   6,C   2,C   1,O   0)    167.0670         0.010073   
    348. D(C   3,C   2,C   1,O   0)    -75.2377         0.010073   
    349. D(H  51,C   2,C   1,O   0)     45.2891         0.010073   
    350. D(C   4,C   3,C   2,N   6)    -21.5758         0.009780   
    351. D(H  53,C   3,C   2,H  51)   -146.7436         0.009780   
    352. D(H  53,C   3,C   2,C   1)    -30.0224         0.009780   
    353. D(C   4,C   3,C   2,H  51)     95.5045         0.009780   
    354. D(H  53,C   3,C   2,N   6)     96.1761         0.009780   
    355. D(H  52,C   3,C   2,H  51)    -28.0384         0.009780   
    356. D(C   4,C   3,C   2,C   1)   -147.7743         0.009780   
    357. D(H  52,C   3,C   2,C   1)     88.6828         0.009780   
    358. D(H  52,C   3,C   2,N   6)   -145.1187         0.009780   
    359. D(H  55,C   4,C   3,H  53)    161.8601         0.010921   
    360. D(H  55,C   4,C   3,H  52)     40.9489         0.010921   
    361. D(H  54,C   4,C   3,H  52)    -80.4956         0.010921   
    362. D(H  55,C   4,C   3,C   2)    -80.7796         0.010921   
    363. D(H  54,C   4,C   3,H  53)     40.4156         0.010921   
    364. D(C   5,C   4,C   3,C   2)     36.0437         0.010921   
    365. D(H  54,C   4,C   3,C   2)    157.7758         0.010921   
    366. D(C   5,C   4,C   3,H  53)    -81.3165         0.010921   
    367. D(C   5,C   4,C   3,H  52)    157.7723         0.010921   
    368. D(N   6,C   5,C   4,C   3)    -36.4020         0.011172   
    369. D(H  57,C   5,C   4,C   3)   -156.8549         0.011172   
    370. D(H  56,C   5,C   4,H  55)   -161.1558         0.011172   
    371. D(H  56,C   5,C   4,C   3)     81.2991         0.011172   
    372. D(H  57,C   5,C   4,H  54)     81.0981         0.011172   
    373. D(H  56,C   5,C   4,H  54)    -40.7479         0.011172   
    374. D(H  57,C   5,C   4,H  55)    -39.3098         0.011172   
    375. D(N   6,C   5,C   4,H  54)   -158.4490         0.011172   
    376. D(N   6,C   5,C   4,H  55)     81.1432         0.011172   
    377. D(C   5,N   6,C   2,C   3)     -1.6256         0.014196   
    378. D(C   7,N   6,C   5,H  57)    -18.4056         0.014568   
    379. D(C   7,N   6,C   5,H  56)    101.4069         0.014568   
    380. D(C   7,N   6,C   5,C   4)   -140.0459         0.014568   
    381. D(C   2,N   6,C   5,H  57)    145.7094         0.014568   
    382. D(C   2,N   6,C   5,H  56)    -94.4782         0.014568   
    383. D(C   7,N   6,C   2,H  51)     44.5912         0.014196   
    384. D(C   2,N   6,C   5,C   4)     24.0691         0.014568   
    385. D(C   7,N   6,C   2,C   3)    163.8775         0.014196   
    386. D(C   5,N   6,C   2,C   1)    118.7988         0.014196   
    387. D(C   7,N   6,C   2,C   1)    -75.6981         0.014196   
    388. D(C   5,N   6,C   2,H  51)   -120.9119         0.014196   
    389. D(C  24,C   7,N   6,C   5)      0.0415         0.031284   
    390. D(C  24,C   7,N   6,C   2)   -163.0040         0.031284   
    391. D(O   8,C   7,N   6,C   5)    176.7164         0.031284   
    392. D(O   8,C   7,N   6,C   2)     13.6709         0.031284   
    393. D(H  58,N   9,C   1,O   0)   -155.6116         0.029809   
    394. D(C  10,N   9,C   1,C   2)    179.5132         0.029809   
    395. D(H  58,N   9,C   1,C   2)     31.1597         0.029809   
    396. D(C  10,N   9,C   1,O   0)     -7.2581         0.029809   
    397. D(H  59,C  10,N   9,C   1)    -75.1924         0.015214   
    398. D(C  48,C  10,N   9,H  58)   -165.9066         0.015214   
    399. D(C  48,C  10,N   9,C   1)     45.1920         0.015214   
    400. D(C  11,C  10,N   9,C   1)    168.8772         0.015214   
    401. D(H  59,C  10,N   9,H  58)     73.7091         0.015214   
    402. D(C  11,C  10,N   9,H  58)    -42.2213         0.015214   
    403. D(O  47,C  11,C  10,N   9)    145.4752         0.010047   
    404. D(N  12,C  11,C  10,H  59)   -154.9241         0.010047   
    405. D(N  12,C  11,C  10,C  48)     89.2738         0.010047   
    406. D(N  12,C  11,C  10,N   9)    -36.4462         0.010047   
    407. D(O  47,C  11,C  10,H  59)     26.9973         0.010047   
    408. D(O  47,C  11,C  10,C  48)    -88.8047         0.010047   
    409. D(H  60,N  12,C  11,O  47)    176.3525         0.031542   
    410. D(H  60,N  12,C  11,C  10)     -1.7001         0.031542   
    411. D(C  13,N  12,C  11,O  47)     13.3148         0.031542   
    412. D(C  13,N  12,C  11,C  10)   -164.7379         0.031542   
    413. D(H  61,C  13,N  12,C  11)     53.6792         0.016139   
    414. D(H  61,C  13,N  12,H  60)   -108.9746         0.016139   
    415. D(C  45,C  13,N  12,H  60)     11.1167         0.016139   
    416. D(C  45,C  13,N  12,C  11)    173.7705         0.016139   
    417. D(C  14,C  13,N  12,C  11)    -62.5098         0.016139   
    418. D(C  14,C  13,N  12,H  60)    134.8364         0.016139   
    419. D(O  44,C  14,C  13,C  45)    -82.6660         0.009883   
    420. D(O  44,C  14,C  13,N  12)    153.3865         0.009883   
    421. D(N  15,C  14,C  13,H  61)   -147.9722         0.009883   
    422. D(N  15,C  14,C  13,C  45)     95.0272         0.009883   
    423. D(O  44,C  14,C  13,H  61)     34.3346         0.009883   
    424. D(N  15,C  14,C  13,N  12)    -28.9203         0.009883   
    425. D(H  62,N  15,C  14,O  44)   -178.6503         0.031918   
    426. D(H  62,N  15,C  14,C  13)      3.7978         0.031918   
    427. D(C  16,N  15,C  14,O  44)     -9.7888         0.031918   
    428. D(C  16,N  15,C  14,C  13)    172.6592         0.031918   
    429. D(H  64,C  16,N  15,H  62)    175.2498         0.017149   
    430. D(H  64,C  16,N  15,C  14)      6.2113         0.017149   
    431. D(H  63,C  16,N  15,H  62)    -65.6338         0.017149   
    432. D(H  63,C  16,N  15,C  14)    125.3277         0.017149   
    433. D(C  17,C  16,N  15,C  14)   -111.5835         0.017149   
    434. D(C  17,C  16,N  15,H  62)     57.4550         0.017149   
    435. D(H  65,C  17,C  16,H  64)     56.2304         0.010916   
    436. D(H  65,C  17,C  16,H  63)    -63.3809         0.010916   
    437. D(H  65,C  17,C  16,N  15)    173.2651         0.010916   
    438. D(O  43,C  17,C  16,H  64)    -58.9889         0.010916   
    439. D(O  43,C  17,C  16,H  63)   -178.6002         0.010916   
    440. D(O  43,C  17,C  16,N  15)     58.0458         0.010916   
    441. D(C  18,C  17,C  16,H  64)    173.8190         0.010916   
    442. D(C  18,C  17,C  16,H  63)     54.2077         0.010916   
    443. D(C  18,C  17,C  16,N  15)    -69.1463         0.010916   
    444. D(H  66,C  18,C  17,H  65)    -45.6497         0.008457   
    445. D(H  66,C  18,C  17,O  43)     67.4845         0.008457   
    446. D(H  66,C  18,C  17,C  16)   -163.6680         0.008457   
    447. D(C  32,C  18,C  17,O  43)    -47.5740         0.008457   
    448. D(C  32,C  18,C  17,C  16)     81.2735         0.008457   
    449. D(C  32,C  18,C  17,H  65)   -160.7082         0.008457   
    450. D(C  19,C  18,C  17,H  65)     75.5855         0.008457   
    451. D(C  19,C  18,C  17,O  43)   -171.2803         0.008457   
    452. D(C  19,C  18,C  17,C  16)    -42.4328         0.008457   
    453. D(O  31,C  19,C  18,H  66)    158.0220         0.010217   
    454. D(O  31,C  19,C  18,C  32)    -87.0047         0.010217   
    455. D(O  31,C  19,C  18,C  17)     39.1447         0.010217   
    456. D(N  20,C  19,C  18,H  66)    -28.3198         0.010217   
    457. D(N  20,C  19,C  18,C  17)   -147.1970         0.010217   
    458. D(N  20,C  19,C  18,C  32)     86.6536         0.010217   
    459. D(H  67,N  20,C  19,O  31)   -176.8335         0.029555   
    460. D(H  67,N  20,C  19,C  18)      9.3153         0.029555   
    461. D(C  21,N  20,C  19,O  31)      2.1542         0.029555   
    462. D(C  21,N  20,C  19,C  18)   -171.6970         0.029555   
    463. D(H  68,C  21,N  20,H  67)    -19.6836         0.015338   
    464. D(H  68,C  21,N  20,C  19)    161.3226         0.015338   
    465. D(C  27,C  21,N  20,H  67)     99.6702         0.015338   
    466. D(C  27,C  21,N  20,C  19)    -79.3235         0.015338   
    467. D(C  22,C  21,N  20,H  67)   -133.5439         0.015338   
    468. D(C  22,C  21,N  20,C  19)     47.4624         0.015338   
    469. D(N  23,C  22,C  21,C  27)    177.9396         0.008849   
    470. D(N  23,C  22,C  21,N  20)     49.9896         0.008849   
    471. D(O  26,C  22,C  21,H  68)    114.0697         0.008849   
    472. D(O  26,C  22,C  21,C  27)     -4.9760         0.008849   
    473. D(O  26,C  22,C  21,N  20)   -132.9259         0.008849   
    474. D(N  23,C  22,C  21,H  68)    -63.0148         0.008849   
    475. D(H  69,N  23,C  22,O  26)    178.1143         0.031921   
    476. D(H  69,N  23,C  22,C  21)     -4.8018         0.031921   
    477. D(C  24,N  23,C  22,O  26)     11.0566         0.031921   
    478. D(C  24,N  23,C  22,C  21)   -171.8595         0.031921   
    479. D(H  70,C  24,N  23,H  69)   -125.0054         0.017251   
    480. D(H  70,C  24,N  23,C  22)     42.8048         0.017251   
    481. D(C  25,C  24,N  23,H  69)    114.5222         0.017251   
    482. D(C  25,C  24,N  23,C  22)    -77.6676         0.017251   
    483. D(C   7,C  24,N  23,H  69)     -4.7142         0.017251   
    484. D(C   7,C  24,N  23,C  22)    163.0960         0.017251   
    485. D(H  70,C  24,C   7,O   8)    146.4456         0.010423   
    486. D(H  70,C  24,C   7,N   6)    -36.8632         0.010423   
    487. D(C  25,C  24,C   7,O   8)    -92.4071         0.010423   
    488. D(C  25,C  24,C   7,N   6)     84.2842         0.010423   
    489. D(N  23,C  24,C   7,O   8)     28.5970         0.010423   
    490. D(N  23,C  24,C   7,N   6)   -154.7117         0.010423   
    491. D(H  73,C  25,C  24,H  70)    179.9021         0.010335   
    492. D(H  73,C  25,C  24,N  23)    -60.7231         0.010335   
    493. D(H  73,C  25,C  24,C   7)     57.5802         0.010335   
    494. D(H  72,C  25,C  24,H  70)     59.6373         0.010335   
    495. D(H  72,C  25,C  24,N  23)    179.0122         0.010335   
    496. D(H  72,C  25,C  24,C   7)    -62.6845         0.010335   
    497. D(H  71,C  25,C  24,H  70)    -60.4056         0.010335   
    498. D(H  71,C  25,C  24,N  23)     58.9693         0.010335   
    499. D(H  71,C  25,C  24,C   7)    177.2725         0.010335   
    500. D(H  75,C  27,C  21,H  68)    101.6959         0.010633   
    501. D(H  75,C  27,C  21,C  22)   -140.9538         0.010633   
    502. D(H  75,C  27,C  21,N  20)    -15.2672         0.010633   
    503. D(H  74,C  27,C  21,H  68)   -141.9714         0.010633   
    504. D(H  74,C  27,C  21,C  22)    -24.6211         0.010633   
    505. D(H  74,C  27,C  21,N  20)    101.0655         0.010633   
    506. D(C  28,C  27,C  21,H  68)    -19.2779         0.010633   
    507. D(C  28,C  27,C  21,C  22)     98.0724         0.010633   
    508. D(C  28,C  27,C  21,N  20)   -136.2410         0.010633   
    509. D(H  76,C  28,C  27,H  75)    -60.2195         0.010485   
    510. D(H  76,C  28,C  27,H  74)   -177.8090         0.010485   
    511. D(H  76,C  28,C  27,C  21)     60.3197         0.010485   
    512. D(C  30,C  28,C  27,H  75)   -179.0614         0.010485   
    513. D(C  30,C  28,C  27,H  74)     63.3492         0.010485   
    514. D(C  30,C  28,C  27,C  21)    -58.5222         0.010485   
    515. D(C  29,C  28,C  27,H  75)     56.9067         0.010485   
    516. D(C  29,C  28,C  27,H  74)    -60.6828         0.010485   
    517. D(C  29,C  28,C  27,C  21)    177.4458         0.010485   
    518. D(H  79,C  29,C  28,C  30)     57.9632         0.010971   
    519. D(H  79,C  29,C  28,C  27)   -176.7291         0.010971   
    520. D(H  78,C  29,C  28,H  76)   -179.5229         0.010971   
    521. D(H  78,C  29,C  28,C  30)    -61.6286         0.010971   
    522. D(H  78,C  29,C  28,C  27)     63.6792         0.010971   
    523. D(H  77,C  29,C  28,H  76)     60.6847         0.010971   
    524. D(H  77,C  29,C  28,C  30)    178.5790         0.010971   
    525. D(H  79,C  29,C  28,H  76)    -59.9311         0.010971   
    526. D(H  77,C  29,C  28,C  27)    -56.1132         0.010971   
    527. D(H  82,C  30,C  28,H  76)   -177.3730         0.010886   
    528. D(H  82,C  30,C  28,C  29)     64.7389         0.010886   
    529. D(H  82,C  30,C  28,C  27)    -58.8421         0.010886   
    530. D(H  81,C  30,C  28,H  76)     62.2116         0.010886   
    531. D(H  81,C  30,C  28,C  29)    -55.6766         0.010886   
    532. D(H  81,C  30,C  28,C  27)   -179.2576         0.010886   
    533. D(H  80,C  30,C  28,H  76)    -57.6448         0.010886   
    534. D(H  80,C  30,C  28,C  29)   -175.5329         0.010886   
    535. D(H  80,C  30,C  28,C  27)     60.8861         0.010886   
    536. D(O  42,C  32,C  18,H  66)    161.2615         0.009987   
    537. D(O  42,C  32,C  18,C  19)     44.4144         0.009987   
    538. D(O  42,C  32,C  18,C  17)    -84.6740         0.009987   
    539. D(C  33,C  32,C  18,H  66)    -18.4925         0.009987   
    540. D(C  33,C  32,C  18,C  19)   -135.3396         0.009987   
    541. D(C  33,C  32,C  18,C  17)     95.5720         0.009987   
    542. D(H  84,C  33,C  32,O  42)     65.2623         0.011779   
    543. D(H  84,C  33,C  32,C  18)   -114.9861         0.011779   
    544. D(H  83,C  33,C  32,O  42)   -179.8482         0.011779   
    545. D(H  83,C  33,C  32,C  18)     -0.0966         0.011779   
    546. D(C  34,C  33,C  32,O  42)    -55.7093         0.011779   
    547. D(C  34,C  33,C  32,C  18)    124.0423         0.011779   
    548. D(H  86,C  34,C  33,H  84)    -62.7032         0.010515   
    549. D(H  86,C  34,C  33,H  83)    178.5403         0.010515   
    550. D(H  86,C  34,C  33,C  32)     54.9474         0.010515   
    551. D(H  85,C  34,C  33,H  84)     54.5137         0.010515   
    552. D(H  85,C  34,C  33,H  83)    -64.2428         0.010515   
    553. D(H  85,C  34,C  33,C  32)    172.1643         0.010515   
    554. D(C  35,C  34,C  33,H  84)    176.8621         0.010515   
    555. D(C  35,C  34,C  33,H  83)     58.1055         0.010515   
    556. D(C  35,C  34,C  33,C  32)    -65.4874         0.010515   
    557. D(H  88,C  35,C  34,H  86)    178.9832         0.011219   
    558. D(H  88,C  35,C  34,H  85)     61.2577         0.011219   
    559. D(H  88,C  35,C  34,C  33)    -60.1481         0.011219   
    560. D(H  87,C  35,C  34,H  86)    -66.3177         0.011219   
    561. D(H  87,C  35,C  34,H  85)    175.9568         0.011219   
    562. D(H  87,C  35,C  34,C  33)     54.5510         0.011219   
    563. D(C  36,C  35,C  34,H  86)     53.9660         0.011219   
    564. D(C  36,C  35,C  34,H  85)    -63.7594         0.011219   
    565. D(C  36,C  35,C  34,C  33)    174.8347         0.011219   
    566. D(H  90,C  36,C  35,H  87)     75.2940         0.011280   
    567. D(H  90,C  36,C  35,C  34)    -44.9531         0.011280   
    568. D(H  89,C  36,C  35,H  88)    -52.7253         0.011280   
    569. D(H  89,C  36,C  35,H  87)   -167.6516         0.011280   
    570. D(H  89,C  36,C  35,C  34)     72.1013         0.011280   
    571. D(C  37,C  36,C  35,H  88)     69.9918         0.011280   
    572. D(C  37,C  36,C  35,H  87)    -44.9346         0.011280   
    573. D(H  90,C  36,C  35,H  88)   -169.7796         0.011280   
    574. D(C  37,C  36,C  35,C  34)   -165.1817         0.011280   
    575. D(H  92,C  37,C  36,H  90)    179.4717         0.011098   
    576. D(H  92,C  37,C  36,H  89)     62.2979         0.011098   
    577. D(H  92,C  37,C  36,C  35)    -60.4394         0.011098   
    578. D(H  91,C  37,C  36,H  90)    -64.9302         0.011098   
    579. D(H  91,C  37,C  36,H  89)    177.8960         0.011098   
    580. D(H  91,C  37,C  36,C  35)     55.1587         0.011098   
    581. D(C  38,C  37,C  36,H  90)     55.8785         0.011098   
    582. D(C  38,C  37,C  36,H  89)    -61.2953         0.011098   
    583. D(C  38,C  37,C  36,C  35)    175.9674         0.011098   
    584. D(H  94,C  38,C  37,H  92)   -178.0830         0.011229   
    585. D(H  94,C  38,C  37,H  91)     66.5928         0.011229   
    586. D(H  94,C  38,C  37,C  36)    -54.2726         0.011229   
    587. D(H  93,C  38,C  37,H  92)    -62.3699         0.011229   
    588. D(H  93,C  38,C  37,H  91)   -177.6941         0.011229   
    589. D(H  93,C  38,C  37,C  36)     61.4404         0.011229   
    590. D(C  39,C  38,C  37,H  92)     60.1933         0.011229   
    591. D(C  39,C  38,C  37,H  91)    -55.1309         0.011229   
    592. D(C  39,C  38,C  37,C  36)   -175.9963         0.011229   
    593. D(H  95,C  39,C  38,H  94)    -65.2416         0.011118   
    594. D(H  95,C  39,C  38,H  93)    178.8422         0.011118   
    595. D(H  95,C  39,C  38,C  37)     56.2056         0.011118   
    596. D(C  40,C  39,C  38,H  94)     56.9109         0.011118   
    597. D(C  40,C  39,C  38,H  93)    -59.0053         0.011118   
    598. D(C  40,C  39,C  38,C  37)    178.3582         0.011118   
    599. D(H  96,C  39,C  38,H  94)    179.3667         0.011118   
    600. D(H  96,C  39,C  38,H  93)     63.4506         0.011118   
    601. D(H  96,C  39,C  38,C  37)    -59.1860         0.011118   
    602. D(H  98,C  40,C  39,H  95)     64.7263         0.011085   
    603. D(H  98,C  40,C  39,C  38)    -57.3557         0.011085   
    604. D(H  97,C  40,C  39,H  96)    -64.5486         0.011085   
    605. D(H  97,C  40,C  39,H  95)   -179.9117         0.011085   
    606. D(H  97,C  40,C  39,C  38)     58.0063         0.011085   
    607. D(C  41,C  40,C  39,H  96)     57.8224         0.011085   
    608. D(C  41,C  40,C  39,H  95)    -57.5407         0.011085   
    609. D(H  98,C  40,C  39,H  96)   -179.9106         0.011085   
    610. D(C  41,C  40,C  39,C  38)   -179.6226         0.011085   
    611. D(H 101,C  41,C  40,H  98)    -62.2673         0.011156   
    612. D(H 101,C  41,C  40,H  97)   -178.2350         0.011156   
    613. D(H 101,C  41,C  40,C  39)     59.6707         0.011156   
    614. D(H 100,C  41,C  40,H  98)    178.1946         0.011156   
    615. D(H 100,C  41,C  40,H  97)     62.2268         0.011156   
    616. D(H 100,C  41,C  40,C  39)    -59.8675         0.011156   
    617. D(H  99,C  41,C  40,H  98)     57.9691         0.011156   
    618. D(H  99,C  41,C  40,H  97)    -57.9986         0.011156   
    619. D(H  99,C  41,C  40,C  39)    179.9071         0.011156   
    620. D(H 102,O  43,C  17,H  65)   -160.5733         0.019530   
    621. D(H 102,O  43,C  17,C  18)     86.4088         0.019530   
    622. D(H 102,O  43,C  17,C  16)    -44.9813         0.019530   
    623. D(H 104,C  45,C  13,H  61)   -179.2726         0.010751   
    624. D(H 104,C  45,C  13,C  14)    -65.5657         0.010751   
    625. D(H 104,C  45,C  13,N  12)     60.7449         0.010751   
    626. D(H 103,C  45,C  13,H  61)    -64.6101         0.010751   
    627. D(H 103,C  45,C  13,C  14)     49.0968         0.010751   
    628. D(H 103,C  45,C  13,N  12)    175.4073         0.010751   
    629. D(C  46,C  45,C  13,H  61)     56.7729         0.010751   
    630. D(C  46,C  45,C  13,C  14)    170.4798         0.010751   
    631. D(C  46,C  45,C  13,N  12)    -63.2097         0.010751   
    632. D(H 107,C  46,C  45,H 104)    -59.4044         0.011134   
    633. D(H 107,C  46,C  45,H 103)   -176.8712         0.011134   
    634. D(H 107,C  46,C  45,C  13)     63.5435         0.011134   
    635. D(H 106,C  46,C  45,H 104)   -179.8614         0.011134   
    636. D(H 106,C  46,C  45,H 103)     62.6719         0.011134   
    637. D(H 106,C  46,C  45,C  13)    -56.9134         0.011134   
    638. D(H 105,C  46,C  45,H 104)     60.4232         0.011134   
    639. D(H 105,C  46,C  45,H 103)    -57.0435         0.011134   
    640. D(H 105,C  46,C  45,C  13)   -176.6288         0.011134   
    641. D(H 108,C  48,C  10,H  59)     61.1383         0.009257   
    642. D(H 108,C  48,C  10,C  11)    176.2670         0.009257   
    643. D(H 108,C  48,C  10,N   9)    -60.8790         0.009257   
    644. D(C  50,C  48,C  10,H  59)    -55.7272         0.009257   
    645. D(C  50,C  48,C  10,C  11)     59.4015         0.009257   
    646. D(C  50,C  48,C  10,N   9)   -177.7445         0.009257   
    647. D(C  49,C  48,C  10,H  59)    178.0901         0.009257   
    648. D(C  49,C  48,C  10,C  11)    -66.7812         0.009257   
    649. D(C  49,C  48,C  10,N   9)     56.0728         0.009257   
    650. D(H 111,C  49,C  48,C  50)     62.5278         0.011071   
    651. D(H 111,C  49,C  48,C  10)   -171.6475         0.011071   
    652. D(H 110,C  49,C  48,H 108)   -175.7124         0.011071   
    653. D(H 110,C  49,C  48,C  50)    -56.6990         0.011071   
    654. D(H 110,C  49,C  48,C  10)     69.1257         0.011071   
    655. D(H 109,C  49,C  48,H 108)     62.2732         0.011071   
    656. D(H 109,C  49,C  48,C  50)   -178.7134         0.011071   
    657. D(H 111,C  49,C  48,H 108)    -56.4856         0.011071   
    658. D(H 109,C  49,C  48,C  10)    -52.8888         0.011071   
    659. D(H 114,C  50,C  48,H 108)    179.1899         0.011041   
    660. D(H 114,C  50,C  48,C  49)     60.7960         0.011041   
    661. D(H 114,C  50,C  48,C  10)    -66.4792         0.011041   
    662. D(H 113,C  50,C  48,H 108)     59.0792         0.011041   
    663. D(H 113,C  50,C  48,C  49)    -59.3147         0.011041   
    664. D(H 113,C  50,C  48,C  10)    173.4101         0.011041   
    665. D(H 112,C  50,C  48,H 108)    -60.3337         0.011041   
    666. D(H 112,C  50,C  48,C  49)   -178.7276         0.011041   
    667. D(H 112,C  50,C  48,C  10)     53.9972         0.011041   
    -----------------------------------------------------------------

Number of atoms                         .... 115
Number of degrees of freedom            .... 667

         *************************************************************
         *                GEOMETRY OPTIMIZATION CYCLE   1            *
         *************************************************************
---------------------------------
CARTESIAN COORDINATES (ANGSTROEM)
---------------------------------
  O      4.057698    0.788079   -3.500141
  C      3.619241    0.758835   -2.353778
  C      3.489276    2.083563   -1.588897
  C      4.897508    2.542176   -1.134743
  C      4.651701    3.273435    0.189895
  C      3.520775    2.460259    0.821977
  N      2.700845    2.081572   -0.341032
  C      1.341643    2.047421   -0.411586
  O      0.761892    1.768401   -1.468310
  N      3.349328   -0.363403   -1.620313
  C      3.392226   -1.741974   -2.118794
  C      3.300630   -2.704896   -0.926150
  N      3.944156   -2.295210    0.200253
  C      4.249769   -3.185209    1.314605
  C      3.009662   -3.781490    2.001661
  N      1.883864   -3.021755    1.956122
  C      0.604550   -3.521473    2.422010
  C     -0.394368   -3.726866    1.277446
  C     -0.942965   -2.436837    0.568282
  C     -1.323885   -1.259005    1.472738
  N     -2.373328   -0.523039    0.992906
  C     -2.786526    0.744317    1.601678
  C     -1.543765    1.647266    1.839884
  N     -0.741542    1.781525    0.751275
  C      0.546887    2.440262    0.835629
  C      0.400268    3.973828    0.870905
  O     -1.336007    2.231936    2.899446
  C     -3.633581    0.582804    2.873752
  C     -4.849925    1.523414    2.935442
  C     -5.661291    1.242218    4.204467
  C     -4.462338    3.004981    2.858033
  O     -0.693640   -0.914357    2.467498
  C      0.043528   -1.897559   -0.478964
  C     -0.154399   -2.305721   -1.921886
  C     -0.287015   -1.082866   -2.845914
  C     -1.554859   -0.284974   -2.539564
  C     -1.710978    1.017450   -3.323693
  C     -2.786198    1.921433   -2.715891
  C     -2.921806    3.282481   -3.399045
  C     -3.934773    4.199278   -2.709613
  C     -4.055148    5.581572   -3.356146
  C     -5.064775    6.487936   -2.649337
  O      0.961987   -1.152132   -0.144489
  O      0.092263   -4.625955    0.288730
  O      3.102789   -4.862770    2.579608
  C      5.111539   -2.452198    2.352333
  C      6.481438   -2.018232    1.826668
  O      2.712578   -3.788826   -1.008579
  C      4.649608   -2.062009   -2.980035
  C      5.969701   -1.781564   -2.257184
  C      4.594750   -3.498290   -3.508318
  H      3.033666    2.793721   -2.293277
  H      5.382288    3.155908   -1.900641
  H      5.533609    1.659885   -0.965785
  H      5.543767    3.321631    0.826698
  H      4.306310    4.301462    0.004907
  H      3.909532    1.556046    1.320305
  H      2.939251    3.026978    1.555052
  H      2.653979   -0.233570   -0.880903
  H      2.509213   -1.945886   -2.744364
  H      4.441993   -1.410625    0.134669
  H      4.798925   -4.063252    0.937421
  H      1.890877   -2.145720    1.434808
  H      0.179584   -2.843090    3.171051
  H      0.799631   -4.501746    2.876480
  H     -1.275769   -4.218095    1.719752
  H     -1.832073   -2.774108    0.015881
  H     -2.896512   -0.870560    0.196574
  H     -3.390231    1.247918    0.827386
  H     -0.915673    1.265797   -0.109057
  H      1.041073    2.094836    1.755534
  H     -0.210395    4.250804    1.737700
  H      1.377190    4.470748    0.952447
  H     -0.091402    4.318271   -0.048141
  H     -2.985843    0.750325    3.746217
  H     -3.987482   -0.457695    2.917194
  H     -5.491227    1.292847    2.063018
  H     -5.968180    0.187474    4.261171
  H     -5.063585    1.466590    5.101153
  H     -6.568159    1.862690    4.242311
  H     -3.946605    3.252110    1.918840
  H     -5.358074    3.640080    2.918726
  H     -3.784876    3.273144    3.680207
  H     -1.024902   -2.967966   -2.012821
  H      0.731407   -2.908463   -2.183236
  H     -0.287152   -1.423485   -3.892517
  H      0.585272   -0.426139   -2.713989
  H     -1.540151   -0.031360   -1.465121
  H     -2.443906   -0.925526   -2.685066
  H     -1.951060    0.799273   -4.377760
  H     -0.749520    1.551382   -3.314319
  H     -2.538714    2.090652   -1.651858
  H     -3.762588    1.404384   -2.725609
  H     -3.209886    3.141499   -4.455000
  H     -1.934146    3.774320   -3.414127
  H     -3.650527    4.317989   -1.648774
  H     -4.926164    3.712583   -2.704221
  H     -4.340520    5.462699   -4.414931
  H     -3.063446    6.064370   -3.361538
  H     -5.131489    7.473679   -3.130858
  H     -6.071011    6.042539   -2.658634
  H     -4.784229    6.647669   -1.597320
  H      1.028027   -4.404652    0.079765
  H      5.237697   -3.140357    3.199420
  H      4.548055   -1.583913    2.732386
  H      7.074039   -1.554346    2.626681
  H      7.046757   -2.880004    1.444105
  H      6.411391   -1.283386    1.010289
  H      4.584184   -1.372545   -3.830989
  H      6.005086   -0.758667   -1.856090
  H      6.145081   -2.486971   -1.431932
  H      6.806499   -1.883555   -2.961364
  H      3.656662   -3.692835   -4.046688
  H      5.426626   -3.666088   -4.206233
  H      4.670565   -4.239838   -2.701243

----------------------------
CARTESIAN COORDINATES (A.U.)
----------------------------
  NO LB      ZA    FRAG     MASS         X           Y           Z
   0 O     8.0000    0    15.999    7.667937    1.489253   -6.614307
   1 C     6.0000    0    12.011    6.839374    1.433990   -4.447995
   2 C     6.0000    0    12.011    6.593775    3.937363   -3.002580
   3 C     6.0000    0    12.011    9.254950    4.804017   -2.144353
   4 C     6.0000    0    12.011    8.790440    6.185896    0.358850
   5 C     6.0000    0    12.011    6.653300    4.649216    1.553311
   6 N     7.0000    0    14.007    5.103858    3.933601   -0.644458
   7 C     6.0000    0    12.011    2.535338    3.869064   -0.777785
   8 O     8.0000    0    15.999    1.439768    3.341794   -2.774705
   9 N     7.0000    0    14.007    6.329313   -0.686732   -3.061949
  10 C     6.0000    0    12.011    6.410379   -3.291853   -4.003940
  11 C     6.0000    0    12.011    6.237286   -5.111513   -1.750169
  12 N     7.0000    0    14.007    7.453374   -4.337319    0.378424
  13 C     6.0000    0    12.011    8.030900   -6.019172    2.484243
  14 C     6.0000    0    12.011    5.687438   -7.145980    3.782592
  15 N     7.0000    0    14.007    3.559987   -5.710289    3.696534
  16 C     6.0000    0    12.011    1.142434   -6.654620    4.576935
  17 C     6.0000    0    12.011   -0.745248   -7.042755    2.414023
  18 C     6.0000    0    12.011   -1.781946   -4.604955    1.073898
  19 C     6.0000    0    12.011   -2.501780   -2.379175    2.783071
  20 N     7.0000    0    14.007   -4.484940   -0.988401    1.876320
  21 C     6.0000    0    12.011   -5.265771    1.406555    3.026732
  22 C     6.0000    0    12.011   -2.917294    3.112881    3.476877
  23 N     7.0000    0    14.007   -1.401311    3.366593    1.419703
  24 C     6.0000    0    12.011    1.033466    4.611427    1.579109
  25 C     6.0000    0    12.011    0.756398    7.509447    1.645772
  26 O     8.0000    0    15.999   -2.524688    4.217748    5.479159
  27 C     6.0000    0    12.011   -6.866472    1.101341    5.430605
  28 C     6.0000    0    12.011   -9.165031    2.878835    5.547182
  29 C     6.0000    0    12.011  -10.698289    2.347452    7.945290
  30 C     6.0000    0    12.011   -8.432596    5.678591    5.400900
  31 O     8.0000    0    15.999   -1.310790   -1.727885    4.662895
  32 C     6.0000    0    12.011    0.082256   -3.585867   -0.905111
  33 C     6.0000    0    12.011   -0.291771   -4.357181   -3.631838
  34 C     6.0000    0    12.011   -0.542380   -2.046321   -5.377999
  35 C     6.0000    0    12.011   -2.938258   -0.538523   -4.799080
  36 C     6.0000    0    12.011   -3.233281    1.922701   -6.280870
  37 C     6.0000    0    12.011   -5.265151    3.630982   -5.132291
  38 C     6.0000    0    12.011   -5.521414    6.202990   -6.423264
  39 C     6.0000    0    12.011   -7.435643    7.935485   -5.120427
  40 C     6.0000    0    12.011   -7.663119   10.547643   -6.342197
  41 C     6.0000    0    12.011   -9.571037   12.260423   -5.006521
  42 O     8.0000    0    15.999    1.817893   -2.177214   -0.273045
  43 O     8.0000    0    15.999    0.174351   -8.741788    0.545621
  44 O     8.0000    0    15.999    5.863421   -9.189304    4.874752
  45 C     6.0000    0    12.011    9.659409   -4.633982    4.445266
  46 C     6.0000    0    12.011   12.248143   -3.813905    3.451903
  47 O     8.0000    0    15.999    5.126030   -7.159844   -1.905939
  48 C     6.0000    0    12.011    8.786486   -3.896632   -5.631450
  49 C     6.0000    0    12.011   11.281101   -3.366669   -4.265459
  50 C     6.0000    0    12.011    8.682818   -6.610809   -6.629761
  51 H     1.0000    0     1.008    5.732797    5.279368   -4.333666
  52 H     1.0000    0     1.008   10.171051    5.963802   -3.591691
  53 H     1.0000    0     1.008   10.457005    3.136727   -1.825070
  54 H     1.0000    0     1.008   10.476201    6.276972    1.562234
  55 H     1.0000    0     1.008    8.137746    8.128584    0.009272
  56 H     1.0000    0     1.008    7.387944    2.940501    2.495014
  57 H     1.0000    0     1.008    5.554379    5.720159    2.938623
  58 H     1.0000    0     1.008    5.015294   -0.441384   -1.664665
  59 H     1.0000    0     1.008    4.741725   -3.677191   -5.186097
  60 H     1.0000    0     1.008    8.394150   -2.665694    0.254487
  61 H     1.0000    0     1.008    9.068654   -7.678434    1.771469
  62 H     1.0000    0     1.008    3.573240   -4.054823    2.711395
  63 H     1.0000    0     1.008    0.339364   -5.372662    5.992418
  64 H     1.0000    0     1.008    1.511083   -8.507068    5.435760
  65 H     1.0000    0     1.008   -2.410854   -7.971045    3.249860
  66 H     1.0000    0     1.008   -3.462117   -5.242305    0.030011
  67 H     1.0000    0     1.008   -5.473613   -1.645121    0.371471
  68 H     1.0000    0     1.008   -6.406607    2.358222    1.563533
  69 H     1.0000    0     1.008   -1.730370    2.392009   -0.206089
  70 H     1.0000    0     1.008    1.967343    3.958667    3.317479
  71 H     1.0000    0     1.008   -0.397588    8.032855    3.283777
  72 H     1.0000    0     1.008    2.602513    8.448489    1.799865
  73 H     1.0000    0     1.008   -0.172725    8.160350   -0.090973
  74 H     1.0000    0     1.008   -5.642425    1.417909    7.079324
  75 H     1.0000    0     1.008   -7.535248   -0.864918    5.512698
  76 H     1.0000    0     1.008  -10.376915    2.443126    3.898539
  77 H     1.0000    0     1.008  -11.278226    0.354274    8.052447
  78 H     1.0000    0     1.008   -9.568788    2.771454    9.639782
  79 H     1.0000    0     1.008  -12.412021    3.519975    8.016806
  80 H     1.0000    0     1.008   -7.458002    6.145596    3.626082
  81 H     1.0000    0     1.008  -10.125293    6.878754    5.515593
  82 H     1.0000    0     1.008   -7.152380    6.185347    6.954584
  83 H     1.0000    0     1.008   -1.936783   -5.608643   -3.803681
  84 H     1.0000    0     1.008    1.382159   -5.496199   -4.125718
  85 H     1.0000    0     1.008   -0.542639   -2.689996   -7.355790
  86 H     1.0000    0     1.008    1.106004   -0.805287   -5.128695
  87 H     1.0000    0     1.008   -2.910464   -0.059262   -2.768677
  88 H     1.0000    0     1.008   -4.618312   -1.748990   -5.074040
  89 H     1.0000    0     1.008   -3.686968    1.510407   -8.272767
  90 H     1.0000    0     1.008   -1.416387    2.931687   -6.263155
  91 H     1.0000    0     1.008   -4.797475    3.950760   -3.121560
  92 H     1.0000    0     1.008   -7.110260    2.653901   -5.150655
  93 H     1.0000    0     1.008   -6.065806    5.936573   -8.418730
  94 H     1.0000    0     1.008   -3.655006    7.132430   -6.451765
  95 H     1.0000    0     1.008   -6.898496    8.159816   -3.115731
  96 H     1.0000    0     1.008   -9.309101    7.015765   -5.110237
  97 H     1.0000    0     1.008   -8.202393   10.323004   -8.343010
  98 H     1.0000    0     1.008   -5.789074   11.459998   -6.352387
  99 H     1.0000    0     1.008   -9.697108   14.123207   -5.916465
 100 H     1.0000    0     1.008  -11.472547   11.418744   -5.024090
 101 H     1.0000    0     1.008   -9.040883   12.562274   -3.018498
 102 H     1.0000    0     1.008    1.942689   -8.323585    0.150734
 103 H     1.0000    0     1.008    9.897813   -5.934414    6.046027
 104 H     1.0000    0     1.008    8.594579   -2.993161    5.163461
 105 H     1.0000    0     1.008   13.367997   -2.937287    4.963708
 106 H     1.0000    0     1.008   13.316440   -5.442420    2.728962
 107 H     1.0000    0     1.008   12.115774   -2.425248    1.909170
 108 H     1.0000    0     1.008    8.662853   -2.593734   -7.239520
 109 H     1.0000    0     1.008   11.347967   -1.433673   -3.507502
 110 H     1.0000    0     1.008   11.612521   -4.699695   -2.705960
 111 H     1.0000    0     1.008   12.862420   -3.559403   -5.596168
 112 H     1.0000    0     1.008    6.910090   -6.978447   -7.647132
 113 H     1.0000    0     1.008   10.254838   -6.927903   -7.948629
 114 H     1.0000    0     1.008    8.826089   -8.012132   -5.104610

--------------------------------
INTERNAL COORDINATES (ANGSTROEM)
--------------------------------
 O      0   0   0     0.000000000000     0.00000000     0.00000000
 C      1   0   0     1.227699991080     0.00000000     0.00000000
 C      2   1   0     1.535199551242   118.35286067     0.00000000
 C      3   2   1     1.549097111213   108.93969440   284.76232651
 C      4   3   2     1.532914577949   104.40630048   212.22566982
 C      5   4   3     1.529631989469   102.82861026    36.04372953
 N      6   5   4     1.472507675003   102.82838746   323.59804800
 C      7   6   5     1.361460087911   127.10535563   219.95414154
 O      8   7   6     1.237186331048   121.18126506   176.71636598
 N      2   1   3     1.367567418566   126.21585773   186.96872211
 C     10   2   1     1.466553805720   125.68351601   352.74192884
 C     11  10   2     1.535581168198   108.88796423   168.87723064
 N     12  11  10     1.360423733994   115.21475036   323.55375758
 C     13  12  11     1.458518065256   123.22702759   195.26211877
 C     14  13  12     1.538006333998   114.13770087   297.49016373
 N     15  14  13     1.358931051792   115.86559632   331.07965662
 C     16  15  14     1.450315434991   121.82783513   172.65920116
 C     17  16  15     1.532987481433   112.40250326   248.41650477
 C     18  17  16     1.571001371519   117.03653250   290.85368004
 C     19  18  17     1.533110616616   116.82809460   317.56716448
 N     20  19  18     1.368654733479   113.37845475   212.80296333
 C     21  20  19     1.465444269293   122.38473673   188.30304215
 C     22  21  20     1.554513744271   109.91238879    47.46236830
 N     23  22  21     1.358918263817   113.99027694    49.98964500
 C     24  23  22     1.449516976813   121.53465781   188.14045863
 C     25  24  23     1.540962500069   111.65585825   282.33237507
 O     23  22  21     1.227873580331   122.96198892   227.07409673
 C     22  21  20     1.536802640004   114.10307342   280.67650750
 C     28  22  21     1.538845934384   113.86671908   223.75895786
 C     29  28  22     1.532255839816   109.85109670   177.44581400
 C     29  28  22     1.533381010997   112.87810960   301.47780336
 O     20  19  18     1.227003875322   124.50354335    39.14469875
 C     19  18  17     1.536461594197   111.81953470    81.27352938
 C     33  19  18     1.512545639912   118.13107053    95.57196215
 C     34  33  19     1.538437195134   111.70113196   124.04233482
 C     35  34  33     1.529023150409   111.46447002   294.51264560
 C     36  35  34     1.528247603289   115.25367755   174.83474286
 C     37  36  35     1.530590089230   111.79900017   194.81832865
 C     38  37  36     1.528901453130   114.24515163   175.96736628
 C     39  38  37     1.530337895064   112.99936082   184.00370084
 C     40  39  38     1.530762371192   113.75029693   178.35815057
 C     41  40  39     1.529843457218   113.06367937   180.37737504
 O     33  19  18     1.229269010442   120.47074222   275.32597100
 O     18  17  16     1.422227216872   112.38234714    58.04578677
 O     15  14  13     1.229577778341   119.33031374   153.38648408
 C     14  13  12     1.535197715058   110.04254935   173.77046328
 C     46  14  13     1.530122256934   113.93863867   296.79032813
 O     12  11  10     1.235921914952   121.77186085   145.47516597
 C     11  10   2     1.557294861614   113.87686271    45.19196388
 C     49  11  10     1.530950723587   113.41840421    56.07280556
 C     49  11  10     1.531337901674   110.76974288   182.25549046
 H      3   2   1     1.099116474874   105.86273453    45.28906966
 H      4   3   2     1.094658819804   111.31217632    88.68275344
 H      4   3   2     1.100731171947   109.45336885   329.97755002
 H      5   4   3     1.097097600599   113.08831695   157.77584624
 H      5   4   3     1.100161166098   110.53632988   279.22036573
 H      6   5   4     1.103206477538   111.21354294    81.29912750
 H      6   5   4     1.093956072751   113.23648139   203.14511875
 H     10   2   1     1.023276470468   114.67967249   204.38841234
 H     11  10   2     1.101195676280   110.10243909   284.80762873
 H     13  12  11     1.017170045624   116.10545597   358.29991056
 H     14  13  12     1.102179854122   109.21142181    53.67920172
 H     16  15  14     1.019437850990   119.46305585     3.79777880
 H     17  16  15     1.096294819662   110.37748958   125.32769475
 H     17  16  15     1.097968719241   106.49089479     6.21133055
 H     18  17  16     1.101729636191   106.33769333   173.26510594
 H     19  18  17     1.099732442595   104.90590395   196.33203811
 H     21  20  19     1.014216583973   119.11439115     9.31531959
 H     22  21  20     1.103449310785   104.91939155   161.32261674
 H     24  23  22     1.018070590841   121.73195809   355.19816268
 H     25  24  23     1.099893582496   107.77742202    42.80476504
 H     26  25  24     1.095882501708   108.82355981    58.96925577
 H     26  25  24     1.099070089084   111.53582295   179.01221309
 H     26  25  24     1.097736965049   109.61630066   299.27694114
 H     28  22  21     1.099464175920   108.42767773   101.06548119
 H     28  22  21     1.099896304864   108.02670437   344.73278701
 H     29  28  22     1.107046901648   107.39690276    60.31967948
 H     30  29  28     1.099946478676   111.49444543   303.88675988
 H     30  29  28     1.100746039708   110.47093033    63.67916005
 H     30  29  28     1.099466862700   111.20498963   183.27090459
 H     31  29  28     1.099607465724   112.26046868    60.88608205
 H     31  29  28     1.099717528493   110.44621962   180.74240968
 H     31  29  28     1.098560832258   110.72913733   301.15788735
 H     34  33  19     1.097548841274   110.22150169   359.90338193
 H     34  33  19     1.102839252604   105.57204512   245.01393583
 H     35  34  33     1.100634592287   108.97536649   172.16432419
 H     35  34  33     1.099808776894   109.52521206    54.94738541
 H     36  35  34     1.104067009265   107.68626746    54.55097800
 H     36  35  34     1.105387166393   109.76340643   299.85192224
 H     37  36  35     1.102858013483   110.12280088    72.10131071
 H     37  36  35     1.099806462303   108.66668328   315.04693070
 H     38  37  36     1.105463291261   108.38258935    55.15867586
 H     38  37  36     1.104885198716   109.93236105   299.56062038
 H     39  38  37     1.103588021019   109.69240596    61.44044687
 H     39  38  37     1.103452047251   108.87533198   305.72740259
 H     40  39  38     1.104657754020   109.06832106    56.20564224
 H     40  39  38     1.104426369439   109.41303209   300.81397208
 H     41  40  39     1.102992543805   109.17510433    58.00633830
 H     41  40  39     1.102993609482   109.06397889   302.64431077
 H     42  41  40     1.099091841971   111.65407193   179.90710963
 H     42  41  40     1.100443272574   111.08551409   300.13251591
 H     42  41  40     1.100435907887   111.06544430    59.67067099
 H     44  18  17     0.984020470879   109.31961777   315.01873480
 H     46  14  13     1.098651123150   106.65252614   175.40734218
 H     46  14  13     1.102666088846   108.79020003    60.74487149
 H     47  46  14     1.098356214653   110.64604177   183.37117225
 H     47  46  14     1.099360163955   110.95327248   303.08656622
 H     47  46  14     1.100626910035   112.78045914    63.54348869
 H     49  11  10     1.097161447679   104.57488926   299.12098778
 H     50  49  11     1.099293800611   111.74531333   307.11123549
 H     50  49  11     1.099725737785   111.98264386    69.12565433
 H     50  49  11     1.098409418419   109.70607183   188.35245354
 H     51  49  11     1.098952882445   111.44593514    53.99721254
 H     51  49  11     1.098754236161   109.58731057   173.41013158
 H     51  49  11     1.098640634274   112.15851510   293.52083116

---------------------------
INTERNAL COORDINATES (A.U.)
---------------------------
 O      0   0   0     0.000000000000     0.00000000     0.00000000
 C      1   0   0     2.320016757758     0.00000000     0.00000000
 C      2   1   0     2.901106712767   118.35286067     0.00000000
 C      3   2   1     2.927369295042   108.93969440   284.76232651
 C      4   3   2     2.896788739019   104.40630048   212.22566982
 C      5   4   3     2.890585545782   102.82861026    36.04372953
 N      6   5   4     2.782636235853   102.82838746   323.59804800
 C      7   6   5     2.572786708416   127.10535563   219.95414154
 O      8   7   6     2.337943342311   121.18126506   176.71636598
 N      2   1   3     2.584327890763   126.21585773   186.96872211
 C     10   2   1     2.771385053471   125.68351601   352.74192884
 C     11  10   2     2.901827864302   108.88796423   168.87723064
 N     12  11  10     2.570828283335   115.21475036   323.55375758
 C     13  12  11     2.756199704710   123.22702759   195.26211877
 C     14  13  12     2.906410763492   114.13770087   297.49016373
 N     15  14  13     2.568007522768   115.86559632   331.07965662
 C     16  15  14     2.740698979933   121.82783513   172.65920116
 C     17  16  15     2.896926506638   112.40250326   248.41650477
 C     18  17  16     2.968762348185   117.03653250   290.85368004
 C     19  18  17     2.897159198412   116.82809460   317.56716448
 N     20  19  18     2.586382618171   113.37845475   212.80296333
 C     21  20  19     2.769288333487   122.38473673   188.30304215
 C     22  21  20     2.937605248089   109.91238879    47.46236830
 N     23  22  21     2.567983356997   113.99027694    49.98964500
 C     24  23  22     2.739190112646   121.53465781   188.14045863
 C     25  24  23     2.911997107773   111.65585825   282.33237507
 O     23  22  21     2.320344793903   122.96198892   227.07409673
 C     22  21  20     2.904136111494   114.10307342   280.67650750
 C     28  22  21     2.907997378284   113.86671908   223.75895786
 C     29  28  22     2.895543904353   109.85109670   177.44581400
 C     29  28  22     2.897670169739   112.87810960   301.47780336
 O     20  19  18     2.318701289618   124.50354335    39.14469875
 C     19  18  17     2.903491628321   111.81953470    81.27352938
 C     33  19  18     2.858297024490   118.13107053    95.57196215
 C     34  33  19     2.907224973042   111.70113196   124.04233482
 C     35  34  33     2.889435006698   111.46447002   294.51264560
 C     36  35  34     2.887969435037   115.25367755   174.83474286
 C     37  36  35     2.892396091939   111.79900017   194.81832865
 C     38  37  36     2.889205032171   114.24515163   175.96736628
 C     39  38  37     2.891919514032   112.99936082   184.00370084
 C     40  39  38     2.892721657665   113.75029693   178.35815057
 C     41  40  39     2.890985161914   113.06367937   180.37737504
 O     33  19  18     2.322981774651   120.47074222   275.32597100
 O     18  17  16     2.687619940097   112.38234714    58.04578677
 O     15  14  13     2.323565261420   119.33031374   153.38648408
 C     14  13  12     2.901103242881   110.04254935   173.77046328
 C     46  14  13     2.891512017024   113.93863867   296.79032813
 O     12  11  10     2.335553942171   121.77186085   145.47516597
 C     11  10   2     2.942860798213   113.87686271    45.19196388
 C     49  11  10     2.893077592108   113.41840421    56.07280556
 C     49  11  10     2.893809252658   110.76974288   182.25549046
 H      3   2   1     2.077029126793   105.86273453    45.28906966
 H      4   3   2     2.068605379511   111.31217632    88.68275344
 H      4   3   2     2.080080462050   109.45336885   329.97755002
 H      5   4   3     2.073214007314   113.08831695   157.77584624
 H      5   4   3     2.079003307102   110.53632988   279.22036573
 H      6   5   4     2.084758111714   111.21354294    81.29912750
[...]
      equations for an ideal gas
  (5) All vibrations are strictly harmonic

freq.       6.75  E(vib)   ...       0.58 
freq.       7.98  E(vib)   ...       0.58 
freq.       8.52  E(vib)   ...       0.58 
freq.      19.63  E(vib)   ...       0.56 
freq.      26.26  E(vib)   ...       0.56 
freq.      33.01  E(vib)   ...       0.55 
freq.      35.95  E(vib)   ...       0.54 
freq.      38.32  E(vib)   ...       0.54 
freq.      40.42  E(vib)   ...       0.54 
freq.      42.82  E(vib)   ...       0.53 
freq.      45.41  E(vib)   ...       0.53 
freq.      51.08  E(vib)   ...       0.52 
freq.      53.68  E(vib)   ...       0.52 
freq.      56.80  E(vib)   ...       0.52 
freq.      56.85  E(vib)   ...       0.51 
freq.      65.83  E(vib)   ...       0.50 
freq.      69.96  E(vib)   ...       0.50 
freq.      73.90  E(vib)   ...       0.49 
freq.      78.03  E(vib)   ...       0.49 
freq.      83.55  E(vib)   ...       0.48 
freq.      89.62  E(vib)   ...       0.47 
freq.      95.25  E(vib)   ...       0.47 
freq.     100.89  E(vib)   ...       0.46 
freq.     107.19  E(vib)   ...       0.45 
freq.     110.83  E(vib)   ...       0.45 
freq.     112.80  E(vib)   ...       0.45 
freq.     118.17  E(vib)   ...       0.44 
freq.     118.32  E(vib)   ...       0.44 
freq.     125.13  E(vib)   ...       0.43 
freq.     131.33  E(vib)   ...       0.42 
freq.     135.17  E(vib)   ...       0.42 
freq.     141.49  E(vib)   ...       0.41 
freq.     148.02  E(vib)   ...       0.41 
freq.     149.50  E(vib)   ...       0.40 
freq.     156.19  E(vib)   ...       0.40 
freq.     163.04  E(vib)   ...       0.39 
freq.     166.21  E(vib)   ...       0.39 
freq.     173.21  E(vib)   ...       0.38 
freq.     175.11  E(vib)   ...       0.38 
freq.     181.02  E(vib)   ...       0.37 
freq.     190.32  E(vib)   ...       0.36 
freq.     199.26  E(vib)   ...       0.35 
freq.     202.47  E(vib)   ...       0.35 
freq.     205.65  E(vib)   ...       0.35 
freq.     221.69  E(vib)   ...       0.33 
freq.     222.79  E(vib)   ...       0.33 
freq.     223.80  E(vib)   ...       0.33 
freq.     229.52  E(vib)   ...       0.32 
freq.     232.48  E(vib)   ...       0.32 
freq.     237.34  E(vib)   ...       0.32 
freq.     238.86  E(vib)   ...       0.32 
freq.     243.32  E(vib)   ...       0.31 
freq.     247.03  E(vib)   ...       0.31 
freq.     250.30  E(vib)   ...       0.31 
freq.     256.44  E(vib)   ...       0.30 
freq.     258.61  E(vib)   ...       0.30 
freq.     262.97  E(vib)   ...       0.29 
freq.     270.38  E(vib)   ...       0.29 
freq.     279.47  E(vib)   ...       0.28 
freq.     285.14  E(vib)   ...       0.28 
freq.     296.68  E(vib)   ...       0.27 
freq.     303.86  E(vib)   ...       0.26 
freq.     309.99  E(vib)   ...       0.26 
freq.     314.27  E(vib)   ...       0.25 
freq.     317.89  E(vib)   ...       0.25 
freq.     330.98  E(vib)   ...       0.24 
freq.     340.89  E(vib)   ...       0.23 
freq.     349.10  E(vib)   ...       0.23 
freq.     355.13  E(vib)   ...       0.22 
freq.     366.41  E(vib)   ...       0.22 
freq.     370.59  E(vib)   ...       0.21 
freq.     378.69  E(vib)   ...       0.21 
freq.     383.62  E(vib)   ...       0.20 
freq.     392.32  E(vib)   ...       0.20 
freq.     398.49  E(vib)   ...       0.20 
freq.     407.77  E(vib)   ...       0.19 
freq.     425.57  E(vib)   ...       0.18 
freq.     433.89  E(vib)   ...       0.17 
freq.     445.21  E(vib)   ...       0.17 
freq.     448.97  E(vib)   ...       0.17 
freq.     456.32  E(vib)   ...       0.16 
freq.     482.24  E(vib)   ...       0.15 
freq.     485.84  E(vib)   ...       0.15 
freq.     496.24  E(vib)   ...       0.14 
freq.     509.77  E(vib)   ...       0.14 
freq.     518.00  E(vib)   ...       0.13 
freq.     529.03  E(vib)   ...       0.13 
freq.     535.58  E(vib)   ...       0.12 
freq.     539.35  E(vib)   ...       0.12 
freq.     553.31  E(vib)   ...       0.12 
freq.     555.57  E(vib)   ...       0.12 
freq.     582.80  E(vib)   ...       0.11 
freq.     607.15  E(vib)   ...       0.10 
freq.     612.80  E(vib)   ...       0.10 
freq.     629.81  E(vib)   ...       0.09 
freq.     639.76  E(vib)   ...       0.09 
freq.     656.59  E(vib)   ...       0.08 
freq.     674.12  E(vib)   ...       0.08 
freq.     683.23  E(vib)   ...       0.08 
freq.     688.55  E(vib)   ...       0.07 
freq.     703.80  E(vib)   ...       0.07 
freq.     710.58  E(vib)   ...       0.07 
freq.     711.45  E(vib)   ...       0.07 
freq.     714.09  E(vib)   ...       0.07 
freq.     717.32  E(vib)   ...       0.07 
freq.     725.65  E(vib)   ...       0.06 
freq.     732.54  E(vib)   ...       0.06 
freq.     738.68  E(vib)   ...       0.06 
freq.     752.86  E(vib)   ...       0.06 
freq.     759.62  E(vib)   ...       0.06 
freq.     767.31  E(vib)   ...       0.06 
freq.     775.23  E(vib)   ...       0.05 
freq.     783.00  E(vib)   ...       0.05 
freq.     797.19  E(vib)   ...       0.05 
freq.     800.55  E(vib)   ...       0.05 
freq.     810.57  E(vib)   ...       0.05 
freq.     827.80  E(vib)   ...       0.04 
freq.     839.12  E(vib)   ...       0.04 
freq.     853.29  E(vib)   ...       0.04 
freq.     858.23  E(vib)   ...       0.04 
freq.     858.86  E(vib)   ...       0.04 
freq.     865.08  E(vib)   ...       0.04 
freq.     866.98  E(vib)   ...       0.04 
freq.     877.57  E(vib)   ...       0.04 
freq.     884.21  E(vib)   ...       0.04 
freq.     886.13  E(vib)   ...       0.04 
freq.     888.11  E(vib)   ...       0.04 
freq.     896.03  E(vib)   ...       0.03 
freq.     900.13  E(vib)   ...       0.03 
freq.     903.41  E(vib)   ...       0.03 
freq.     906.72  E(vib)   ...       0.03 
freq.     912.58  E(vib)   ...       0.03 
freq.     919.07  E(vib)   ...       0.03 
freq.     923.46  E(vib)   ...       0.03 
freq.     932.91  E(vib)   ...       0.03 
freq.     941.97  E(vib)   ...       0.03 
freq.     943.88  E(vib)   ...       0.03 
freq.     945.06  E(vib)   ...       0.03 
freq.     950.11  E(vib)   ...       0.03 
freq.     956.15  E(vib)   ...       0.03 
freq.     968.32  E(vib)   ...       0.03 
freq.     970.90  E(vib)   ...       0.03 
freq.     983.89  E(vib)   ...       0.02 
freq.     985.64  E(vib)   ...       0.02 
freq.    1001.13  E(vib)   ...       0.02 
freq.    1003.46  E(vib)   ...       0.02 
freq.    1005.57  E(vib)   ...       0.02 
freq.    1010.25  E(vib)   ...       0.02 
freq.    1015.83  E(vib)   ...       0.02 
freq.    1029.73  E(vib)   ...       0.02 
freq.    1032.27  E(vib)   ...       0.02 
freq.    1035.40  E(vib)   ...       0.02 
freq.    1041.68  E(vib)   ...       0.02 
freq.    1048.73  E(vib)   ...       0.02 
freq.    1051.90  E(vib)   ...       0.02 
freq.    1052.97  E(vib)   ...       0.02 
freq.    1055.85  E(vib)   ...       0.02 
freq.    1060.30  E(vib)   ...       0.02 
freq.    1064.51  E(vib)   ...       0.02 
freq.    1069.14  E(vib)   ...       0.02 
freq.    1074.14  E(vib)   ...       0.02 
freq.    1075.87  E(vib)   ...       0.02 
freq.    1083.10  E(vib)   ...       0.02 
freq.    1095.45  E(vib)   ...       0.02 
freq.    1100.56  E(vib)   ...       0.02 
freq.    1104.52  E(vib)   ...       0.02 
freq.    1111.99  E(vib)   ...       0.01 
freq.    1113.49  E(vib)   ...       0.01 
freq.    1120.52  E(vib)   ...       0.01 
freq.    1125.33  E(vib)   ...       0.01 
freq.    1126.65  E(vib)   ...       0.01 
freq.    1141.99  E(vib)   ...       0.01 
freq.    1149.55  E(vib)   ...       0.01 
freq.    1160.93  E(vib)   ...       0.01 
freq.    1161.35  E(vib)   ...       0.01 
freq.    1164.36  E(vib)   ...       0.01 
freq.    1165.81  E(vib)   ...       0.01 
freq.    1174.32  E(vib)   ...       0.01 
freq.    1178.61  E(vib)   ...       0.01 
freq.    1179.56  E(vib)   ...       0.01 
freq.    1184.02  E(vib)   ...       0.01 
freq.    1196.45  E(vib)   ...       0.01 
freq.    1204.98  E(vib)   ...       0.01 
freq.    1208.25  E(vib)   ...       0.01 
freq.    1209.51  E(vib)   ...       0.01 
freq.    1214.43  E(vib)   ...       0.01 
freq.    1220.02  E(vib)   ...       0.01 
freq.    1222.26  E(vib)   ...       0.01 
freq.    1229.22  E(vib)   ...       0.01 
freq.    1232.83  E(vib)   ...       0.01 
freq.    1240.28  E(vib)   ...       0.01 
freq.    1243.57  E(vib)   ...       0.01 
freq.    1247.92  E(vib)   ...       0.01 
freq.    1253.84  E(vib)   ...       0.01 
freq.    1255.26  E(vib)   ...       0.01 
freq.    1256.29  E(vib)   ...       0.01 
freq.    1263.99  E(vib)   ...       0.01 
freq.    1265.76  E(vib)   ...       0.01 
freq.    1267.83  E(vib)   ...       0.01 
freq.    1275.87  E(vib)   ...       0.01 
freq.    1279.07  E(vib)   ...       0.01 
freq.    1280.07  E(vib)   ...       0.01 
freq.    1284.78  E(vib)   ...       0.01 
freq.    1288.28  E(vib)   ...       0.01 
freq.    1291.13  E(vib)   ...       0.01 
freq.    1295.55  E(vib)   ...       0.01 
freq.    1297.02  E(vib)   ...       0.01 
freq.    1297.27  E(vib)   ...       0.01 
freq.    1300.47  E(vib)   ...       0.01 
freq.    1307.33  E(vib)   ...       0.01 
freq.    1312.69  E(vib)   ...       0.01 
freq.    1315.79  E(vib)   ...       0.01 
freq.    1316.85  E(vib)   ...       0.01 
freq.    1317.68  E(vib)   ...       0.01 
freq.    1319.07  E(vib)   ...       0.01 
freq.    1324.62  E(vib)   ...       0.01 
freq.    1326.88  E(vib)   ...       0.01 
freq.    1328.47  E(vib)   ...       0.01 
freq.    1329.97  E(vib)   ...       0.01 
freq.    1333.78  E(vib)   ...       0.01 
freq.    1335.56  E(vib)   ...       0.01 
freq.    1339.81  E(vib)   ...       0.01 
freq.    1343.67  E(vib)   ...       0.01 
freq.    1346.09  E(vib)   ...       0.01 
freq.    1349.11  E(vib)   ...       0.01 
freq.    1352.22  E(vib)   ...       0.01 
freq.    1353.17  E(vib)   ...       0.01 
freq.    1353.59  E(vib)   ...       0.01 
freq.    1354.95  E(vib)   ...       0.01 
freq.    1363.95  E(vib)   ...       0.01 
freq.    1369.11  E(vib)   ...       0.01 
freq.    1374.40  E(vib)   ...       0.01 
freq.    1376.21  E(vib)   ...       0.01 
freq.    1376.45  E(vib)   ...       0.01 
freq.    1409.02  E(vib)   ...       0.00 
freq.    1415.20  E(vib)   ...       0.00 
freq.    1417.89  E(vib)   ...       0.00 
freq.    1427.57  E(vib)   ...       0.00 
freq.    1429.01  E(vib)   ...       0.00 
freq.    1430.57  E(vib)   ...       0.00 
freq.    1431.97  E(vib)   ...       0.00 
freq.    1433.98  E(vib)   ...       0.00 
freq.    1434.44  E(vib)   ...       0.00 
freq.    1435.21  E(vib)   ...       0.00 
freq.    1436.92  E(vib)   ...       0.00 
freq.    1437.24  E(vib)   ...       0.00 
freq.    1441.26  E(vib)   ...       0.00 
freq.    1441.97  E(vib)   ...       0.00 
freq.    1442.21  E(vib)   ...       0.00 
freq.    1443.80  E(vib)   ...       0.00 
freq.    1448.48  E(vib)   ...       0.00 
freq.    1449.22  E(vib)   ...       0.00 
freq.    1450.18  E(vib)   ...       0.00 
freq.    1451.07  E(vib)   ...       0.00 
freq.    1451.80  E(vib)   ...       0.00 
freq.    1452.38  E(vib)   ...       0.00 
freq.    1454.59  E(vib)   ...       0.00 
freq.    1454.71  E(vib)   ...       0.00 
freq.    1456.24  E(vib)   ...       0.00 
freq.    1458.21  E(vib)   ...       0.00 
freq.    1459.38  E(vib)   ...       0.00 
freq.    1463.05  E(vib)   ...       0.00 
freq.    1463.58  E(vib)   ...       0.00 
freq.    1468.19  E(vib)   ...       0.00 
freq.    1471.23  E(vib)   ...       0.00 
freq.    1473.28  E(vib)   ...       0.00 
freq.    1485.30  E(vib)   ...       0.00 
freq.    1502.51  E(vib)   ...       0.00 
freq.    1643.77  E(vib)   ...       0.00 
freq.    1659.06  E(vib)   ...       0.00 
freq.    1664.55  E(vib)   ...       0.00 
freq.    1687.02  E(vib)   ...       0.00 
freq.    1693.34  E(vib)   ...       0.00 
freq.    1697.11  E(vib)   ...       0.00 
freq.    1701.64  E(vib)   ...       0.00 
freq.    2899.23  E(vib)   ...       0.00 
freq.    2914.70  E(vib)   ...       0.00 
freq.    2919.68  E(vib)   ...       0.00 
freq.    2924.48  E(vib)   ...       0.00 
freq.    2935.85  E(vib)   ...       0.00 
freq.    2938.98  E(vib)   ...       0.00 
freq.    2941.00  E(vib)   ...       0.00 
freq.    2943.33  E(vib)   ...       0.00 
freq.    2945.14  E(vib)   ...       0.00 
freq.    2947.83  E(vib)   ...       0.00 
freq.    2951.27  E(vib)   ...       0.00 
freq.    2954.41  E(vib)   ...       0.00 
freq.    2956.46  E(vib)   ...       0.00 
freq.    2956.79  E(vib)   ...       0.00 
freq.    2957.64  E(vib)   ...       0.00 
freq.    2960.61  E(vib)   ...       0.00 
freq.    2961.97  E(vib)   ...       0.00 
freq.    2962.92  E(vib)   ...       0.00 
freq.    2963.13  E(vib)   ...       0.00 
freq.    2963.99  E(vib)   ...       0.00 
freq.    2968.20  E(vib)   ...       0.00 
freq.    2969.93  E(vib)   ...       0.00 
freq.    2970.00  E(vib)   ...       0.00 
freq.    2972.90  E(vib)   ...       0.00 
freq.    2973.27  E(vib)   ...       0.00 
freq.    2974.33  E(vib)   ...       0.00 
freq.    2974.56  E(vib)   ...       0.00 
freq.    2977.15  E(vib)   ...       0.00 
freq.    2983.59  E(vib)   ...       0.00 
freq.    2984.99  E(vib)   ...       0.00 
freq.    2985.85  E(vib)   ...       0.00 
freq.    2987.27  E(vib)   ...       0.00 
freq.    3001.57  E(vib)   ...       0.00 
freq.    3007.32  E(vib)   ...       0.00 
freq.    3010.61  E(vib)   ...       0.00 
freq.    3010.96  E(vib)   ...       0.00 
freq.    3011.80  E(vib)   ...       0.00 
freq.    3016.40  E(vib)   ...       0.00 
freq.    3019.44  E(vib)   ...       0.00 
freq.    3020.05  E(vib)   ...       0.00 
freq.    3023.85  E(vib)   ...       0.00 
freq.    3025.50  E(vib)   ...       0.00 
freq.    3026.82  E(vib)   ...       0.00 
freq.    3027.97  E(vib)   ...       0.00 
freq.    3031.21  E(vib)   ...       0.00 
freq.    3032.78  E(vib)   ...       0.00 
freq.    3033.02  E(vib)   ...       0.00 
freq.    3033.86  E(vib)   ...       0.00 
freq.    3037.06  E(vib)   ...       0.00 
freq.    3038.73  E(vib)   ...       0.00 
freq.    3039.19  E(vib)   ...       0.00 
freq.    3040.76  E(vib)   ...       0.00 
freq.    3044.83  E(vib)   ...       0.00 
freq.    3045.88  E(vib)   ...       0.00 
freq.    3058.12  E(vib)   ...       0.00 
freq.    3062.85  E(vib)   ...       0.00 
freq.    3065.65  E(vib)   ...       0.00 
freq.    3071.41  E(vib)   ...       0.00 
freq.    3404.37  E(vib)   ...       0.00 
freq.    3449.64  E(vib)   ...       0.00 
freq.    3464.98  E(vib)   ...       0.00 
freq.    3480.42  E(vib)   ...       0.00 
freq.    3499.16  E(vib)   ...       0.00 
freq.    3521.58  E(vib)   ...       0.00 

------------
INNER ENERGY
------------

The inner energy is: U= E(el) + E(ZPE) + E(vib) + E(rot) + E(trans)
    E(el)   - is the total energy from the electronic structure calculation
              = E(kin-el) + E(nuc-el) + E(el-el) + E(nuc-nuc)
    E(ZPE)  - the the zero temperature vibrational energy from the frequency calculation
    E(vib)  - the the finite temperature correction to E(ZPE) due to population
              of excited vibrational states
    E(rot)  - is the rotational thermal energy
    E(trans)- is the translational thermal energy

Summary of contributions to the inner energy U:
Electronic energy                ...  -2380.07028662 Eh
Zero point energy                ...      0.97702709 Eh     613.09 kcal/mol
Thermal vibrational correction   ...      0.05577744 Eh      35.00 kcal/mol
Thermal rotational correction    ...      0.00141627 Eh       0.89 kcal/mol
Thermal translational correction ...      0.00141627 Eh       0.89 kcal/mol
-----------------------------------------------------------------------
Total thermal energy                  -2379.03464955 Eh


Summary of corrections to the electronic energy:
(perhaps to be used in another calculation)
Total thermal correction                  0.05860998 Eh      36.78 kcal/mol
Non-thermal (ZPE) correction              0.97702709 Eh     613.09 kcal/mol
-----------------------------------------------------------------------
Total correction                          1.03563707 Eh     649.87 kcal/mol


--------
ENTHALPY
--------

The enthalpy is H = U + kB*T
                kB is Boltzmann's constant
Total free energy                 ...  -2379.03464955 Eh 
Thermal Enthalpy correction       ...      0.00094421 Eh       0.59 kcal/mol
-----------------------------------------------------------------------
Total Enthalpy                    ...  -2379.03370534 Eh


Note: Only C1 symmetry has been detected, increase convergence thresholds 
      if your molecule has a higher symmetry. Symmetry factor of 1.0 is   
      used for the rotational entropy correction. 
 

Note: Rotational entropy computed according to Herzberg 
Infrared and Raman Spectra, Chapter V,1, Van Nostrand Reinhold, 1945 
Point Group:  C1, Symmetry Number:   1  
Rotational constants in cm-1:     0.002395     0.001410     0.001175 

Vibrational entropy computed according to the QRRHO of S. Grimme
Chem.Eur.J. 2012 18 9955


-------
ENTROPY
-------

The entropy contributions are T*S = T*(S(el)+S(vib)+S(rot)+S(trans))
     S(el)   - electronic entropy
     S(vib)  - vibrational entropy
     S(rot)  - rotational entropy
     S(trans)- translational entropy
The entropies will be listed as mutliplied by the temperature to get
units of energy

Electronic entropy                ...      0.00000000 Eh      0.00 kcal/mol
Vibrational entropy               ...      0.10282215 Eh     64.52 kcal/mol
Rotational entropy                ...      0.01864339 Eh     11.70 kcal/mol
Translational entropy             ...      0.02166895 Eh     13.60 kcal/mol
-----------------------------------------------------------------------
Final entropy term                ...      0.14313449 Eh     89.82 kcal/mol

In case the symmetry of your molecule has not been determined correctly
or in case you have a reason to use a different symmetry number we print 
out the resulting rotational entropy values for sn=1,12 :
 --------------------------------------------------------
|  sn= 1 | S(rot)=       0.01864339 Eh     11.70 kcal/mol|
|  sn= 2 | S(rot)=       0.01798893 Eh     11.29 kcal/mol|
|  sn= 3 | S(rot)=       0.01760610 Eh     11.05 kcal/mol|
|  sn= 4 | S(rot)=       0.01733448 Eh     10.88 kcal/mol|
|  sn= 5 | S(rot)=       0.01712379 Eh     10.75 kcal/mol|
|  sn= 6 | S(rot)=       0.01695164 Eh     10.64 kcal/mol|
|  sn= 7 | S(rot)=       0.01680610 Eh     10.55 kcal/mol|
|  sn= 8 | S(rot)=       0.01668002 Eh     10.47 kcal/mol|
|  sn= 9 | S(rot)=       0.01656881 Eh     10.40 kcal/mol|
|  sn=10 | S(rot)=       0.01646933 Eh     10.33 kcal/mol|
|  sn=11 | S(rot)=       0.01637934 Eh     10.28 kcal/mol|
|  sn=12 | S(rot)=       0.01629719 Eh     10.23 kcal/mol|
 --------------------------------------------------------


-------------------
GIBBS FREE ENERGY
-------------------

The Gibbs free energy is G = H - T*S

Total enthalpy                    ...  -2379.03370534 Eh 
Total entropy correction          ...     -0.14313449 Eh    -89.82 kcal/mol
-----------------------------------------------------------------------
Final Gibbs free energy         ...  -2379.17683983 Eh

For completeness - the Gibbs free energy minus the electronic energy
G-E(el)                           ...      0.89344679 Eh    560.65 kcal/mol


Timings for individual modules:

Sum of individual times         ...    32250.468 sec (= 537.508 min)
GTO integral calculation        ...      123.505 sec (=   2.058 min)   0.4 %
SCF iterations                  ...     2634.173 sec (=  43.903 min)   8.2 %
SCF Gradient evaluation         ...     1052.565 sec (=  17.543 min)   3.3 %
Geometry relaxation             ...       29.505 sec (=   0.492 min)   0.1 %
Analytical frequency calculation...    28410.720 sec (= 473.512 min)  88.1 %
                             ****ORCA TERMINATED NORMALLY****
TOTAL RUN TIME: 0 days 8 hours 58 minutes 12 seconds 982 msec
