
                                 *****************
                                 * O   R   C   A *
                                 *****************

           --- An Ab Initio, DFT and Semiempirical electronic structure package ---

                  #######################################################
                  #                        -***-                        #
                  #          Department of theory and spectroscopy      #
                  #               Directorship: Frank Neese             #
                  #        Max Planck Institute fuer Kohlenforschung    #
                  #                Kaiser Wilhelm Platz 1               #
                  #                 D-45470 Muelheim/Ruhr               #
                  #                      Germany                        #
                  #                                                     #
                  #                  All rights reserved                #
                  #                        -***-                        #
                  #######################################################


                         Program Version 4.2.0 -  RELEASE  -


 With contributions from (in alphabetic order):
   Daniel Aravena         : Magnetic Suceptibility
   Michael Atanasov       : Ab Initio Ligand Field Theory (pilot matlab implementation)
   Alexander A. Auer      : GIAO ZORA, VPT2
   Ute Becker             : Parallelization
   Giovanni Bistoni       : ED, misc. LED, open-shell LED, HFLED
   Martin Brehm           : Molecular dynamics
   Dmytro Bykov           : SCF Hessian
   Vijay G. Chilkuri      : MRCI spin determinant printing, contributions to CSF-ICE
   Dipayan Datta          : RHF DLPNO-CCSD density
   Achintya Kumar Dutta   : EOM-CC, STEOM-CC
   Dmitry Ganyushin       : Spin-Orbit,Spin-Spin,Magnetic field MRCI
   Miquel Garcia          : C-PCM Hessian, Gaussian charge scheme
   Yang Guo               : DLPNO-NEVPT2, CIM, IAO-localization
   Andreas Hansen         : Spin unrestricted coupled pair/coupled cluster methods
   Benjamin Helmich-Paris : CASSCF linear response (MC-RPA)
   Lee Huntington         : MR-EOM, pCC
   Robert Izsak           : Overlap fitted RIJCOSX, COSX-SCS-MP3, EOM
   Christian Kollmar      : KDIIS, OOCD, Brueckner-CCSD(T), CCSD density
   Simone Kossmann        : Meta GGA functionals, TD-DFT gradient, OOMP2, MP2 Hessian
   Martin Krupicka        : AUTO-CI
   Lucas Lang             : DCDCAS
   Dagmar Lenk            : GEPOL surface, SMD
   Dimitrios Liakos       : Extrapolation schemes; Compound Job, initial MDCI parallelization
   Dimitrios Manganas     : Further ROCIS development; embedding schemes
   Dimitrios Pantazis     : SARC Basis sets
   Taras Petrenko         : DFT Hessian,TD-DFT gradient, ASA, ECA, R-Raman, ABS, FL, XAS/XES, NRVS
   Peter Pinski           : DLPNO-MP2, DLPNO-MP2 Gradient
   Christoph Reimann      : Effective Core Potentials
   Marius Retegan         : Local ZFS, SOC
   Christoph Riplinger    : Optimizer, TS searches, QM/MM, DLPNO-CCSD(T), (RO)-DLPNO pert. Triples
   Tobias Risthaus        : Range-separated hybrids, TD-DFT gradient, RPA, STAB
   Michael Roemelt        : Original ROCIS implementation
   Masaaki Saitow         : Open-shell DLPNO-CCSD energy and density
   Barbara Sandhoefer     : DKH picture change effects
   Avijit Sen             : IP-ROCIS
   Kantharuban Sivalingam : CASSCF convergence, NEVPT2, FIC-MRCI
   Bernardo de Souza      : ESD, SOC TD-DFT
   Georgi Stoychev        : AutoAux, RI-MP2 NMR
   Willem Van den Heuvel  : Paramagnetic NMR
   Boris Wezisla          : Elementary symmetry handling
   Frank Wennmohs         : Technical directorship


 We gratefully acknowledge several colleagues who have allowed us to
 interface, adapt or use parts of their codes:
   Stefan Grimme, W. Hujo, H. Kruse,             : VdW corrections, initial TS optimization,
                  C. Bannwarth                     DFT functionals, gCP, sTDA/sTD-DF
   Ed Valeev, F. Pavosevic, A. Kumar             : LibInt (2-el integral package), F12 methods
   Garnet Chan, S. Sharma, J. Yang, R. Olivares  : DMRG
   Ulf Ekstrom                                   : XCFun DFT Library
   Mihaly Kallay                                 : mrcc  (arbitrary order and MRCC methods)
   Andreas Klamt, Michael Diedenhofen            : otool_cosmo (COSMO solvation model)
   Jiri Pittner, Ondrej Demel                    : Mk-CCSD
   Frank Weinhold                                : gennbo (NPA and NBO analysis)
   Christopher J. Cramer and Donald G. Truhlar   : smd solvation model
   Lars Goerigk                                  : TD-DFT with DH, B97 family of functionals
   V. Asgeirsson, H. Jonsson                     : NEB implementation
   FAccTs GmbH                                   : IRC, NEB, NEB-TS, Multilevel, MM, QM/MM, CI optimization
   S Lehtola, MJT Oliveira, MAL Marques          : LibXC Library


 Your calculation uses the libint2 library for the computation of 2-el integrals
 For citations please refer to: http://libint.valeyev.net

 Your ORCA version has been built with support for libXC version: 4.2.3
 For citations please refer to: https://tddft.org/programs/libxc/

 This ORCA versions uses:
   CBLAS   interface :  Fast vector & matrix operations
   LAPACKE interface :  Fast linear algebra routines
   SCALAPACK package :  Parallel linear algebra routines




***************************************
The coordinates will be read from file: 83_old.xyz
***************************************


Your calculation utilizes the atom-pairwise dispersion correction
with the Becke-Johnson damping scheme (D3BJ)
Cite in your paper:
S.Grimme, S.Ehrlich, L.Goerigk, J Comput Chem, (2011), 32, 1456–1465 
S.Grimme, J.Antony, S.Ehrlich and H.Krieg, J.Chem.Phys., 132, (2010), 154104 
   

----- Orbital basis set information -----
Your calculation utilizes the basis: def2-TZVP
   F. Weigend and R. Ahlrichs, Phys. Chem. Chem. Phys. 7, 3297 (2005).

----- AuxJ basis set information -----
Your calculation utilizes the auxiliary basis: def2/J
   F. Weigend, Phys. Chem. Chem. Phys. 8, 1057 (2006).

================================================================================
                                        WARNINGS
                       Please study these warnings very carefully!
================================================================================


WARNING: Geometry Optimization
  ===> : Switching off AutoStart
         For restart on a previous wavefunction, please use MOREAD

INFO   : the flag for use of LIBINT has been found!

================================================================================
                                       INPUT FILE
================================================================================
NAME = 83.inp
|  1> !RI BP86 def2-tzvp def2/J D3BJ TIGHTSCF TightOpt Grid5 FinalGrid6 freq
|  2> %maxcore 4000
|  3> %pal nprocs 24
|  4> end
|  5> * xyzfile 0 1 83_old.xyz 
|  6> 
|  7>                          ****END OF INPUT****
================================================================================

                       *****************************
                       * Geometry Optimization Run *
                       *****************************

Geometry optimization settings:
Update method            Update   .... BFGS
Choice of coordinates    CoordSys .... Z-matrix Internals
Initial Hessian          InHess   .... Almoef's Model

Convergence Tolerances:
Energy Change            TolE     ....  1.0000e-06 Eh
Max. Gradient            TolMAXG  ....  1.0000e-04 Eh/bohr
RMS Gradient             TolRMSG  ....  3.0000e-05 Eh/bohr
Max. Displacement        TolMAXD  ....  1.0000e-03 bohr
RMS Displacement         TolRMSD  ....  6.0000e-04 bohr
Strict Convergence                ....  False
------------------------------------------------------------------------------
                        ORCA OPTIMIZATION COORDINATE SETUP
------------------------------------------------------------------------------

The optimization will be done in new redundant internal coordinates
Making redundant internal coordinates   ...  (new redundants) done
Evaluating the initial hessian          ...  (Almloef) done
Evaluating the coordinates              ...  done
Calculating the B-matrix                .... done
Calculating the G-matrix                .... done
Diagonalizing the G-matrix              .... done
Small eigenvalue found = 2.375e-04
Small eigenvalue found = 5.032e-04
Small eigenvalue found = 1.855e-03
Small eigenvalue found = 2.455e-03
Small eigenvalue found = 3.244e-03
Small eigenvalue found = 3.553e-03
Small eigenvalue found = 3.997e-03
Small eigenvalue found = 5.775e-03
Small eigenvalue found = 7.276e-03
Small eigenvalue found = 8.057e-03
Small eigenvalue found = 9.009e-03
Small eigenvalue found = 1.082e-02
Small eigenvalue found = 1.227e-02
Small eigenvalue found = 1.253e-02
Small eigenvalue found = 1.615e-02
Small eigenvalue found = 1.798e-02
Small eigenvalue found = 2.094e-02
Small eigenvalue found = 2.398e-02
Small eigenvalue found = 2.529e-02
Small eigenvalue found = 2.792e-02
Small eigenvalue found = 2.961e-02
The first mode is                       ....  323
The number of degrees of freedom        ....  339

    -----------------------------------------------------------------
                    Redundant Internal Coordinates


    -----------------------------------------------------------------
         Definition                    Initial Value    Approx d2E/dq
    -----------------------------------------------------------------
      1. B(C   1,O   0)                  1.2277         1.015742   
      2. B(C   2,C   1)                  1.5427         0.356551   
      3. B(C   3,C   2)                  1.5393         0.361083   
      4. B(C   4,C   3)                  1.5347         0.367140   
      5. B(C   5,C   4)                  1.5362         0.365212   
      6. B(N   6,C   5)                  1.4801         0.401940   
      7. B(N   6,C   2)                  1.4823         0.398728   
      8. B(C   7,N   6)                  1.3625         0.618973   
      9. B(O   8,C   7)                  1.2467         0.947190   
     10. B(N   9,C   1)                  1.3690         0.604436   
     11. B(C  10,N   9)                  1.4558         0.439460   
     12. B(C  11,C  10)                  1.5527         0.343717   
     13. B(N  12,C  11)                  1.3713         0.599501   
     14. B(C  13,N  12)                  1.4548         0.440992   
     15. B(C  14,C  13)                  1.5435         0.355464   
     16. B(N  15,C  14)                  1.3776         0.585634   
     17. B(C  16,N  15)                  1.4634         0.427355   
     18. B(C  17,C  16)                  1.5400         0.360129   
     19. B(C  18,C  17)                  1.5601         0.334511   
     20. B(C  19,C  18)                  1.5369         0.364278   
     21. B(N  20,C  19)                  1.3748         0.591713   
     22. B(C  21,N  20)                  1.4666         0.422286   
     23. B(C  22,C  21)                  1.5306         0.372764   
     24. B(N  23,C  22)                  1.3743         0.592787   
     25. B(C  24,N  23)                  1.4552         0.440402   
     26. B(C  24,C   7)                  1.5594         0.335343   
     27. B(C  25,C  24)                  1.5393         0.360993   
     28. B(O  26,C  22)                  1.2310         1.003511   
     29. B(C  27,C  21)                  1.5459         0.352411   
     30. B(C  28,C  27)                  1.5400         0.360124   
     31. B(C  29,C  28)                  1.5360         0.365489   
     32. B(C  30,C  28)                  1.5370         0.364027   
     33. B(O  31,C  19)                  1.2312         1.002946   
     34. B(C  32,C  18)                  1.5360         0.365423   
     35. B(C  33,C  32)                  1.5166         0.392377   
     36. B(C  34,C  33)                  1.5295         0.374234   
     37. B(C  35,C  34)                  1.5342         0.367866   
     38. B(C  36,C  35)                  1.5324         0.370315   
     39. B(C  37,C  36)                  1.5330         0.369486   
     40. B(C  38,C  37)                  1.5330         0.369503   
     41. B(C  39,C  38)                  1.5330         0.369436   
     42. B(C  40,C  39)                  1.5341         0.368016   
     43. B(C  41,C  40)                  1.5318         0.371177   
     44. B(O  42,C  32)                  1.2278         1.015551   
     45. B(O  43,C  17)                  1.4109         0.518152   
     46. B(O  44,C  14)                  1.2299         1.007656   
     47. B(C  45,C  13)                  1.5459         0.352406   
     48. B(C  46,C  45)                  1.5291         0.374801   
     49. B(O  47,C  11)                  1.2311         1.003167   
     50. B(C  48,C  10)                  1.5528         0.343585   
     51. B(C  49,C  48)                  1.5369         0.364250   
     52. B(C  50,C  48)                  1.5359         0.365578   
     53. B(H  51,C   2)                  1.1071         0.338140   
     54. B(H  52,C   3)                  1.1093         0.335412   
     55. B(H  53,C   3)                  1.1058         0.339780   
     56. B(H  54,C   4)                  1.1102         0.334340   
     57. B(H  55,C   4)                  1.1069         0.338459   
     58. B(H  56,C   5)                  1.1075         0.337643   
     59. B(H  57,C   5)                  1.1093         0.335421   
     60. B(H  58,N   9)                  1.0215         0.414781   
     61. B(H  59,C  10)                  1.1140         0.329671   
     62. B(H  60,N  12)                  1.0278         0.405359   
     63. B(H  61,C  13)                  1.1071         0.338193   
     64. B(H  62,O   8)                  1.8554         0.019381   
     65. B(H  62,N  15)                  1.0322         0.398765   
     66. B(H  63,C  16)                  1.1116         0.332583   
     67. B(H  64,C  16)                  1.1081         0.336937   
     68. B(H  65,C  17)                  1.1132         0.330661   
     69. B(H  66,C  18)                  1.1104         0.334111   
     70. B(H  67,N  20)                  1.0299         0.402149   
     71. B(H  68,C  21)                  1.1090         0.335867   
     72. B(H  69,N  23)                  1.0215         0.414843   
     73. B(H  70,C  24)                  1.1133         0.330608   
     74. B(H  71,C  25)                  1.1069         0.338402   
     75. B(H  72,C  25)                  1.1037         0.342483   
     76. B(H  73,C  25)                  1.1053         0.340469   
     77. B(H  74,C  27)                  1.1128         0.331131   
     78. B(H  75,C  27)                  1.1095         0.335223   
     79. B(H  76,C  28)                  1.1154         0.328052   
     80. B(H  77,C  29)                  1.1101         0.334514   
     81. B(H  78,C  29)                  1.1093         0.335478   
     82. B(H  79,C  29)                  1.1108         0.333587   
     83. B(H  80,C  30)                  1.1078         0.337341   
     84. B(H  81,C  30)                  1.1109         0.333527   
     85. B(H  82,C  30)                  1.1094         0.335351   
     86. B(H  83,C  33)                  1.1138         0.329964   
     87. B(H  84,C  33)                  1.1130         0.330947   
     88. B(H  85,C  34)                  1.1105         0.333931   
     89. B(H  86,C  34)                  1.1114         0.332814   
     90. B(H  87,C  35)                  1.1143         0.329299   
     91. B(H  88,C  35)                  1.1113         0.332967   
     92. B(H  89,C  36)                  1.1137         0.330131   
     93. B(H  90,C  36)                  1.1144         0.329187   
     94. B(H  91,C  37)                  1.1141         0.329556   
     95. B(H  92,C  37)                  1.1137         0.330032   
     96. B(H  93,C  38)                  1.1140         0.329674   
     97. B(H  94,C  38)                  1.1142         0.329443   
     98. B(H  95,C  39)                  1.1143         0.329328   
     99. B(H  96,C  39)                  1.1142         0.329502   
    100. B(H  97,C  40)                  1.1133         0.330509   
    101. B(H  98,C  40)                  1.1134         0.330414   
    102. B(H  99,C  41)                  1.1092         0.335569   
    103. B(H 100,C  41)                  1.1106         0.333891   
    104. B(H 101,C  41)                  1.1106         0.333823   
    105. B(H 102,O  43)                  0.9853         0.473890   
    106. B(H 103,C  45)                  1.1109         0.333503   
    107. B(H 104,C  45)                  1.1109         0.333452   
    108. B(H 105,H  69)                  3.5297         0.000009   
    109. B(H 105,C  46)                  1.1092         0.335583   
    110. B(H 106,C  46)                  1.1078         0.337256   
    111. B(H 107,C  46)                  1.1098         0.334804   
    112. B(H 108,C  48)                  1.1141         0.329630   
    113. B(H 109,C  49)                  1.1047         0.341210   
    114. B(H 110,C  49)                  1.1112         0.333091   
    115. B(H 111,C  49)                  1.1091         0.335736   
    116. B(H 112,C  50)                  1.1087         0.336230   
    117. B(H 113,C  50)                  1.1086         0.336302   
    118. B(H 114,C  50)                  1.1102         0.334296   
    119. A(O   0,C   1,N   9)          124.0215         0.466356   
    120. A(C   2,C   1,N   9)          116.1326         0.389215   
    121. A(O   0,C   1,C   2)          119.8457         0.426642   
    122. A(C   1,C   2,H  51)          104.7755         0.318555   
    123. A(N   6,C   2,H  51)          109.3306         0.322501   
    124. A(C   1,C   2,N   6)          114.7960         0.362237   
    125. A(C   1,C   2,C   3)          111.7235         0.358389   
    126. A(C   3,C   2,H  51)          112.9901         0.319212   
    127. A(C   3,C   2,N   6)          103.4607         0.363019   
    128. A(C   4,C   3,H  53)          114.3451         0.320334   
    129. A(C   4,C   3,H  52)          110.6721         0.319657   
    130. A(C   2,C   3,C   4)          102.6895         0.360179   
    131. A(C   2,C   3,H  53)          111.2136         0.319464   
    132. A(C   2,C   3,H  52)          109.7706         0.318791   
    133. A(H  52,C   3,H  53)          108.0602         0.285027   
    134. A(H  54,C   4,H  55)          107.6871         0.284712   
    135. A(C   3,C   4,H  55)          113.8649         0.320130   
    136. A(C   3,C   4,C   5)          102.8619         0.360878   
    137. A(C   3,C   4,H  54)          110.1589         0.319490   
    138. A(C   5,C   4,H  55)          111.9508         0.319855   
    139. A(C   5,C   4,H  54)          110.2891         0.319216   
    140. A(H  56,C   5,H  57)          108.1922         0.284748   
    141. A(C   4,C   5,N   6)          103.3143         0.364225   
    142. A(C   4,C   5,H  56)          112.7660         0.319729   
    143. A(N   6,C   5,H  57)          110.4712         0.322498   
    144. A(N   6,C   5,H  56)          111.2684         0.322847   
    145. A(C   4,C   5,H  57)          110.8057         0.319384   
    146. A(C   5,N   6,C   7)          130.6804         0.396580   
    147. A(C   2,N   6,C   7)          117.7230         0.396023   
    148. A(C   2,N   6,C   5)          111.3749         0.367439   
    149. A(O   8,C   7,C  24)          118.9841         0.416763   
    150. A(N   6,C   7,O   8)          118.7899         0.462438   
    151. A(N   6,C   7,C  24)          122.0508         0.386674   
    152. A(C   1,N   9,C  10)          122.6877         0.401173   
    153. A(C  10,N   9,H  58)          119.0114         0.336081   
    154. A(C   1,N   9,H  58)          117.9157         0.354566   
    155. A(C  48,C  10,H  59)          108.1275         0.315335   
    156. A(C  11,C  10,H  59)          107.4438         0.315355   
    157. A(N   9,C  10,C  11)          109.9307         0.366011   
    158. A(N   9,C  10,C  48)          113.6811         0.365987   
    159. A(N   9,C  10,H  59)          104.1538         0.326332   
    160. A(C  11,C  10,C  48)          112.9258         0.353176   
    161. A(N  12,C  11,O  47)          123.1687         0.464596   
    162. A(C  10,C  11,O  47)          122.8063         0.422909   
    163. A(C  10,C  11,N  12)          114.0227         0.386182   
    164. A(C  13,N  12,H  60)          118.4931         0.334993   
    165. A(C  11,N  12,C  13)          122.0756         0.400840   
    166. A(C  11,N  12,H  60)          119.0615         0.352698   
    167. A(C  14,C  13,C  45)          110.3050         0.356725   
    168. A(N  12,C  13,H  61)          106.3017         0.327895   
    169. A(C  14,C  13,H  61)          105.9628         0.318405   
    170. A(N  12,C  13,C  14)          112.4564         0.368346   
    171. A(C  45,C  13,H  61)          109.4099         0.317956   
    172. A(N  12,C  13,C  45)          112.1040         0.367800   
    173. A(C  13,C  14,N  15)          115.0809         0.386870   
    174. A(N  15,C  14,O  44)          123.3486         0.462989   
    175. A(C  13,C  14,O  44)          121.4084         0.425799   
    176. A(C  14,N  15,H  62)          118.1083         0.350334   
    177. A(C  16,N  15,H  62)          115.6279         0.332346   
    178. A(C  14,N  15,C  16)          122.9320         0.396995   
    179. A(H  63,C  16,H  64)          106.9488         0.284279   
    180. A(C  17,C  16,H  64)          107.5214         0.318889   
    181. A(N  15,C  16,H  63)          110.8473         0.325306   
    182. A(C  17,C  16,H  63)          107.4053         0.318213   
    183. A(N  15,C  16,C  17)          116.3740         0.367187   
    184. A(N  15,C  16,H  64)          107.3240         0.326003   
    185. A(O  43,C  17,H  65)          112.0523         0.335515   
    186. A(C  18,C  17,H  65)          104.9704         0.314121   
    187. A(C  16,C  17,H  65)          108.0656         0.317913   
    188. A(C  16,C  17,C  18)          115.2882         0.354367   
    189. A(C  18,C  17,O  43)          111.6010         0.374772   
    190. A(C  16,C  17,O  43)          104.9760         0.379585   
    191. A(C  19,C  18,H  66)          109.5291         0.319047   
    192. A(C  17,C  18,H  66)          108.2069         0.314651   
    193. A(C  17,C  18,C  32)          109.8072         0.355245   
    194. A(C  17,C  18,C  19)          113.1515         0.355056   
    195. A(C  19,C  18,C  32)          108.1108         0.360432   
    196. A(C  32,C  18,H  66)          107.9122         0.319210   
    197. A(C  18,C  19,N  20)          114.0392         0.389226   
    198. A(N  20,C  19,O  31)          123.1748         0.463467   
    199. A(C  18,C  19,O  31)          122.7860         0.427312   
    200. A(C  19,N  20,H  67)          115.3842         0.351446   
    201. A(C  19,N  20,C  21)          121.0549         0.396883   
    202. A(C  21,N  20,H  67)          118.7862         0.332154   
    203. A(C  27,C  21,H  68)          109.2225         0.317600   
    204. A(C  22,C  21,H  68)          106.1451         0.320523   
    205. A(N  20,C  21,H  68)          109.3305         0.325194   
    206. A(N  20,C  21,C  22)          109.1982         0.368610   
    207. A(C  22,C  21,C  27)          111.0164         0.359621   
    208. A(N  20,C  21,C  27)          111.7605         0.365079   
    209. A(C  21,C  22,N  23)          114.6239         0.390919   
    210. A(C  21,C  22,O  26)          123.5048         0.429124   
    211. A(N  23,C  22,O  26)          121.8503         0.463669   
    212. A(C  22,N  23,C  24)          120.4087         0.399952   
    213. A(C  24,N  23,H  69)          119.7483         0.336210   
    214. A(C  22,N  23,H  69)          119.2880         0.353408   
    215. A(C  25,C  24,H  70)          109.0183         0.318029   
    216. A(N  23,C  24,H  70)          106.1843         0.326600   
    217. A(C   7,C  24,H  70)          104.5091         0.314240   
    218. A(N  23,C  24,C  25)          110.2288         0.369239   
    219. A(C   7,C  24,N  23)          107.3984         0.364603   
    220. A(C   7,C  24,C  25)          118.7117         0.354661   
    221. A(H  71,C  25,H  73)          107.9704         0.285511   
    222. A(C  24,C  25,H  73)          110.3638         0.319557   
    223. A(H  71,C  25,H  72)          107.3082         0.285773   
    224. A(C  24,C  25,H  72)          112.9622         0.319865   
    225. A(C  24,C  25,H  71)          107.9480         0.319240   
    226. A(H  72,C  25,H  73)          110.0968         0.286045   
    227. A(C  28,C  27,H  75)          110.1851         0.318623   
    228. A(C  21,C  27,C  28)          115.1683         0.357516   
    229. A(H  74,C  27,H  75)          106.5567         0.283861   
    230. A(C  21,C  27,H  75)          106.6358         0.317500   
    231. A(C  28,C  27,H  74)          109.6675         0.317986   
    232. A(C  21,C  27,H  74)          108.2444         0.316866   
    233. A(C  29,C  28,C  30)          111.4075         0.360401   
    234. A(C  27,C  28,C  30)          112.3777         0.359494   
    235. A(C  27,C  28,C  29)          109.6604         0.359740   
    236. A(C  30,C  28,H  76)          107.6182         0.318060   
    237. A(C  29,C  28,H  76)          107.5750         0.318268   
    238. A(C  27,C  28,H  76)          108.0070         0.317502   
    239. A(C  28,C  29,H  79)          110.7394         0.319138   
    240. A(H  78,C  29,H  79)          107.6095         0.284221   
    241. A(H  77,C  29,H  79)          107.4639         0.284094   
    242. A(H  77,C  29,H  78)          107.8479         0.284344   
    243. A(C  28,C  29,H  78)          111.3246         0.319433   
    244. A(C  28,C  29,H  77)          111.6683         0.319283   
    245. A(H  81,C  30,H  82)          107.6529         0.284196   
    246. A(H  80,C  30,H  82)          107.4179         0.284699   
    247. A(C  28,C  30,H  82)          110.7651         0.319204   
    248. A(H  80,C  30,H  81)          108.3313         0.284458   
    249. A(C  28,C  30,H  81)          110.8871         0.318920   
    250. A(C  28,C  30,H  80)          111.6248         0.319512   
    251. A(C  33,C  32,O  42)          121.9018         0.434024   
    252. A(C  18,C  32,O  42)          121.2427         0.428511   
    253. A(C  18,C  32,C  33)          116.8413         0.365036   
    254. A(C  32,C  33,C  34)          114.4859         0.366528   
    255. A(C  34,C  33,H  84)          111.8448         0.319957   
    256. A(H  83,C  33,H  84)          105.4691         0.283141   
    257. A(C  32,C  33,H  84)          108.7025         0.322445   
    258. A(C  34,C  33,H  83)          111.2207         0.319802   
    259. A(C  32,C  33,H  83)          104.4935         0.322288   
    260. A(C  33,C  34,C  35)          113.5133         0.362506   
    261. A(H  85,C  34,H  86)          106.5986         0.283914   
    262. A(C  35,C  34,H  86)          109.6025         0.319355   
    263. A(C  33,C  34,H  86)          109.0019         0.320251   
    264. A(C  35,C  34,H  85)          109.3795         0.319529   
    265. A(C  33,C  34,H  85)          108.5084         0.320427   
    266. A(C  34,C  35,C  36)          113.4703         0.361855   
    267. A(H  87,C  35,H  88)          106.0722         0.283320   
    268. A(C  36,C  35,H  88)          109.2104         0.319725   
    269. A(C  34,C  35,H  88)          109.1103         0.319379   
    270. A(C  36,C  35,H  87)          109.3577         0.319147   
    271. A(C  34,C  35,H  87)          109.3539         0.318802   
    272. A(C  35,C  36,C  37)          113.6732         0.362127   
    273. A(H  89,C  36,H  90)          105.5568         0.282929   
    274. A(C  37,C  36,H  90)          109.3361         0.319013   
    275. A(C  35,C  36,H  90)          109.4887         0.319130   
    276. A(C  37,C  36,H  89)          109.3141         0.319162   
    277. A(C  35,C  36,H  89)          109.1539         0.319279   
    278. A(C  36,C  37,C  38)          113.8673         0.361991   
    279. A(H  91,C  37,H  92)          105.4666         0.282965   
    280. A(C  38,C  37,H  92)          109.3517         0.319149   
    281. A(C  36,C  37,H  92)          109.2021         0.319146   
    282. A(C  38,C  37,H  91)          109.3012         0.319074   
    283. A(C  36,C  37,H  91)          109.3125         0.319071   
    284. A(C  37,C  38,C  39)          113.8457         0.361983   
    285. A(H  93,C  38,H  94)          105.4727         0.282902   
    286. A(C  39,C  38,H  94)          109.3008         0.319046   
    287. A(C  37,C  38,H  94)          109.3079         0.319056   
    288. A(C  39,C  38,H  93)          109.2988         0.319083   
    289. A(C  37,C  38,H  93)          109.2777         0.319092   
    290. A(C  38,C  39,C  40)          113.9089         0.361734   
    291. A(H  95,C  39,H  96)          105.4401         0.282864   
    292. A(C  40,C  39,H  96)          109.2855         0.318855   
    293. A(C  38,C  39,H  96)          109.2805         0.319056   
    294. A(C  40,C  39,H  95)          109.2801         0.318828   
    295. A(C  38,C  39,H  95)          109.3011         0.319028   
    296. A(C  39,C  40,C  41)          113.5150         0.362024   
    297. A(H  97,C  40,H  98)          105.4938         0.283142   
    298. A(C  41,C  40,H  98)          109.6724         0.319445   
    299. A(C  39,C  40,H  98)          109.0948         0.318999   
    300. A(C  41,C  40,H  97)          109.6639         0.319460   
    301. A(C  39,C  40,H  97)          109.0874         0.319014   
    302. A(H 100,C  41,H 101)          107.1684         0.284043   
    303. A(H  99,C  41,H 101)          107.5258         0.284264   
    304. A(C  40,C  41,H 101)          111.2845         0.319981   
    305. A(H  99,C  41,H 100)          107.5237         0.284273   
    306. A(C  40,C  41,H 100)          111.2729         0.319991   
    307. A(C  40,C  41,H  99)          111.8349         0.320254   
    308. A(C  17,O  43,H 102)          103.6964         0.353318   
    309. A(C  13,C  45,C  46)          113.6329         0.359954   
    310. A(C  46,C  45,H 104)          110.0966         0.320431   
    311. A(C  13,C  45,H 104)          107.6845         0.317226   
    312. A(C  46,C  45,H 103)          110.6431         0.320439   
    313. A(C  13,C  45,H 103)          107.9172         0.317234   
    314. A(H 103,C  45,H 104)          106.5737         0.283942   
    315. A(H 106,C  46,H 107)          106.7995         0.284616   
    316. A(H 105,C  46,H 107)          107.8619         0.284396   
    317. A(C  45,C  46,H 107)          110.9627         0.320643   
    318. A(H 105,C  46,H 106)          108.2231         0.284719   
    319. A(C  45,C  46,H 106)          111.4056         0.321026   
    320. A(C  45,C  46,H 105)          111.3947         0.320765   
    321. A(C  50,C  48,H 108)          108.9474         0.318530   
    322. A(C  49,C  48,H 108)          108.1053         0.318341   
    323. A(C  10,C  48,H 108)          107.6365         0.315329   
    324. A(C  49,C  48,C  50)          110.5854         0.360454   
    325. A(C  10,C  48,C  50)          110.9580         0.356889   
    326. A(C  10,C  48,C  49)          110.5037         0.356668   
    327. A(H 110,C  49,H 111)          107.6418         0.284189   
    328. A(H 109,C  49,H 111)          108.7449         0.285256   
    329. A(C  48,C  49,H 111)          110.5818         0.319296   
    330. A(H 109,C  49,H 110)          108.7191         0.284905   
    331. A(C  48,C  49,H 110)          110.3172         0.318884   
    332. A(C  48,C  49,H 109)          110.7530         0.320140   
    333. A(H 113,C  50,H 114)          107.8914         0.284423   
    334. A(H 112,C  50,H 114)          107.4623         0.284414   
    335. A(C  48,C  50,H 114)          110.8530         0.319261   
    336. A(H 112,C  50,H 113)          107.6743         0.284679   
    337. A(C  48,C  50,H 113)          110.3495         0.319573   
    338. A(C  48,C  50,H 112)          112.4302         0.319562   
    339. D(H  51,C   2,C   1,N   9)   -130.5826         0.009575   
    340. D(C   3,C   2,C   1,N   9)    106.7409         0.009575   
    341. D(N   6,C   2,C   1,N   9)    -10.6517         0.009575   
    342. D(N   6,C   2,C   1,O   0)    169.5382         0.009575   
    343. D(C   3,C   2,C   1,O   0)    -73.0691         0.009575   
    344. D(H  51,C   2,C   1,O   0)     49.6074         0.009575   
    345. D(C   4,C   3,C   2,N   6)     32.0966         0.010456   
    346. D(H  53,C   3,C   2,H  51)    -87.0566         0.010456   
    347. D(H  53,C   3,C   2,C   1)     30.7997         0.010456   
    348. D(C   4,C   3,C   2,H  51)    150.2145         0.010456   
    349. D(H  53,C   3,C   2,N   6)    154.8255         0.010456   
    350. D(H  52,C   3,C   2,H  51)     32.4746         0.010456   
    351. D(C   4,C   3,C   2,C   1)    -91.9292         0.010456   
    352. D(H  52,C   3,C   2,C   1)    150.3309         0.010456   
    353. D(H  52,C   3,C   2,N   6)    -85.6433         0.010456   
    354. D(H  55,C   4,C   3,H  53)     77.4758         0.010786   
    355. D(H  55,C   4,C   3,H  52)    -44.8280         0.010786   
    356. D(H  54,C   4,C   3,H  52)   -165.9136         0.010786   
    357. D(H  55,C   4,C   3,C   2)   -161.9279         0.010786   
    358. D(H  54,C   4,C   3,H  53)    -43.6098         0.010786   
    359. D(C   5,C   4,C   3,C   2)    -40.5759         0.010786   
    360. D(H  54,C   4,C   3,C   2)     76.9865         0.010786   
    361. D(C   5,C   4,C   3,H  53)   -161.1722         0.010786   
    362. D(C   5,C   4,C   3,H  52)     76.5239         0.010786   
    363. D(N   6,C   5,C   4,C   3)     33.1890         0.010680   
    364. D(H  57,C   5,C   4,C   3)    -85.1306         0.010680   
    365. D(H  56,C   5,C   4,H  55)    -83.9282         0.010680   
    366. D(H  56,C   5,C   4,C   3)    153.4253         0.010680   
    367. D(H  57,C   5,C   4,H  54)    157.3990         0.010680   
    368. D(H  56,C   5,C   4,H  54)     35.9549         0.010680   
    369. D(H  57,C   5,C   4,H  55)     37.5159         0.010680   
    370. D(N   6,C   5,C   4,H  54)    -84.2814         0.010680   
    371. D(N   6,C   5,C   4,H  55)    155.8356         0.010680   
    372. D(C   5,N   6,C   2,C   3)    -11.7360         0.013576   
    373. D(C   7,N   6,C   5,H  57)    -69.2535         0.013791   
    374. D(C   7,N   6,C   5,H  56)     50.9398         0.013791   
    375. D(C   7,N   6,C   5,C   4)    172.1942         0.013791   
    376. D(C   2,N   6,C   5,H  57)    105.1027         0.013791   
    377. D(C   2,N   6,C   5,H  56)   -134.7039         0.013791   
    378. D(C   7,N   6,C   2,H  51)     42.7964         0.013576   
    379. D(C   2,N   6,C   5,C   4)    -13.4496         0.013791   
    380. D(C   7,N   6,C   2,C   3)    163.4310         0.013576   
    381. D(C   5,N   6,C   2,C   1)    110.2566         0.013576   
    382. D(C   7,N   6,C   2,C   1)    -74.5763         0.013576   
    383. D(C   5,N   6,C   2,H  51)   -132.3707         0.013576   
    384. D(C  24,C   7,N   6,C   5)     -1.5031         0.031016   
    385. D(C  24,C   7,N   6,C   2)   -175.5649         0.031016   
    386. D(O   8,C   7,N   6,C   5)   -176.6415         0.031016   
    387. D(O   8,C   7,N   6,C   2)      9.2966         0.031016   
    388. D(H  58,N   9,C   1,O   0)    178.9969         0.029470   
    389. D(C  10,N   9,C   1,C   2)    171.9932         0.029470   
    390. D(H  58,N   9,C   1,C   2)     -0.8042         0.029470   
    391. D(C  10,N   9,C   1,O   0)     -8.2056         0.029470   
    392. D(H  59,C  10,N   9,C   1)     -1.6868         0.016468   
    393. D(C  48,C  10,N   9,H  58)    -71.5147         0.016468   
    394. D(C  48,C  10,N   9,C   1)    115.7633         0.016468   
    395. D(C  11,C  10,N   9,C   1)   -116.5399         0.016468   
    396. D(H  59,C  10,N   9,H  58)    171.0352         0.016468   
    397. D(C  11,C  10,N   9,H  58)     56.1821         0.016468   
    398. D(O  47,C  11,C  10,N   9)   -153.2632         0.008957   
    399. D(N  12,C  11,C  10,H  59)    -85.4660         0.008957   
    400. D(N  12,C  11,C  10,C  48)    155.3904         0.008957   
    401. D(N  12,C  11,C  10,N   9)     27.2758         0.008957   
    402. D(O  47,C  11,C  10,H  59)     93.9949         0.008957   
    403. D(O  47,C  11,C  10,C  48)    -25.1486         0.008957   
    404. D(H  60,N  12,C  11,O  47)    174.8870         0.028956   
    405. D(H  60,N  12,C  11,C  10)     -5.6543         0.028956   
    406. D(C  13,N  12,C  11,O  47)      1.9767         0.028956   
    407. D(C  13,N  12,C  11,C  10)   -178.5646         0.028956   
    408. D(H  61,C  13,N  12,C  11)    -15.8446         0.016583   
    409. D(H  61,C  13,N  12,H  60)    171.2063         0.016583   
    410. D(C  45,C  13,N  12,H  60)    -69.2894         0.016583   
    411. D(C  45,C  13,N  12,C  11)    103.6596         0.016583   
    412. D(C  14,C  13,N  12,C  11)   -131.3706         0.016583   
    413. D(C  14,C  13,N  12,H  60)     55.6803         0.016583   
    414. D(O  44,C  14,C  13,C  45)   -104.0197         0.009521   
    415. D(O  44,C  14,C  13,N  12)    130.0306         0.009521   
    416. D(N  15,C  14,C  13,H  61)   -170.1792         0.009521   
    417. D(N  15,C  14,C  13,C  45)     71.5009         0.009521   
    418. D(O  44,C  14,C  13,H  61)     14.3002         0.009521   
    419. D(N  15,C  14,C  13,N  12)    -54.4489         0.009521   
    420. D(H  62,N  15,C  14,O  44)   -171.3179         0.027543   
    421. D(H  62,N  15,C  14,C  13)     13.2589         0.027543   
    422. D(C  16,N  15,C  14,O  44)    -12.8510         0.027543   
    423. D(C  16,N  15,C  14,C  13)    171.7258         0.027543   
    424. D(H  64,C  16,N  15,H  62)    -26.2634         0.015571   
    425. D(H  64,C  16,N  15,C  14)    174.7800         0.015571   
    426. D(H  63,C  16,N  15,H  62)     90.1949         0.015571   
    427. D(H  63,C  16,N  15,C  14)    -68.7618         0.015571   
    428. D(C  17,C  16,N  15,C  14)     54.3375         0.015571   
    429. D(C  17,C  16,N  15,H  62)   -146.7059         0.015571   
    430. D(H  65,C  17,C  16,H  64)    162.5509         0.010405   
    431. D(H  65,C  17,C  16,H  63)     47.7581         0.010405   
    432. D(H  65,C  17,C  16,N  15)    -77.1123         0.010405   
    433. D(O  43,C  17,C  16,H  64)     42.8112         0.010405   
    434. D(O  43,C  17,C  16,H  63)    -71.9817         0.010405   
    435. D(O  43,C  17,C  16,N  15)    163.1480         0.010405   
    436. D(C  18,C  17,C  16,H  64)    -80.4087         0.010405   
    437. D(C  18,C  17,C  16,H  63)    164.7984         0.010405   
    438. D(C  18,C  17,C  16,N  15)     39.9281         0.010405   
    439. D(H  66,C  18,C  17,H  65)     58.6784         0.009088   
    440. D(H  66,C  18,C  17,O  43)   -179.7292         0.009088   
    441. D(H  66,C  18,C  17,C  16)    -60.0954         0.009088   
    442. D(C  32,C  18,C  17,O  43)     62.7163         0.009088   
    443. D(C  32,C  18,C  17,C  16)   -177.6499         0.009088   
    444. D(C  32,C  18,C  17,H  65)    -58.8761         0.009088   
    445. D(C  19,C  18,C  17,H  65)   -179.7631         0.009088   
    446. D(C  19,C  18,C  17,O  43)    -58.1707         0.009088   
    447. D(C  19,C  18,C  17,C  16)     61.4632         0.009088   
    448. D(O  31,C  19,C  18,H  66)   -138.6827         0.009960   
    449. D(O  31,C  19,C  18,C  32)    -21.3377         0.009960   
    450. D(O  31,C  19,C  18,C  17)    100.5053         0.009960   
    451. D(N  20,C  19,C  18,H  66)     41.3460         0.009960   
    452. D(N  20,C  19,C  18,C  17)    -79.4659         0.009960   
    453. D(N  20,C  19,C  18,C  32)    158.6911         0.009960   
    454. D(H  67,N  20,C  19,O  31)   -167.9328         0.028157   
    455. D(H  67,N  20,C  19,C  18)     12.0383         0.028157   
    456. D(C  21,N  20,C  19,O  31)    -12.7158         0.028157   
    457. D(C  21,N  20,C  19,C  18)    167.2553         0.028157   
    458. D(H  68,C  21,N  20,H  67)    105.6708         0.015205   
    459. D(H  68,C  21,N  20,C  19)    -48.7276         0.015205   
    460. D(C  27,C  21,N  20,H  67)   -133.2846         0.015205   
    461. D(C  27,C  21,N  20,C  19)     72.3170         0.015205   
    462. D(C  22,C  21,N  20,H  67)    -10.0625         0.015205   
    463. D(C  22,C  21,N  20,C  19)   -164.4609         0.015205   
    464. D(N  23,C  22,C  21,C  27)     71.0246         0.010395   
    465. D(N  23,C  22,C  21,N  20)    -52.6387         0.010395   
    466. D(O  26,C  22,C  21,H  68)     11.2478         0.010395   
    467. D(O  26,C  22,C  21,C  27)   -107.3332         0.010395   
    468. D(O  26,C  22,C  21,N  20)    129.0035         0.010395   
    469. D(N  23,C  22,C  21,H  68)   -170.3944         0.010395   
    470. D(H  69,N  23,C  22,O  26)   -176.5535         0.028267   
    471. D(H  69,N  23,C  22,C  21)      5.0585         0.028267   
    472. D(C  24,N  23,C  22,O  26)     -5.1176         0.028267   
    473. D(C  24,N  23,C  22,C  21)    176.4944         0.028267   
    474. D(H  70,C  24,N  23,H  69)      1.2596         0.016539   
    475. D(H  70,C  24,N  23,C  22)   -170.1370         0.016539   
    476. D(C  25,C  24,N  23,H  69)   -116.6820         0.016539   
    477. D(C  25,C  24,N  23,C  22)     71.9214         0.016539   
    478. D(C   7,C  24,N  23,H  69)    112.6255         0.016539   
    479. D(C   7,C  24,N  23,C  22)    -58.7711         0.016539   
    480. D(H  70,C  24,C   7,O   8)     86.4411         0.008570   
    481. D(H  70,C  24,C   7,N   6)    -88.6882         0.008570   
    482. D(C  25,C  24,C   7,O   8)   -151.8540         0.008570   
    483. D(C  25,C  24,C   7,N   6)     33.0167         0.008570   
    484. D(N  23,C  24,C   7,O   8)    -26.0664         0.008570   
    485. D(N  23,C  24,C   7,N   6)    158.8042         0.008570   
    486. D(H  73,C  25,C  24,H  70)    170.3476         0.010451   
    487. D(H  73,C  25,C  24,N  23)    -73.4708         0.010451   
    488. D(H  73,C  25,C  24,C   7)     50.9446         0.010451   
    489. D(H  72,C  25,C  24,H  70)     46.6147         0.010451   
    490. D(H  72,C  25,C  24,N  23)    162.7964         0.010451   
    491. D(H  72,C  25,C  24,C   7)    -72.7883         0.010451   
    492. D(H  71,C  25,C  24,H  70)    -71.8673         0.010451   
    493. D(H  71,C  25,C  24,N  23)     44.3143         0.010451   
    494. D(H  71,C  25,C  24,C   7)    168.7296         0.010451   
    495. D(H  75,C  27,C  21,H  68)     56.8633         0.009995   
    496. D(H  75,C  27,C  21,C  22)    173.5707         0.009995   
    497. D(H  75,C  27,C  21,N  20)    -64.2440         0.009995   
    498. D(H  74,C  27,C  21,H  68)    171.1717         0.009995   
    499. D(H  74,C  27,C  21,C  22)    -72.1208         0.009995   
    500. D(H  74,C  27,C  21,N  20)     50.0645         0.009995   
    501. D(C  28,C  27,C  21,H  68)    -65.7050         0.009995   
    502. D(C  28,C  27,C  21,C  22)     51.0024         0.009995   
    503. D(C  28,C  27,C  21,N  20)    173.1878         0.009995   
    504. D(H  76,C  28,C  27,H  75)    175.9061         0.010404   
    505. D(H  76,C  28,C  27,H  74)     58.9173         0.010404   
    506. D(H  76,C  28,C  27,C  21)    -63.4458         0.010404   
    507. D(C  30,C  28,C  27,H  75)    -65.5384         0.010404   
    508. D(C  30,C  28,C  27,H  74)    177.4728         0.010404   
    509. D(C  30,C  28,C  27,C  21)     55.1097         0.010404   
    510. D(C  29,C  28,C  27,H  75)     58.9510         0.010404   
    511. D(C  29,C  28,C  27,H  74)    -58.0378         0.010404   
    512. D(C  29,C  28,C  27,C  21)    179.5990         0.010404   
    513. D(H  79,C  29,C  28,C  30)     61.5959         0.010695   
    514. D(H  79,C  29,C  28,C  27)    -63.4550         0.010695   
    515. D(H  78,C  29,C  28,H  76)     59.6436         0.010695   
    516. D(H  78,C  29,C  28,C  30)    -58.0793         0.010695   
    517. D(H  78,C  29,C  28,C  27)    176.8698         0.010695   
    518. D(H  77,C  29,C  28,H  76)    -60.9626         0.010695   
    519. D(H  77,C  29,C  28,C  30)   -178.6854         0.010695   
    520. D(H  79,C  29,C  28,H  76)    179.3188         0.010695   
    521. D(H  77,C  29,C  28,C  27)     56.2637         0.010695   
    522. D(H  82,C  30,C  28,H  76)    -66.0563         0.010615   
    523. D(H  82,C  30,C  28,C  29)     51.6405         0.010615   
    524. D(H  82,C  30,C  28,C  27)    175.1597         0.010615   
    525. D(H  81,C  30,C  28,H  76)    174.4833         0.010615   
    526. D(H  81,C  30,C  28,C  29)    -67.8199         0.010615   
    527. D(H  81,C  30,C  28,C  27)     55.6993         0.010615   
    528. D(H  80,C  30,C  28,H  76)     53.5927         0.010615   
    529. D(H  80,C  30,C  28,C  29)    171.2895         0.010615   
    530. D(H  80,C  30,C  28,C  27)    -65.1913         0.010615   
    531. D(O  42,C  32,C  18,H  66)   -134.9027         0.010018   
    532. D(O  42,C  32,C  18,C  19)    106.7158         0.010018   
    533. D(O  42,C  32,C  18,C  17)    -17.1648         0.010018   
    534. D(C  33,C  32,C  18,H  66)     46.4424         0.010018   
    535. D(C  33,C  32,C  18,C  19)    -71.9391         0.010018   
    536. D(C  33,C  32,C  18,C  17)    164.1804         0.010018   
    537. D(H  84,C  33,C  32,O  42)    136.4754         0.011447   
    538. D(H  84,C  33,C  32,C  18)    -44.8793         0.011447   
    539. D(H  83,C  33,C  32,O  42)   -111.2930         0.011447   
    540. D(H  83,C  33,C  32,C  18)     67.3524         0.011447   
    541. D(C  34,C  33,C  32,O  42)     10.6133         0.011447   
    542. D(C  34,C  33,C  32,C  18)   -170.7413         0.011447   
    543. D(H  86,C  34,C  33,H  84)     70.1808         0.011181   
    544. D(H  86,C  34,C  33,H  83)    -47.4590         0.011181   
    545. D(H  86,C  34,C  33,C  32)   -165.6131         0.011181   
    546. D(H  85,C  34,C  33,H  84)   -174.1048         0.011181   
    547. D(H  85,C  34,C  33,H  83)     68.2554         0.011181   
    548. D(H  85,C  34,C  33,C  32)    -49.8986         0.011181   
    549. D(C  35,C  34,C  33,H  84)    -52.2844         0.011181   
    550. D(C  35,C  34,C  33,H  83)   -169.9241         0.011181   
    551. D(C  35,C  34,C  33,C  32)     71.9218         0.011181   
    552. D(H  88,C  35,C  34,H  86)   -179.6472         0.010826   
    553. D(H  88,C  35,C  34,H  85)     63.8192         0.010826   
    554. D(H  88,C  35,C  34,C  33)    -57.5148         0.010826   
    555. D(H  87,C  35,C  34,H  86)    -64.0369         0.010826   
    556. D(H  87,C  35,C  34,H  85)    179.4295         0.010826   
    557. D(H  87,C  35,C  34,C  33)     58.0955         0.010826   
    558. D(C  36,C  35,C  34,H  86)     58.3421         0.010826   
    559. D(C  36,C  35,C  34,H  85)    -58.1915         0.010826   
    560. D(C  36,C  35,C  34,C  33)   -179.5255         0.010826   
    561. D(H  90,C  36,C  35,H  87)     65.0146         0.010961   
    562. D(H  90,C  36,C  35,C  34)    -57.3624         0.010961   
    563. D(H  89,C  36,C  35,H  88)    -64.2245         0.010961   
    564. D(H  89,C  36,C  35,H  87)   -179.8926         0.010961   
    565. D(H  89,C  36,C  35,C  34)     57.7305         0.010961   
    566. D(C  37,C  36,C  35,H  88)     58.0905         0.010961   
    567. D(C  37,C  36,C  35,H  87)    -57.5775         0.010961   
    568. D(H  90,C  36,C  35,H  88)   -179.3174         0.010961   
    569. D(C  37,C  36,C  35,C  34)   -179.9544         0.010961   
    570. D(H  92,C  37,C  36,H  90)   -179.9553         0.010915   
    571. D(H  92,C  37,C  36,H  89)     64.9473         0.010915   
    572. D(H  92,C  37,C  36,C  35)    -57.2793         0.010915   
    573. D(H  91,C  37,C  36,H  90)    -65.0402         0.010915   
    574. D(H  91,C  37,C  36,H  89)    179.8624         0.010915   
    575. D(H  91,C  37,C  36,C  35)     57.6358         0.010915   
    576. D(C  38,C  37,C  36,H  90)     57.5108         0.010915   
    577. D(C  38,C  37,C  36,H  89)    -57.5866         0.010915   
    578. D(C  38,C  37,C  36,C  35)   -179.8132         0.010915   
    579. D(H  94,C  38,C  37,H  92)   -179.9756         0.010916   
    580. D(H  94,C  38,C  37,H  91)     65.0333         0.010916   
    581. D(H  94,C  38,C  37,C  36)    -57.5239         0.010916   
    582. D(H  93,C  38,C  37,H  92)    -65.0142         0.010916   
    583. D(H  93,C  38,C  37,H  91)    179.9947         0.010916   
    584. D(H  93,C  38,C  37,C  36)     57.4376         0.010916   
    585. D(C  39,C  38,C  37,H  92)     57.4925         0.010916   
    586. D(C  39,C  38,C  37,H  91)    -57.4985         0.010916   
    587. D(C  39,C  38,C  37,C  36)    179.9443         0.010916   
    588. D(H  95,C  39,C  38,H  94)    -65.1244         0.010913   
    589. D(H  95,C  39,C  38,H  93)    179.9065         0.010913   
    590. D(H  95,C  39,C  38,C  37)     57.4114         0.010913   
    591. D(C  40,C  39,C  38,H  94)     57.4197         0.010913   
    592. D(C  40,C  39,C  38,H  93)    -57.5494         0.010913   
    593. D(C  40,C  39,C  38,C  37)    179.9554         0.010913   
    594. D(H  96,C  39,C  38,H  94)    179.9553         0.010913   
    595. D(H  96,C  39,C  38,H  93)     64.9862         0.010913   
    596. D(H  96,C  39,C  38,C  37)    -57.5089         0.010913   
    597. D(H  98,C  40,C  39,H  95)     65.1584         0.010834   
    598. D(H  98,C  40,C  39,C  38)    -57.3971         0.010834   
    599. D(H  97,C  40,C  39,H  96)    -65.1634         0.010834   
    600. D(H  97,C  40,C  39,H  95)    179.9251         0.010834   
    601. D(H  97,C  40,C  39,C  38)     57.3695         0.010834   
    602. D(C  41,C  40,C  39,H  96)     57.4450         0.010834   
    603. D(C  41,C  40,C  39,H  95)    -57.4665         0.010834   
    604. D(H  98,C  40,C  39,H  96)   -179.9301         0.010834   
    605. D(C  41,C  40,C  39,C  38)    179.9780         0.010834   
    606. D(H 101,C  41,C  40,H  98)    -62.5817         0.011009   
    607. D(H 101,C  41,C  40,H  97)   -177.9867         0.011009   
    608. D(H 101,C  41,C  40,C  39)     59.7237         0.011009   
    609. D(H 100,C  41,C  40,H  98)    177.9706         0.011009   
    610. D(H 100,C  41,C  40,H  97)     62.5656         0.011009   
    611. D(H 100,C  41,C  40,C  39)    -59.7239         0.011009   
    612. D(H  99,C  41,C  40,H  98)     57.6998         0.011009   
    613. D(H  99,C  41,C  40,H  97)    -57.7052         0.011009   
    614. D(H  99,C  41,C  40,C  39)   -179.9947         0.011009   
    615. D(H 102,O  43,C  17,H  65)     58.5334         0.021280   
    616. D(H 102,O  43,C  17,C  18)    -58.8637         0.021280   
    617. D(H 102,O  43,C  17,C  16)    175.5795         0.021280   
    618. D(H 104,C  45,C  13,H  61)   -177.5889         0.009995   
    619. D(H 104,C  45,C  13,C  14)    -61.4033         0.009995   
    620. D(H 104,C  45,C  13,N  12)     64.7448         0.009995   
    621. D(H 103,C  45,C  13,H  61)    -62.8964         0.009995   
    622. D(H 103,C  45,C  13,C  14)     53.2891         0.009995   
    623. D(H 103,C  45,C  13,N  12)    179.4373         0.009995   
    624. D(C  46,C  45,C  13,H  61)     60.1906         0.009995   
    625. D(C  46,C  45,C  13,C  14)    176.3761         0.009995   
    626. D(C  46,C  45,C  13,N  12)    -57.4757         0.009995   
    627. D(H 107,C  46,C  45,H 104)    -60.0861         0.011213   
    628. D(H 107,C  46,C  45,H 103)   -177.6297         0.011213   
    629. D(H 107,C  46,C  45,C  13)     60.7899         0.011213   
    630. D(H 106,C  46,C  45,H 104)   -178.9431         0.011213   
    631. D(H 106,C  46,C  45,H 103)     63.5134         0.011213   
    632. D(H 106,C  46,C  45,C  13)    -58.0671         0.011213   
    633. D(H 105,C  46,C  45,H 104)     60.1042         0.011213   
    634. D(H 105,C  46,C  45,H 103)    -57.4393         0.011213   
    635. D(H 105,C  46,C  45,C  13)   -179.0198         0.011213   
    636. D(H 108,C  48,C  10,H  59)   -164.0990         0.009541   
    637. D(H 108,C  48,C  10,C  11)    -45.3520         0.009541   
    638. D(H 108,C  48,C  10,N   9)     80.7798         0.009541   
    639. D(C  50,C  48,C  10,H  59)     76.7822         0.009541   
    640. D(C  50,C  48,C  10,C  11)   -164.4709         0.009541   
    641. D(C  50,C  48,C  10,N   9)    -38.3391         0.009541   
    642. D(C  49,C  48,C  10,H  59)    -46.2569         0.009541   
    643. D(C  49,C  48,C  10,C  11)     72.4900         0.009541   
    644. D(C  49,C  48,C  10,N   9)   -161.3782         0.009541   
    645. D(H 111,C  49,C  48,C  50)     58.9015         0.010627   
    646. D(H 111,C  49,C  48,C  10)   -177.8430         0.010627   
    647. D(H 110,C  49,C  48,H 108)   -179.2515         0.010627   
    648. D(H 110,C  49,C  48,C  50)    -60.0611         0.010627   
    649. D(H 110,C  49,C  48,C  10)     63.1944         0.010627   
    650. D(H 109,C  49,C  48,H 108)     60.3333         0.010627   
    651. D(H 109,C  49,C  48,C  50)    179.5237         0.010627   
    652. D(H 111,C  49,C  48,H 108)    -60.2888         0.010627   
    653. D(H 109,C  49,C  48,C  10)    -57.2208         0.010627   
    654. D(H 114,C  50,C  48,H 108)   -175.4322         0.010700   
    655. D(H 114,C  50,C  48,C  49)     65.8879         0.010700   
    656. D(H 114,C  50,C  48,C  10)    -57.1041         0.010700   
    657. D(H 113,C  50,C  48,H 108)     65.1014         0.010700   
    658. D(H 113,C  50,C  48,C  49)    -53.5785         0.010700   
    659. D(H 113,C  50,C  48,C  10)   -176.5705         0.010700   
    660. D(H 112,C  50,C  48,H 108)    -55.1251         0.010700   
    661. D(H 112,C  50,C  48,C  49)   -173.8050         0.010700   
    662. D(H 112,C  50,C  48,C  10)     63.2030         0.010700   
    -----------------------------------------------------------------

Number of atoms                         .... 115
Number of degrees of freedom            .... 662

         *************************************************************
         *                GEOMETRY OPTIMIZATION CYCLE   1            *
         *************************************************************
---------------------------------
CARTESIAN COORDINATES (ANGSTROEM)
---------------------------------
  O      6.506732   -1.965868    0.291028
  C      5.932534   -1.448522    1.244939
  C      6.169556    0.041287    1.567744
  C      7.562667    0.277291    2.178365
  C      7.292535    0.171424    3.685421
  C      5.954322    0.908537    3.845566
  N      5.248384    0.612476    2.578825
  C      3.967659    0.873377    2.193838
  O      3.579912    0.464593    1.081674
  N      5.071930   -2.115763    2.074613
  C      4.613602   -3.471236    1.806400
  C      3.076722   -3.476321    1.585553
  N      2.577913   -2.292923    1.104840
  C      1.156988   -2.094646    0.863569
  C      0.873933   -1.490947   -0.528517
  N      1.542315   -0.318086   -0.803290
  C      1.540826    0.307255   -2.126336
  C      0.160463    0.592406   -2.746673
  C     -0.921184    1.117681   -1.752727
  C     -0.543823    2.457821   -1.101909
  N      0.345319    2.343515   -0.059574
  C      1.021922    3.522777    0.490491
  C      2.208257    3.069572    1.344846
  N      1.897657    2.141463    2.309670
  C      2.943274    1.567175    3.143033
  C      3.457562    2.613457    4.148182
  O      3.349071    3.513038    1.213373
  C      0.055046    4.408236    1.309544
  C      0.715976    5.579821    2.059279
  C     -0.354854    6.377230    2.818635
  C      1.532888    6.486252    1.124638
  O     -0.999345    3.536031   -1.483674
  C     -2.257133    1.303209   -2.487664
  C     -3.497697    1.447870   -1.627286
  C     -4.815404    1.405922   -2.402733
  C     -5.169834    0.010311   -2.932257
  C     -6.484376   -0.028318   -3.718826
  C     -6.843616   -1.421053   -4.249214
  C     -8.155749   -1.463915   -5.040737
  C     -8.513833   -2.856635   -5.572050
  C     -9.827244   -2.901397   -6.363474
  C    -10.175977   -4.296723   -6.890461
  O     -2.307675    1.356519   -3.713235
  O      0.409853    1.519594   -3.780547
  O      0.043561   -1.989474   -1.286538
  C      0.494081   -1.236484    1.965320
  C      0.652832   -1.815256    3.371731
  O      2.373409   -4.460805    1.813100
  C      5.075736   -4.507145    2.866800
  C      4.969767   -5.934478    2.306895
  C      6.509967   -4.214626    3.331960
  H      6.025713    0.565527    0.603268
  H      7.920459    1.293802    1.915098
  H      8.297112   -0.454795    1.794362
  H      7.183365   -0.893211    3.980695
  H      8.087320    0.615249    4.315103
  H      5.373563    0.557214    4.720728
  H      6.116452    2.000653    3.953277
  H      4.657094   -1.596973    2.850672
  H      5.091478   -3.733124    0.834742
  H      3.208183   -1.486385    1.012250
  H      0.699261   -3.102656    0.857087
  H      2.317990   -0.042937   -0.180286
  H      2.112321   -0.307546   -2.855139
  H      2.071645    1.275568   -2.034223
  H     -0.248172   -0.367311   -3.135531
  H     -1.069118    0.350499   -0.963731
  H      0.796690    1.422781    0.036774
  H      1.450203    4.120725   -0.339470
  H      0.950765    1.760445    2.350117
  H      2.469293    0.729280    3.702158
  H      2.580083    3.133085    4.578629
  H      4.018032    2.165687    4.986888
  H      4.081503    3.366860    3.633710
  H     -0.484964    3.757587    2.033031
  H     -0.706118    4.789672    0.598140
  H      1.417521    5.153924    2.814595
  H     -0.932039    5.730919    3.512449
  H      0.098542    7.195784    3.414372
  H     -1.078063    6.836846    2.111784
  H      2.401744    5.951030    0.693611
  H      0.904773    6.862509    0.289217
  H      1.924525    7.366831    1.674121
  H     -3.365493    2.425148   -1.109618
  H     -3.465831    0.679208   -0.823003
  H     -4.746539    2.116338   -3.253533
  H     -5.633293    1.774611   -1.746649
  H     -5.228639   -0.704353   -2.079291
  H     -4.344341   -0.352911   -3.581620
  H     -6.421204    0.685468   -4.571318
  H     -7.313619    0.346825   -3.075722
  H     -6.904354   -2.135653   -3.396608
  H     -6.013214   -1.794102   -4.890831
  H     -8.094629   -0.749191   -5.893085
  H     -8.985888   -1.090160   -4.398347
  H     -8.573311   -3.571934   -4.719694
  H     -7.683885   -3.229699   -6.215002
  H     -9.764867   -2.184777   -7.213235
  H    -10.654019   -2.526844   -5.718605
  H    -11.129214   -4.297162   -7.457626
  H     -9.383968   -4.681353   -7.567326
  H    -10.280548   -5.026787   -6.060063
  H     -0.469730    1.632461   -4.209868
  H     -0.580484   -1.120993    1.708336
  H      0.942235   -0.221082    1.917575
  H      0.149539   -1.180710    4.129596
  H      0.229357   -2.836769    3.438754
  H      1.724274   -1.893275    3.650374
  H      4.388597   -4.425856    3.739941
  H      3.937207   -6.150777    1.979289
  H      5.652868   -6.060394    1.439522
  H      5.262711   -6.677786    3.076125
  H      6.597677   -3.233934    3.841565
  H      6.851645   -4.994578    4.041855
  H      7.210798   -4.206508    2.470912

----------------------------
CARTESIAN COORDINATES (A.U.)
----------------------------
  NO LB      ZA    FRAG     MASS         X           Y           Z
   0 O     8.0000    0    15.999   12.295941   -3.714953    0.549964
   1 C     6.0000    0    12.011   11.210865   -2.737309    2.352593
   2 C     6.0000    0    12.011   11.658771    0.078021    2.962606
   3 C     6.0000    0    12.011   14.291370    0.524005    4.116514
   4 C     6.0000    0    12.011   13.780894    0.323945    6.964436
   5 C     6.0000    0    12.011   11.252038    1.716887    7.267067
   6 N     7.0000    0    14.007    9.918008    1.157413    4.873274
   7 C     6.0000    0    12.011    7.497789    1.650443    4.145752
   8 O     8.0000    0    15.999    6.765053    0.877953    2.044067
   9 N     7.0000    0    14.007    9.584558   -3.998213    3.920451
  10 C     6.0000    0    12.011    8.718444   -6.559686    3.413600
  11 C     6.0000    0    12.011    5.814161   -6.569294    2.996262
  12 N     7.0000    0    14.007    4.871550   -4.332996    2.087844
  13 C     6.0000    0    12.011    2.186390   -3.958308    1.631909
  14 C     6.0000    0    12.011    1.651494   -2.817482   -0.998752
  15 N     7.0000    0    14.007    2.914553   -0.601096   -1.517997
  16 C     6.0000    0    12.011    2.911740    0.580628   -4.018193
  17 C     6.0000    0    12.011    0.303231    1.119486   -5.190460
  18 C     6.0000    0    12.011   -1.740785    2.112112   -3.312174
  19 C     6.0000    0    12.011   -1.027677    4.644608   -2.082306
  20 N     7.0000    0    14.007    0.652558    4.428601   -0.112578
  21 C     6.0000    0    12.011    1.931152    6.657085    0.926893
  22 C     6.0000    0    12.011    4.173002    5.800651    2.541391
  23 N     7.0000    0    14.007    3.586053    4.046779    4.364644
  24 C     6.0000    0    12.011    5.561981    2.961532    5.939472
  25 C     6.0000    0    12.011    6.533845    4.938719    7.838928
  26 O     8.0000    0    15.999    6.328827    6.638680    2.292942
  27 C     6.0000    0    12.011    0.104023    8.330358    2.474679
  28 C     6.0000    0    12.011    1.352999   10.544333    3.891472
  29 C     6.0000    0    12.011   -0.670577   12.051219    5.326448
  30 C     6.0000    0    12.011    2.896738   12.257241    2.125258
  31 O     8.0000    0    15.999   -1.888488    6.682130   -2.803737
  32 C     6.0000    0    12.011   -4.265363    2.462707   -4.701004
  33 C     6.0000    0    12.011   -6.609689    2.736078   -3.075124
  34 C     6.0000    0    12.011   -9.099794    2.656807   -4.540508
  35 C     6.0000    0    12.011   -9.769570    0.019485   -5.541162
  36 C     6.0000    0    12.011  -12.253694   -0.053514   -7.027563
  37 C     6.0000    0    12.011  -12.932560   -2.685401   -8.029851
  38 C     6.0000    0    12.011  -15.412132   -2.766398   -9.525612
  39 C     6.0000    0    12.011  -16.088813   -5.398258  -10.529648
  40 C     6.0000    0    12.011  -18.570800   -5.482846  -12.025222
  41 C     6.0000    0    12.011  -19.229810   -8.119630  -13.021084
  42 O     8.0000    0    15.999   -4.360874    2.563450   -7.016998
  43 O     8.0000    0    15.999    0.774511    2.871617   -7.144199
  44 O     8.0000    0    15.999    0.082318   -3.759562   -2.431204
  45 C     6.0000    0    12.011    0.933677   -2.336617    3.713917
  46 C     6.0000    0    12.011    1.233674   -3.430337    6.371648
  47 O     8.0000    0    15.999    4.485094   -8.429699    3.426262
  48 C     6.0000    0    12.011    9.591751   -8.517270    5.417467
  49 C     6.0000    0    12.011    9.391499  -11.214538    4.359400
  50 C     6.0000    0    12.011   12.302054   -7.964489    6.296491
  51 H     1.0000    0     1.008   11.386947    1.068691    1.140011
  52 H     1.0000    0     1.008   14.967499    2.444932    3.619011
  53 H     1.0000    0     1.008   15.679269   -0.859438    3.390854
  54 H     1.0000    0     1.008   13.574593   -1.687924    7.522423
  55 H     1.0000    0     1.008   15.282820    1.162652    8.154364
  56 H     1.0000    0     1.008   10.154562    1.052981    8.920884
  57 H     1.0000    0     1.008   11.558419    3.780686    7.470611
  58 H     1.0000    0     1.008    8.800633   -3.017843    5.386989
  59 H     1.0000    0     1.008    9.621500   -7.054582    1.577434
  60 H     1.0000    0     1.008    6.062587   -2.808860    1.912876
  61 H     1.0000    0     1.008    1.321411   -5.863169    1.619659
  62 H     1.0000    0     1.008    4.380367   -0.081139   -0.340690
  63 H     1.0000    0     1.008    3.991709   -0.581179   -5.395431
  64 H     1.0000    0     1.008    3.914841    2.410474   -3.844125
  65 H     1.0000    0     1.008   -0.468976   -0.694117   -5.925295
  66 H     1.0000    0     1.008   -2.020340    0.662347   -1.821187
  67 H     1.0000    0     1.008    1.505526    2.688666    0.069493
  68 H     1.0000    0     1.008    2.740486    7.787042   -0.641505
  69 H     1.0000    0     1.008    1.796686    3.326759    4.441078
  70 H     1.0000    0     1.008    4.666287    1.378139    6.996065
  71 H     1.0000    0     1.008    4.875651    5.920673    8.652356
  72 H     1.0000    0     1.008    7.592981    4.092556    9.423852
  73 H     1.0000    0     1.008    7.712922    6.362443    6.866717
  74 H     1.0000    0     1.008   -0.916448    7.100809    3.841872
  75 H     1.0000    0     1.008   -1.334371    9.051167    1.130321
  76 H     1.0000    0     1.008    2.678727    9.739504    5.318814
  77 H     1.0000    0     1.008   -1.761299   10.829867    6.637567
  78 H     1.0000    0     1.008    0.186217   13.598062    6.452228
  79 H     1.0000    0     1.008   -2.037243   12.919766    3.990693
  80 H     1.0000    0     1.008    4.538638   11.245817    1.310735
  81 H     1.0000    0     1.008    1.709773   12.968263    0.546540
  82 H     1.0000    0     1.008    3.636825   13.921294    3.163629
  83 H     1.0000    0     1.008   -6.359861    4.582866   -2.096874
  84 H     1.0000    0     1.008   -6.549471    1.283518   -1.555251
  85 H     1.0000    0     1.008   -8.969659    3.999300   -6.148287
  86 H     1.0000    0     1.008  -10.645381    3.353528   -3.300689
  87 H     1.0000    0     1.008   -9.880696   -1.331034   -3.929290
  88 H     1.0000    0     1.008   -8.209615   -0.666905   -6.768282
  89 H     1.0000    0     1.008  -12.134317    1.295347   -8.638539
  90 H     1.0000    0     1.008  -13.820737    0.655404   -5.812272
  91 H     1.0000    0     1.008  -13.047339   -4.035799   -6.418659
  92 H     1.0000    0     1.008  -11.363328   -3.390362   -9.242330
  93 H     1.0000    0     1.008  -15.296633   -1.415767  -11.136317
  94 H     1.0000    0     1.008  -16.980868   -2.060105   -8.311671
  95 H     1.0000    0     1.008  -16.201210   -6.749977   -8.918929
  96 H     1.0000    0     1.008  -14.520438   -6.103246  -11.744652
  97 H     1.0000    0     1.008  -18.452925   -4.128630  -13.631038
  98 H     1.0000    0     1.008  -20.133179   -4.775043  -10.806597
  99 H     1.0000    0     1.008  -21.031166   -8.120459  -14.092871
 100 H     1.0000    0     1.008  -17.733129   -8.846475  -14.300174
 101 H     1.0000    0     1.008  -19.427421   -9.499250  -11.451859
 102 H     1.0000    0     1.008   -0.887662    3.084904   -7.955497
 103 H     1.0000    0     1.008   -1.096956   -2.118369    3.228286
 104 H     1.0000    0     1.008    1.780565   -0.417785    3.623692
 105 H     1.0000    0     1.008    0.282588   -2.231218    7.803805
 106 H     1.0000    0     1.008    0.433422   -5.360716    6.498303
 107 H     1.0000    0     1.008    3.258406   -3.577770    6.898207
 108 H     1.0000    0     1.008    8.293246   -8.363656    7.067464
 109 H     1.0000    0     1.008    7.440244  -11.623284    3.740315
 110 H     1.0000    0     1.008   10.682372  -11.452485    2.720303
 111 H     1.0000    0     1.008    9.945083  -12.619186    5.813034
 112 H     1.0000    0     1.008   12.467802   -6.111250    7.259506
 113 H     1.0000    0     1.008   12.947733   -9.438385    7.637999
 114 H     1.0000    0     1.008   13.626434   -7.949147    4.669347

--------------------------------
INTERNAL COORDINATES (ANGSTROEM)
--------------------------------
 O      0   0   0     0.000000000000     0.00000000     0.00000000
 C      1   0   0     1.227719736952     0.00000000     0.00000000
 C      2   1   0     1.542696305285   119.84567290     0.00000000
 C      3   2   1     1.539258225317   111.72354287   286.93087637
 C      4   3   2     1.534729918327   102.68952293   268.07077962
 C      5   4   3     1.536162746559   102.86193289   319.42407632
 N      6   5   4     1.480078665120   103.31429926    33.18904814
 C      7   6   5     1.362549010074   130.68035178   172.19420010
 O      8   7   6     1.246740364432   118.78993848   183.35848741
 N      2   1   3     1.369018501155   124.02145236   180.20577810
 C     10   2   1     1.455785045531   122.68769781   351.79440593
 C     11  10   2     1.552675243093   109.93074560   243.46013161
 N     12  11  10     1.371250121968   114.02269125    27.27581182
 C     13  12  11     1.454837879226   122.07558177   181.43543391
 C     14  13  12     1.543527205521   112.45640977   228.62936574
 N     15  14  13     1.377620244486   115.08090774   305.55114621
 C     16  15  14     1.463388806045   122.93197116   171.72583272
 C     17  16  15     1.539977704636   116.37397409    54.33748264
 C     18  17  16     1.560065334097   115.28823896    39.92809255
 C     19  18  17     1.536860164217   113.15147344    61.46315702
 N     20  19  18     1.374809556003   114.03923257   280.53409435
 C     21  20  19     1.466636562713   121.05489429   167.25528654
 C     22  21  20     1.530591695811   109.19822047   195.53907528
 N     23  22  21     1.374315938288   114.62388742   307.36128791
 C     24  23  22     1.455202196758   120.40868418   176.49444233
 C     25  24  23     1.539325563911   110.22879945    71.92135832
 O     23  22  21     1.231017305552   123.50477109   129.00347620
 C     22  21  20     1.545875664200   111.76054596    72.31701010
 C     28  22  21     1.539981493268   115.16827480   173.18775382
 C     29  28  22     1.535956343041   109.66035998   179.59901087
 C     29  28  22     1.537047616921   112.37767491    55.10969819
 O     20  19  18     1.231170626221   122.78596534   100.50530635
 C     19  18  17     1.536005751858   109.80718627   182.35011954
 C     33  19  18     1.516633094164   116.84131418   164.18036814
 C     34  33  19     1.529519787330   114.48588206   189.25866540
 C     35  34  33     1.534192190554   113.51332583    71.92179320
 C     36  35  34     1.532385486115   113.47031069   180.47449151
 C     37  36  35     1.532995540528   113.67315725   180.04555666
 C     38  37  36     1.532983328726   113.86730845   180.18681352
 C     39  38  37     1.533032342249   113.84574819   179.94427880
 C     40  39  38     1.534080917078   113.90893963   179.95542383
 C     41  40  39     1.531752649178   113.51500025   179.97795509
 O     33  19  18     1.227770797161   121.24270808   342.83523965
 O     18  17  16     1.410945991273   104.97601937   163.14799713
 O     15  14  13     1.229895428370   121.40842470   130.03055282
 C     14  13  12     1.545879447391   112.10398362   103.65958988
 C     46  14  13     1.529107881149   113.63293325   302.52429709
 O     12  11  10     1.231110588212   122.80628863   206.73677062
 C     11  10   2     1.552779529134   113.68105022   115.76331462
 C     49  11  10     1.536880760524   110.50368446   198.62183155
 C     49  11  10     1.535890038740   110.95800333   321.66093230
 H      3   2   1     1.107128056840   104.77550490    49.60737097
 H      4   3   2     1.109332948323   109.77064096   150.33086729
 H      4   3   2     1.105811033553   111.21358069    30.79970217
 H      5   4   3     1.110204071349   110.15890163    76.98653252
 H      5   4   3     1.106871369132   113.86493312   198.07210484
 H      6   5   4     1.107528137790   112.76603200   153.42527628
 H      6   5   4     1.109325848587   110.80566942   274.86938414
 H     10   2   1     1.021517722874   117.91569544   178.99694272
 H     11  10   2     1.114032772694   104.15379493   358.31316410
 H     13  12  11     1.027772642489   119.06149042   354.34574483
 H     14  13  12     1.107085697640   106.30169276   344.15538071
 H     16  15  14     1.032237121944   118.10829030    13.25891688
 H     17  16  15     1.111638858077   110.84728569   291.23823502
 H     17  16  15     1.108098527221   107.32402124   174.77995039
 H     18  17  16     1.113216214877   108.06559015   282.88774523
 H     19  18  17     1.110391113977   108.20689818   299.90464983
 H     21  20  19     1.029936768800   115.38421263    12.03826614
 H     22  21  20     1.108963634565   109.33052974   311.27243925
 H     24  23  22     1.021477003876   119.28804065     5.05850153
 H     25  24  23     1.113260162132   106.18433470   189.86300584
 H     26  25  24     1.106917371710   107.94796352    44.31426693
 H     26  25  24     1.103654179688   112.96215638   162.79635459
 H     26  25  24     1.105259571213   110.36376959   286.52917893
 H     28  22  21     1.112829335755   108.24437582    50.06448509
 H     28  22  21     1.109486502209   106.63582567   295.75599813
 H     29  28  22     1.115372904198   108.00701090   296.55418832
 H     30  29  28     1.110062798860   111.66831612    56.26365491
 H     30  29  28     1.109279528341   111.32455596   176.86980561
 H     30  29  28     1.110817726005   110.73935007   296.54502334
 H     31  29  28     1.107771609455   111.62483604   294.80874882
 H     31  29  28     1.110867234157   110.88709759    55.69929907
 H     31  29  28     1.109382793873   110.76511573   175.15968821
 H     34  33  19     1.113790894044   104.49346174    67.35236249
 H     34  33  19     1.112981034243   108.70252658   315.12069216
 H     35  34  33     1.110537832560   108.50840509   310.10137461
 H     35  34  33     1.111449981470   109.00187556   194.38693659
 H     36  35  34     1.114339591081   109.35394478    58.09548536
 H     36  35  34     1.111324435565   109.11025880   302.48523733
 H     37  36  35     1.113653065127   109.15390390    57.73049545
 H     37  36  35     1.114432439507   109.48866481   302.63763765
 H     38  37  36     1.114127212969   109.31254495    57.63584885
 H     38  37  36     1.113734433003   109.20211256   302.72072399
 H     39  38  37     1.114029664987   109.27771884    57.43755657
 H     39  38  37     1.114220980111   109.30787564   302.47613615
 H     40  39  38     1.114316029872   109.30107866    57.41138755
 H     40  39  38     1.114171766461   109.28053998   302.49106677
 H     41  40  39     1.113341395171   109.08736061    57.36951157
 H     41  40  39     1.113419617960   109.09477197   302.60285671
 H     42  41  40     1.109205213551   111.83491179   180.00525990
 H     42  41  40     1.110569799629   111.27287283   300.27605730
 H     42  41  40     1.110625319368   111.28446265    59.72373773
 H     44  18  17     0.985252540480   103.69637355   175.57951750
 H     46  14  13     1.110886444638   107.91724308   179.43726142
 H     46  14  13     1.110928667727   107.68450464    64.74481875
 H     47  46  14     1.109194480844   111.39466787   180.98022645
 H     47  46  14     1.107840808254   111.40556462   301.93290276
 H     47  46  14     1.109827186830   110.96268247    60.78986454
 H     49  11  10     1.114066074176   107.63653650    80.77977601
 H     50  49  11     1.104667556643   110.75298050   302.77918485
 H     50  49  11     1.111223040526   110.31716868    63.19440294
 H     50  49  11     1.109070406837   110.58175181   182.15703680
 H     51  49  11     1.108669577547   112.43022961    63.20301871
 H     51  49  11     1.108611944811   110.34953198   183.42952223
 H     51  49  11     1.110240396394   110.85300264   302.89593859

---------------------------
INTERNAL COORDINATES (A.U.)
---------------------------
 O      0   0   0     0.000000000000     0.00000000     0.00000000
 C      1   0   0     2.320054072049     0.00000000     0.00000000
 C      2   1   0     2.915273524801   119.84567290     0.00000000
 C      3   2   1     2.908776495234   111.72354287   286.93087637
 C      4   3   2     2.900219235173   102.68952293   268.07077962
 C      5   4   3     2.902926888129   102.86193289   319.42407632
 N      6   5   4     2.796943333737   103.31429926    33.18904814
 C      7   6   5     2.574844473085   130.68035178   172.19420010
 O      8   7   6     2.355997848882   118.78993848   183.35848741
 N      2   1   3     2.587070039454   124.02145236   180.20577810
 C     10   2   1     2.751035045912   122.68769781   351.79440593
 C     11  10   2     2.934130984365   109.93074560   243.46013161
 N     12  11  10     2.591287191626   114.02269125    27.27581182
 C     13  12  11     2.749245160991   122.07558177   181.43543391
 C     14  13  12     2.916843698692   112.45640977   228.62936574
 N     15  14  13     2.603324978624   115.08090774   305.55114621
 C     16  15  14     2.765404070871   122.93197116   171.72583272
 C     17  16  15     2.910136114106   116.37397409    54.33748264
 C     18  17  16     2.948096232467   115.28823896    39.92809255
 C     19  18  17     2.904244816502   113.15147344    61.46315702
 N     20  19  18     2.598013547143   114.03923257   280.53409435
 C     21  20  19     2.771541441524   121.05489429   167.25528654
 C     22  21  20     2.892399127937   109.19822047   195.53907528
 N     23  22  21     2.597080744847   114.62388742   307.36128791
 C     24  23  22     2.749933621353   120.40868418   176.49444233
 C     25  24  23     2.908903746736   110.22879945    71.92135832
 O     23  22  21     2.326285573610   123.50477109   129.00347620
 C     22  21  20     2.921281642432   111.76054596    72.31701010
 C     28  22  21     2.910143273584   115.16827480   173.18775382
 C     29  28  22     2.902536842007   109.66035998   179.59901087
 C     29  28  22     2.904599050777   112.37767491    55.10969819
 O     20  19  18     2.326575307686   122.78596534   100.50530635
 C     19  18  17     2.902630211139   109.80718627   182.35011954
 C     33  19  18     2.866021193611   116.84131418   164.18036814
 C     34  33  19     2.890373514468   114.48588206   189.25866540
 C     35  34  33     2.899203076947   113.51332583    71.92179320
 C     36  35  34     2.895788900353   113.47031069   180.47449151
 C     37  36  35     2.896941736120   113.67315725   180.04555666
 C     38  37  36     2.896918659158   113.86730845   180.18681352
 C     39  38  37     2.897011281294   113.84574819   179.94427880
 C     40  39  38     2.898992800552   113.90893963   179.95542383
 C     41  40  39     2.894593011855   113.51500025   179.97795509
 O     33  19  18     2.320150561860   121.24270808   342.83523965
 O     18  17  16     2.666301513260   104.97601937   163.14799713
 O     15  14  13     2.324165532981   121.40842470   130.03055282
 C     14  13  12     2.921288791627   112.10398362   103.65958988
 C     46  14  13     2.889595124593   113.63293325   302.52429709
 O     12  11  10     2.326461852292   122.80628863   206.73677062
 C     11  10   2     2.934328056422   113.68105022   115.76331462
 C     49  11  10     2.904283737884   110.50368446   198.62183155
 C     49  11  10     2.902411545037   110.95800333   321.66093230
 H      3   2   1     2.092168822608   104.77550490    49.60737097
 H      4   3   2     2.096335463666   109.77064096   150.33086729
 H      4   3   2     2.089680009283   111.21358069    30.79970217
 H      5   4   3     2.097981647615   110.15890163    76.98653252
 H      5   4   3     2.091683753139   113.86493312   198.07210484
 H      6   5   4     2.092924866035   112.76603200   153.42527628
 H      6   5   4     2.096322047108   110.80566942   274.86938414
 H     10   2   1     1.930388737179   117.91569544   178.99694272
 H     11  10   2     2.105216844604   104.15379493   358.31316410
[...]
freq.      78.52  E(vib)   ...       0.49 
freq.      79.55  E(vib)   ...       0.49 
freq.      89.07  E(vib)   ...       0.47 
freq.      93.95  E(vib)   ...       0.47 
freq.      96.62  E(vib)   ...       0.47 
freq.     100.17  E(vib)   ...       0.46 
freq.     106.59  E(vib)   ...       0.45 
freq.     108.69  E(vib)   ...       0.45 
freq.     121.39  E(vib)   ...       0.44 
freq.     128.98  E(vib)   ...       0.43 
freq.     131.63  E(vib)   ...       0.42 
freq.     142.29  E(vib)   ...       0.41 
freq.     143.50  E(vib)   ...       0.41 
freq.     145.71  E(vib)   ...       0.41 
freq.     153.42  E(vib)   ...       0.40 
freq.     153.88  E(vib)   ...       0.40 
freq.     156.15  E(vib)   ...       0.40 
freq.     159.74  E(vib)   ...       0.39 
freq.     167.91  E(vib)   ...       0.38 
freq.     171.13  E(vib)   ...       0.38 
freq.     181.60  E(vib)   ...       0.37 
freq.     195.33  E(vib)   ...       0.36 
freq.     204.34  E(vib)   ...       0.35 
freq.     209.37  E(vib)   ...       0.34 
freq.     214.67  E(vib)   ...       0.34 
freq.     223.18  E(vib)   ...       0.33 
freq.     225.29  E(vib)   ...       0.33 
freq.     226.26  E(vib)   ...       0.33 
freq.     229.43  E(vib)   ...       0.32 
freq.     232.29  E(vib)   ...       0.32 
freq.     237.00  E(vib)   ...       0.32 
freq.     240.34  E(vib)   ...       0.31 
freq.     242.95  E(vib)   ...       0.31 
freq.     249.42  E(vib)   ...       0.31 
freq.     253.80  E(vib)   ...       0.30 
freq.     268.96  E(vib)   ...       0.29 
freq.     270.19  E(vib)   ...       0.29 
freq.     274.71  E(vib)   ...       0.28 
freq.     281.55  E(vib)   ...       0.28 
freq.     287.64  E(vib)   ...       0.27 
freq.     289.42  E(vib)   ...       0.27 
freq.     300.40  E(vib)   ...       0.26 
freq.     308.33  E(vib)   ...       0.26 
freq.     321.13  E(vib)   ...       0.25 
freq.     325.40  E(vib)   ...       0.24 
freq.     339.26  E(vib)   ...       0.23 
freq.     355.53  E(vib)   ...       0.22 
freq.     360.98  E(vib)   ...       0.22 
freq.     371.83  E(vib)   ...       0.21 
freq.     388.33  E(vib)   ...       0.20 
freq.     391.42  E(vib)   ...       0.20 
freq.     396.78  E(vib)   ...       0.20 
freq.     399.11  E(vib)   ...       0.19 
freq.     405.25  E(vib)   ...       0.19 
freq.     416.43  E(vib)   ...       0.18 
freq.     418.90  E(vib)   ...       0.18 
freq.     427.07  E(vib)   ...       0.18 
freq.     436.60  E(vib)   ...       0.17 
freq.     445.73  E(vib)   ...       0.17 
freq.     452.67  E(vib)   ...       0.16 
freq.     455.90  E(vib)   ...       0.16 
freq.     466.94  E(vib)   ...       0.16 
freq.     476.46  E(vib)   ...       0.15 
freq.     492.37  E(vib)   ...       0.14 
freq.     493.25  E(vib)   ...       0.14 
freq.     509.89  E(vib)   ...       0.14 
freq.     523.13  E(vib)   ...       0.13 
freq.     526.44  E(vib)   ...       0.13 
freq.     545.74  E(vib)   ...       0.12 
freq.     557.57  E(vib)   ...       0.12 
freq.     572.09  E(vib)   ...       0.11 
freq.     579.12  E(vib)   ...       0.11 
freq.     580.18  E(vib)   ...       0.11 
freq.     586.55  E(vib)   ...       0.11 
freq.     608.81  E(vib)   ...       0.10 
freq.     625.20  E(vib)   ...       0.09 
freq.     633.92  E(vib)   ...       0.09 
freq.     653.03  E(vib)   ...       0.08 
freq.     659.26  E(vib)   ...       0.08 
freq.     681.85  E(vib)   ...       0.08 
freq.     702.74  E(vib)   ...       0.07 
freq.     711.59  E(vib)   ...       0.07 
freq.     713.74  E(vib)   ...       0.07 
freq.     717.20  E(vib)   ...       0.07 
freq.     722.70  E(vib)   ...       0.07 
freq.     734.20  E(vib)   ...       0.06 
freq.     738.63  E(vib)   ...       0.06 
freq.     744.68  E(vib)   ...       0.06 
freq.     759.46  E(vib)   ...       0.06 
freq.     765.06  E(vib)   ...       0.06 
freq.     769.04  E(vib)   ...       0.06 
freq.     780.00  E(vib)   ...       0.05 
freq.     788.85  E(vib)   ...       0.05 
freq.     798.93  E(vib)   ...       0.05 
freq.     815.68  E(vib)   ...       0.05 
freq.     822.25  E(vib)   ...       0.05 
freq.     829.99  E(vib)   ...       0.04 
freq.     833.38  E(vib)   ...       0.04 
freq.     848.75  E(vib)   ...       0.04 
freq.     854.41  E(vib)   ...       0.04 
freq.     858.22  E(vib)   ...       0.04 
freq.     862.02  E(vib)   ...       0.04 
freq.     876.27  E(vib)   ...       0.04 
freq.     877.38  E(vib)   ...       0.04 
freq.     886.94  E(vib)   ...       0.04 
freq.     892.41  E(vib)   ...       0.03 
freq.     896.98  E(vib)   ...       0.03 
freq.     902.48  E(vib)   ...       0.03 
freq.     904.20  E(vib)   ...       0.03 
freq.     904.94  E(vib)   ...       0.03 
freq.     907.34  E(vib)   ...       0.03 
freq.     913.13  E(vib)   ...       0.03 
freq.     923.94  E(vib)   ...       0.03 
freq.     929.49  E(vib)   ...       0.03 
freq.     939.73  E(vib)   ...       0.03 
freq.     942.49  E(vib)   ...       0.03 
freq.     944.60  E(vib)   ...       0.03 
freq.     948.02  E(vib)   ...       0.03 
freq.     951.53  E(vib)   ...       0.03 
freq.     959.34  E(vib)   ...       0.03 
freq.     968.73  E(vib)   ...       0.03 
freq.     976.21  E(vib)   ...       0.03 
freq.     983.55  E(vib)   ...       0.02 
freq.     989.44  E(vib)   ...       0.02 
freq.     991.85  E(vib)   ...       0.02 
freq.    1000.57  E(vib)   ...       0.02 
freq.    1001.90  E(vib)   ...       0.02 
freq.    1017.90  E(vib)   ...       0.02 
freq.    1025.50  E(vib)   ...       0.02 
freq.    1028.75  E(vib)   ...       0.02 
freq.    1030.40  E(vib)   ...       0.02 
freq.    1035.69  E(vib)   ...       0.02 
freq.    1037.21  E(vib)   ...       0.02 
freq.    1044.25  E(vib)   ...       0.02 
freq.    1048.93  E(vib)   ...       0.02 
freq.    1051.22  E(vib)   ...       0.02 
freq.    1053.09  E(vib)   ...       0.02 
freq.    1064.87  E(vib)   ...       0.02 
freq.    1066.48  E(vib)   ...       0.02 
freq.    1073.49  E(vib)   ...       0.02 
freq.    1079.51  E(vib)   ...       0.02 
freq.    1082.95  E(vib)   ...       0.02 
freq.    1084.75  E(vib)   ...       0.02 
freq.    1097.82  E(vib)   ...       0.02 
freq.    1105.12  E(vib)   ...       0.02 
freq.    1109.08  E(vib)   ...       0.02 
freq.    1112.55  E(vib)   ...       0.01 
freq.    1120.11  E(vib)   ...       0.01 
freq.    1121.15  E(vib)   ...       0.01 
freq.    1124.29  E(vib)   ...       0.01 
freq.    1128.94  E(vib)   ...       0.01 
freq.    1134.13  E(vib)   ...       0.01 
freq.    1137.09  E(vib)   ...       0.01 
freq.    1150.60  E(vib)   ...       0.01 
freq.    1152.05  E(vib)   ...       0.01 
freq.    1156.94  E(vib)   ...       0.01 
freq.    1159.60  E(vib)   ...       0.01 
freq.    1160.56  E(vib)   ...       0.01 
freq.    1174.59  E(vib)   ...       0.01 
freq.    1184.08  E(vib)   ...       0.01 
freq.    1193.62  E(vib)   ...       0.01 
freq.    1195.75  E(vib)   ...       0.01 
freq.    1206.28  E(vib)   ...       0.01 
freq.    1209.72  E(vib)   ...       0.01 
freq.    1210.91  E(vib)   ...       0.01 
freq.    1219.42  E(vib)   ...       0.01 
freq.    1222.99  E(vib)   ...       0.01 
freq.    1232.37  E(vib)   ...       0.01 
freq.    1233.55  E(vib)   ...       0.01 
freq.    1236.98  E(vib)   ...       0.01 
freq.    1244.78  E(vib)   ...       0.01 
freq.    1248.78  E(vib)   ...       0.01 
freq.    1250.67  E(vib)   ...       0.01 
freq.    1253.22  E(vib)   ...       0.01 
freq.    1254.76  E(vib)   ...       0.01 
freq.    1260.19  E(vib)   ...       0.01 
freq.    1262.14  E(vib)   ...       0.01 
freq.    1264.42  E(vib)   ...       0.01 
freq.    1267.80  E(vib)   ...       0.01 
freq.    1273.35  E(vib)   ...       0.01 
freq.    1282.19  E(vib)   ...       0.01 
freq.    1283.12  E(vib)   ...       0.01 
freq.    1284.39  E(vib)   ...       0.01 
freq.    1284.65  E(vib)   ...       0.01 
freq.    1288.44  E(vib)   ...       0.01 
freq.    1291.51  E(vib)   ...       0.01 
freq.    1294.72  E(vib)   ...       0.01 
freq.    1295.92  E(vib)   ...       0.01 
freq.    1297.80  E(vib)   ...       0.01 
freq.    1299.92  E(vib)   ...       0.01 
freq.    1302.40  E(vib)   ...       0.01 
freq.    1309.64  E(vib)   ...       0.01 
freq.    1311.62  E(vib)   ...       0.01 
freq.    1312.56  E(vib)   ...       0.01 
freq.    1318.07  E(vib)   ...       0.01 
freq.    1324.55  E(vib)   ...       0.01 
freq.    1325.06  E(vib)   ...       0.01 
freq.    1325.54  E(vib)   ...       0.01 
freq.    1326.23  E(vib)   ...       0.01 
freq.    1335.26  E(vib)   ...       0.01 
freq.    1337.65  E(vib)   ...       0.01 
freq.    1341.45  E(vib)   ...       0.01 
freq.    1345.24  E(vib)   ...       0.01 
freq.    1346.81  E(vib)   ...       0.01 
freq.    1349.62  E(vib)   ...       0.01 
freq.    1352.54  E(vib)   ...       0.01 
freq.    1354.30  E(vib)   ...       0.01 
freq.    1354.53  E(vib)   ...       0.01 
freq.    1359.06  E(vib)   ...       0.01 
freq.    1362.88  E(vib)   ...       0.01 
freq.    1363.53  E(vib)   ...       0.01 
freq.    1367.56  E(vib)   ...       0.01 
freq.    1372.91  E(vib)   ...       0.01 
freq.    1386.66  E(vib)   ...       0.00 
freq.    1389.03  E(vib)   ...       0.00 
freq.    1391.68  E(vib)   ...       0.00 
freq.    1427.17  E(vib)   ...       0.00 
freq.    1428.40  E(vib)   ...       0.00 
freq.    1433.21  E(vib)   ...       0.00 
freq.    1433.52  E(vib)   ...       0.00 
freq.    1435.25  E(vib)   ...       0.00 
freq.    1437.47  E(vib)   ...       0.00 
freq.    1437.79  E(vib)   ...       0.00 
freq.    1439.13  E(vib)   ...       0.00 
freq.    1440.98  E(vib)   ...       0.00 
freq.    1442.22  E(vib)   ...       0.00 
freq.    1443.38  E(vib)   ...       0.00 
freq.    1443.38  E(vib)   ...       0.00 
freq.    1445.29  E(vib)   ...       0.00 
freq.    1446.50  E(vib)   ...       0.00 
freq.    1446.52  E(vib)   ...       0.00 
freq.    1450.83  E(vib)   ...       0.00 
freq.    1451.25  E(vib)   ...       0.00 
freq.    1452.54  E(vib)   ...       0.00 
freq.    1452.55  E(vib)   ...       0.00 
freq.    1454.15  E(vib)   ...       0.00 
freq.    1456.67  E(vib)   ...       0.00 
freq.    1459.14  E(vib)   ...       0.00 
freq.    1460.81  E(vib)   ...       0.00 
freq.    1461.37  E(vib)   ...       0.00 
freq.    1464.56  E(vib)   ...       0.00 
freq.    1465.65  E(vib)   ...       0.00 
freq.    1465.99  E(vib)   ...       0.00 
freq.    1470.07  E(vib)   ...       0.00 
freq.    1475.03  E(vib)   ...       0.00 
freq.    1482.86  E(vib)   ...       0.00 
freq.    1494.18  E(vib)   ...       0.00 
freq.    1534.68  E(vib)   ...       0.00 
freq.    1599.15  E(vib)   ...       0.00 
freq.    1678.49  E(vib)   ...       0.00 
freq.    1683.33  E(vib)   ...       0.00 
freq.    1688.77  E(vib)   ...       0.00 
freq.    1690.47  E(vib)   ...       0.00 
freq.    1695.47  E(vib)   ...       0.00 
freq.    1705.19  E(vib)   ...       0.00 
freq.    2922.30  E(vib)   ...       0.00 
freq.    2924.49  E(vib)   ...       0.00 
freq.    2925.96  E(vib)   ...       0.00 
freq.    2928.12  E(vib)   ...       0.00 
freq.    2932.01  E(vib)   ...       0.00 
freq.    2937.50  E(vib)   ...       0.00 
freq.    2941.03  E(vib)   ...       0.00 
freq.    2942.03  E(vib)   ...       0.00 
freq.    2944.72  E(vib)   ...       0.00 
freq.    2944.88  E(vib)   ...       0.00 
freq.    2946.32  E(vib)   ...       0.00 
freq.    2950.58  E(vib)   ...       0.00 
freq.    2953.64  E(vib)   ...       0.00 
freq.    2953.79  E(vib)   ...       0.00 
freq.    2955.72  E(vib)   ...       0.00 
freq.    2956.38  E(vib)   ...       0.00 
freq.    2958.42  E(vib)   ...       0.00 
freq.    2959.17  E(vib)   ...       0.00 
freq.    2960.88  E(vib)   ...       0.00 
freq.    2961.84  E(vib)   ...       0.00 
freq.    2962.28  E(vib)   ...       0.00 
freq.    2964.48  E(vib)   ...       0.00 
freq.    2966.48  E(vib)   ...       0.00 
freq.    2968.60  E(vib)   ...       0.00 
freq.    2971.98  E(vib)   ...       0.00 
freq.    2973.76  E(vib)   ...       0.00 
freq.    2976.66  E(vib)   ...       0.00 
freq.    2978.64  E(vib)   ...       0.00 
freq.    2983.03  E(vib)   ...       0.00 
freq.    2984.15  E(vib)   ...       0.00 
freq.    2987.10  E(vib)   ...       0.00 
freq.    2990.70  E(vib)   ...       0.00 
freq.    2992.08  E(vib)   ...       0.00 
freq.    2994.47  E(vib)   ...       0.00 
freq.    2998.62  E(vib)   ...       0.00 
freq.    3006.10  E(vib)   ...       0.00 
freq.    3009.17  E(vib)   ...       0.00 
freq.    3015.28  E(vib)   ...       0.00 
freq.    3018.96  E(vib)   ...       0.00 
freq.    3019.87  E(vib)   ...       0.00 
freq.    3022.29  E(vib)   ...       0.00 
freq.    3024.10  E(vib)   ...       0.00 
freq.    3026.60  E(vib)   ...       0.00 
freq.    3027.92  E(vib)   ...       0.00 
freq.    3028.05  E(vib)   ...       0.00 
freq.    3028.10  E(vib)   ...       0.00 
freq.    3029.18  E(vib)   ...       0.00 
freq.    3029.37  E(vib)   ...       0.00 
freq.    3032.18  E(vib)   ...       0.00 
freq.    3034.47  E(vib)   ...       0.00 
freq.    3035.48  E(vib)   ...       0.00 
freq.    3042.44  E(vib)   ...       0.00 
freq.    3046.61  E(vib)   ...       0.00 
freq.    3048.32  E(vib)   ...       0.00 
freq.    3063.18  E(vib)   ...       0.00 
freq.    3065.21  E(vib)   ...       0.00 
freq.    3074.19  E(vib)   ...       0.00 
freq.    3092.79  E(vib)   ...       0.00 
freq.    3366.20  E(vib)   ...       0.00 
freq.    3399.07  E(vib)   ...       0.00 
freq.    3416.57  E(vib)   ...       0.00 
freq.    3504.39  E(vib)   ...       0.00 
freq.    3515.23  E(vib)   ...       0.00 
freq.    3559.24  E(vib)   ...       0.00 

------------
INNER ENERGY
------------

The inner energy is: U= E(el) + E(ZPE) + E(vib) + E(rot) + E(trans)
    E(el)   - is the total energy from the electronic structure calculation
              = E(kin-el) + E(nuc-el) + E(el-el) + E(nuc-nuc)
    E(ZPE)  - the the zero temperature vibrational energy from the frequency calculation
    E(vib)  - the the finite temperature correction to E(ZPE) due to population
              of excited vibrational states
    E(rot)  - is the rotational thermal energy
    E(trans)- is the translational thermal energy

Summary of contributions to the inner energy U:
Electronic energy                ...  -2380.05751002 Eh
Zero point energy                ...      0.97651242 Eh     612.77 kcal/mol
Thermal vibrational correction   ...      0.05622635 Eh      35.28 kcal/mol
Thermal rotational correction    ...      0.00141627 Eh       0.89 kcal/mol
Thermal translational correction ...      0.00141627 Eh       0.89 kcal/mol
-----------------------------------------------------------------------
Total thermal energy                  -2379.02193871 Eh


Summary of corrections to the electronic energy:
(perhaps to be used in another calculation)
Total thermal correction                  0.05905889 Eh      37.06 kcal/mol
Non-thermal (ZPE) correction              0.97651242 Eh     612.77 kcal/mol
-----------------------------------------------------------------------
Total correction                          1.03557131 Eh     649.83 kcal/mol


--------
ENTHALPY
--------

The enthalpy is H = U + kB*T
                kB is Boltzmann's constant
Total free energy                 ...  -2379.02193871 Eh 
Thermal Enthalpy correction       ...      0.00094421 Eh       0.59 kcal/mol
-----------------------------------------------------------------------
Total Enthalpy                    ...  -2379.02099450 Eh


Note: Only C1 symmetry has been detected, increase convergence thresholds 
      if your molecule has a higher symmetry. Symmetry factor of 1.0 is   
      used for the rotational entropy correction. 
 

Note: Rotational entropy computed according to Herzberg 
Infrared and Raman Spectra, Chapter V,1, Van Nostrand Reinhold, 1945 
Point Group:  C1, Symmetry Number:   1  
Rotational constants in cm-1:     0.002320     0.000859     0.000688 

Vibrational entropy computed according to the QRRHO of S. Grimme
Chem.Eur.J. 2012 18 9955


-------
ENTROPY
-------

The entropy contributions are T*S = T*(S(el)+S(vib)+S(rot)+S(trans))
     S(el)   - electronic entropy
     S(vib)  - vibrational entropy
     S(rot)  - rotational entropy
     S(trans)- translational entropy
The entropies will be listed as mutliplied by the temperature to get
units of energy

Electronic entropy                ...      0.00000000 Eh      0.00 kcal/mol
Vibrational entropy               ...      0.10490918 Eh     65.83 kcal/mol
Rotational entropy                ...      0.01914481 Eh     12.01 kcal/mol
Translational entropy             ...      0.02166895 Eh     13.60 kcal/mol
-----------------------------------------------------------------------
Final entropy term                ...      0.14572295 Eh     91.44 kcal/mol

In case the symmetry of your molecule has not been determined correctly
or in case you have a reason to use a different symmetry number we print 
out the resulting rotational entropy values for sn=1,12 :
 --------------------------------------------------------
|  sn= 1 | S(rot)=       0.01914481 Eh     12.01 kcal/mol|
|  sn= 2 | S(rot)=       0.01849036 Eh     11.60 kcal/mol|
|  sn= 3 | S(rot)=       0.01810752 Eh     11.36 kcal/mol|
|  sn= 4 | S(rot)=       0.01783590 Eh     11.19 kcal/mol|
|  sn= 5 | S(rot)=       0.01762521 Eh     11.06 kcal/mol|
|  sn= 6 | S(rot)=       0.01745307 Eh     10.95 kcal/mol|
|  sn= 7 | S(rot)=       0.01730752 Eh     10.86 kcal/mol|
|  sn= 8 | S(rot)=       0.01718144 Eh     10.78 kcal/mol|
|  sn= 9 | S(rot)=       0.01707024 Eh     10.71 kcal/mol|
|  sn=10 | S(rot)=       0.01697076 Eh     10.65 kcal/mol|
|  sn=11 | S(rot)=       0.01688077 Eh     10.59 kcal/mol|
|  sn=12 | S(rot)=       0.01679861 Eh     10.54 kcal/mol|
 --------------------------------------------------------


-------------------
GIBBS FREE ENERGY
-------------------

The Gibbs free energy is G = H - T*S

Total enthalpy                    ...  -2379.02099450 Eh 
Total entropy correction          ...     -0.14572295 Eh    -91.44 kcal/mol
-----------------------------------------------------------------------
Final Gibbs free energy         ...  -2379.16671745 Eh

For completeness - the Gibbs free energy minus the electronic energy
G-E(el)                           ...      0.89079257 Eh    558.98 kcal/mol

--------------------------------------------------------------------------
WARNING: No preset parameters were found for the device that Open MPI
detected:

  Local host:            eu-g1-024-1
  Device name:           mlx5_0
  Device vendor ID:      0x02c9
  Device vendor part ID: 4123

Default device parameters will be used, which may result in lower
performance.  You can edit any of the files specified by the
btl_openib_device_param_files MCA parameter to set values for your
device.

NOTE: You can turn off this warning by setting the MCA parameter
      btl_openib_warn_no_device_params_found to 0.
--------------------------------------------------------------------------
--------------------------------------------------------------------------
WARNING: There was an error initializing an OpenFabrics device.

  Local host:   eu-g1-024-1
  Local device: mlx5_0
--------------------------------------------------------------------------

Timings for individual modules:

Sum of individual times         ...    36440.361 sec (= 607.339 min)
GTO integral calculation        ...      282.516 sec (=   4.709 min)   0.8 %
SCF iterations                  ...     4949.592 sec (=  82.493 min)  13.6 %
SCF Gradient evaluation         ...      773.410 sec (=  12.890 min)   2.1 %
Geometry relaxation             ...      105.770 sec (=   1.763 min)   0.3 %
Analytical frequency calculation...    30329.074 sec (= 505.485 min)  83.2 %
                             ****ORCA TERMINATED NORMALLY****
TOTAL RUN TIME: 0 days 10 hours 10 minutes 51 seconds 469 msec
