 Entering Gaussian System, Link 0=g09
 Input=0.com
 Output=0.log
 AtFile(1): /cluster/work/igc/boeseltl/NEW_ISOMERS/Borneol/0.xyz
            O      1.902578   -0.390373   -1.506707
            C      1.143131   -1.021854   -0.523900
            C     -0.299644   -0.559541   -0.576112
            C     -0.922356   -0.577159   -1.894603
            C     -0.187104    0.797228    0.083466
            C      0.707782    1.743241   -0.639092
            C     -1.504518    1.429500    0.363166
            C     -1.036367   -1.340693    0.502571
            C     -0.563181   -0.725133    1.825531
            C      0.434573    0.290022    1.393955
            C      1.628243   -0.467675    0.822702
            H      2.828656   -0.306770   -1.155892
            H      1.196109   -2.113809   -0.564316
            H     -1.945529   -1.048327   -1.818866
            H     -0.353505   -1.291899   -2.559489
            H     -1.021334    0.372263   -2.425153
            H      0.322476    2.797734   -0.513075
            H      1.752207    1.720400   -0.326854
            H      0.603401    1.541416   -1.733088
            H     -2.051490    1.667494   -0.555298
            H     -1.323200    2.382327    0.892540
            H     -2.176397    0.833684    1.000923
            H     -0.660822   -2.397316    0.406226
            H     -2.119211   -1.313686    0.393149
            H     -0.006732   -1.527789    2.380344
            H     -1.380448   -0.367860    2.442272
            H      0.685277    1.067176    2.083587
            H      1.828339   -1.340072    1.479451
            H      2.519066    0.147472    0.722558
 AtFile(1): /cluster/work/igc/boeseltl/NEW_ISOMERS/Borneol/basis.gbs
            H     0
            S    3   1.00
                 34.0613410              0.60251978D-02
                  5.1235746              0.45021094D-01
                  1.1646626              0.20189726
            S    1   1.00
                  0.32723041             1.0000000
            S    1   1.00
                  0.10307241             1.0000000
            P    1   1.00
                  0.8000000              1.0000000
            ****
            C     0
            S    6   1.00
              13575.3496820              0.22245814352D-03
               2035.2333680              0.17232738252D-02
                463.22562359             0.89255715314D-02
                131.20019598             0.35727984502D-01
                 42.853015891            0.11076259931
                 15.584185766            0.24295627626
            S    2   1.00
                  6.2067138508           0.41440263448
                  2.5764896527           0.23744968655
            S    1   1.00
                  0.57696339419          1.0000000
            S    1   1.00
                  0.22972831358          1.0000000
            S    1   1.00
                  0.95164440028D-01      1.0000000
            P    4   1.00
                 34.697232244            0.53333657805D-02
                  7.9582622826           0.35864109092D-01
                  2.3780826883           0.14215873329
                  0.81433208183          0.34270471845
            P    1   1.00
                  0.28887547253           .46445822433
            P    1   1.00
                  0.10056823671           .24955789874
            D    1   1.00
                  1.09700000             1.0000000
            D    1   1.00
                  0.31800000             1.0000000
            F    1   1.00
                  0.76100000             1.0000000
            ****
            O     0
            S    6   1.00
              27032.3826310              0.21726302465D-03
               4052.3871392              0.16838662199D-02
                922.32722710             0.87395616265D-02
                261.24070989             0.35239968808D-01
                 85.354641351            0.11153519115
                 31.035035245            0.25588953961
            S    2   1.00
                 12.260860728            0.39768730901
                  4.9987076005           0.24627849430
            S    1   1.00
                  1.1703108158           1.0000000
            S    1   1.00
                  0.46474740994          1.0000000
            S    1   1.00
                  0.18504536357          1.0000000
            P    4   1.00
                 63.274954801            0.60685103418D-02
                 14.627049379            0.41912575824D-01
                  4.4501223456           0.16153841088
                  1.5275799647           0.35706951311
            P    1   1.00
                  0.52935117943           .44794207502
            P    1   1.00
                  0.17478421270           .24446069663
            D    1   1.00
                  2.31400000             1.0000000
            D    1   1.00
                  0.64500000             1.0000000
            F    1   1.00
                  1.42800000             1.0000000
            ****
 Initial command:
 /cluster/apps/gaussian/g09/l1.exe "/scratch/175735572.tmpdir/Gau-31775.inp" -scrdir="/scratch/175735572.tmpdir/"
 Entering Link 1 = /cluster/apps/gaussian/g09/l1.exe PID=     31776.
  
 Copyright (c) 1988,1990,1992,1993,1995,1998,2003,2009,2013,
            Gaussian, Inc.  All Rights Reserved.
  
 This is part of the Gaussian(R) 09 program.  It is based on
 the Gaussian(R) 03 system (copyright 2003, Gaussian, Inc.),
 the Gaussian(R) 98 system (copyright 1998, Gaussian, Inc.),
 the Gaussian(R) 94 system (copyright 1995, Gaussian, Inc.),
 the Gaussian 92(TM) system (copyright 1992, Gaussian, Inc.),
 the Gaussian 90(TM) system (copyright 1990, Gaussian, Inc.),
 the Gaussian 88(TM) system (copyright 1988, Gaussian, Inc.),
 the Gaussian 86(TM) system (copyright 1986, Carnegie Mellon
 University), and the Gaussian 82(TM) system (copyright 1983,
 Carnegie Mellon University). Gaussian is a federally registered
 trademark of Gaussian, Inc.
  
 This software contains proprietary and confidential information,
 including trade secrets, belonging to Gaussian, Inc.
  
 This software is provided under written license and may be
 used, copied, transmitted, or stored only in accord with that
 written license.
  
 The following legend is applicable only to US Government
 contracts under FAR:
  
                    RESTRICTED RIGHTS LEGEND
  
 Use, reproduction and disclosure by the US Government is
 subject to restrictions as set forth in subparagraphs (a)
 and (c) of the Commercial Computer Software - Restricted
 Rights clause in FAR 52.227-19.
  
 Gaussian, Inc.
 340 Quinnipiac St., Bldg. 40, Wallingford CT 06492
  
  
 ---------------------------------------------------------------
 Warning -- This program may not be used in any manner that
 competes with the business of Gaussian, Inc. or will provide
 assistance to any competitor of Gaussian, Inc.  The licensee
 of this program is prohibited from giving any competitor of
 Gaussian, Inc. access to this program.  By using this program,
 the user acknowledges that Gaussian, Inc. is engaged in the
 business of creating and licensing software in the field of
 computational chemistry and represents and warrants to the
 licensee that it is not a competitor of Gaussian, Inc. and that
 it will not use this program in any manner prohibited above.
 ---------------------------------------------------------------
  

 Cite this work as:
 Gaussian 09, Revision D.01,
 M. J. Frisch, G. W. Trucks, H. B. Schlegel, G. E. Scuseria, 
 M. A. Robb, J. R. Cheeseman, G. Scalmani, V. Barone, B. Mennucci, 
 G. A. Petersson, H. Nakatsuji, M. Caricato, X. Li, H. P. Hratchian, 
 A. F. Izmaylov, J. Bloino, G. Zheng, J. L. Sonnenberg, M. Hada, 
 M. Ehara, K. Toyota, R. Fukuda, J. Hasegawa, M. Ishida, T. Nakajima, 
 Y. Honda, O. Kitao, H. Nakai, T. Vreven, J. A. Montgomery, Jr., 
 J. E. Peralta, F. Ogliaro, M. Bearpark, J. J. Heyd, E. Brothers, 
 K. N. Kudin, V. N. Staroverov, T. Keith, R. Kobayashi, J. Normand, 
 K. Raghavachari, A. Rendell, J. C. Burant, S. S. Iyengar, J. Tomasi, 
 M. Cossi, N. Rega, J. M. Millam, M. Klene, J. E. Knox, J. B. Cross, 
 V. Bakken, C. Adamo, J. Jaramillo, R. Gomperts, R. E. Stratmann, 
 O. Yazyev, A. J. Austin, R. Cammi, C. Pomelli, J. W. Ochterski, 
 R. L. Martin, K. Morokuma, V. G. Zakrzewski, G. A. Voth, 
 P. Salvador, J. J. Dannenberg, S. Dapprich, A. D. Daniels, 
 O. Farkas, J. B. Foresman, J. V. Ortiz, J. Cioslowski, 
 and D. J. Fox, Gaussian, Inc., Wallingford CT, 2013.
 
 ******************************************
 Gaussian 09:  ES64L-G09RevD.01 24-Apr-2013
                17-Jun-2021 
 ******************************************
 %mem=16000MB
 %NProcShared=16
 Will use up to   16 processors via shared memory.
 ----------------------------------------------------------------------
 #B3LYP/Gen scf=tight freq=VCD Opt=Tight Integral(Grid=SuperFine) Empir
 icalDispersion=GD3
 ----------------------------------------------------------------------
 1/7=10,14=-1,18=20,19=15,26=5,38=1/1,3;
 2/9=110,12=2,17=6,18=5,40=1/2;
 3/5=7,11=2,16=1,25=1,30=1,71=1,74=-5,75=-7,124=31/1,2,3;
 4//1;
 5/5=2,32=2,38=5/2;
 6/7=2,8=2,9=2,10=2,28=1/1;
 7//1,2,3,16;
 1/7=10,14=-1,18=20,19=15,26=5/3(2);
 2/9=110/2;
 99//99;
 2/9=110/2;
 3/5=7,6=1,11=2,16=1,25=1,30=1,71=1,74=-5,75=-7,82=7,124=31/1,2,3;
 4/5=5,16=3,69=1/1;
 5/5=2,32=2,38=5/2;
 7//1,2,3,16;
 1/7=10,14=-1,18=20,19=15,26=5/3(-5);
 2/9=110/2;
 6/7=2,8=2,9=2,10=2,19=2,28=1/1;
 99/9=1/99;
 -
 0
 -
 Symbolic Z-matrix:
 Charge =  0 Multiplicity = 1
 O                     1.90258  -0.39037  -1.50671 
 C                     1.14313  -1.02185  -0.5239 
 C                    -0.29964  -0.55954  -0.57611 
 C                    -0.92236  -0.57716  -1.8946 
 C                    -0.1871    0.79723   0.08347 
 C                     0.70778   1.74324  -0.63909 
 C                    -1.50452   1.4295    0.36317 
 C                    -1.03637  -1.34069   0.50257 
 C                    -0.56318  -0.72513   1.82553 
 C                     0.43457   0.29002   1.39396 
 C                     1.62824  -0.46768   0.8227 
 H                     2.82866  -0.30677  -1.15589 
 H                     1.19611  -2.11381  -0.56432 
 H                    -1.94553  -1.04833  -1.81887 
 H                    -0.35351  -1.2919   -2.55949 
 H                    -1.02133   0.37226  -2.42515 
 H                     0.32248   2.79773  -0.51308 
 H                     1.75221   1.7204   -0.32685 
 H                     0.6034    1.54142  -1.73309 
 H                    -2.05149   1.66749  -0.5553 
 H                    -1.3232    2.38233   0.89254 
 H                    -2.1764    0.83368   1.00092 
 H                    -0.66082  -2.39732   0.40623 
 H                    -2.11921  -1.31369   0.39315 
 H                    -0.00673  -1.52779   2.38034 
 H                    -1.38045  -0.36786   2.44227 
 H                     0.68528   1.06718   2.08359 
 H                     1.82834  -1.34007   1.47945 
 H                     2.51907   0.14747   0.72256 
 

 GradGradGradGradGradGradGradGradGradGradGradGradGradGradGradGradGradGrad
 Berny optimization.
 Initialization pass.
                           ----------------------------
                           !    Initial Parameters    !
                           ! (Angstroms and Degrees)  !
 --------------------------                            --------------------------
 ! Name  Definition              Value          Derivative Info.                !
 --------------------------------------------------------------------------------
 ! R1    R(1,2)                  1.3934         estimate D2E/DX2                !
 ! R2    R(1,12)                 0.9938         estimate D2E/DX2                !
 ! R3    R(2,3)                  1.5159         estimate D2E/DX2                !
 ! R4    R(2,11)                 1.5349         estimate D2E/DX2                !
 ! R5    R(2,13)                 1.094          estimate D2E/DX2                !
 ! R6    R(3,4)                  1.4583         estimate D2E/DX2                !
 ! R7    R(3,5)                  1.5128         estimate D2E/DX2                !
 ! R8    R(3,8)                  1.522          estimate D2E/DX2                !
 ! R9    R(4,14)                 1.129          estimate D2E/DX2                !
 ! R10   R(4,15)                 1.1298         estimate D2E/DX2                !
 ! R11   R(4,16)                 1.0921         estimate D2E/DX2                !
 ! R12   R(5,6)                  1.4892         estimate D2E/DX2                !
 ! R13   R(5,7)                  1.4878         estimate D2E/DX2                !
 ! R14   R(5,10)                 1.5366         estimate D2E/DX2                !
 ! R15   R(6,17)                 1.1297         estimate D2E/DX2                !
 ! R16   R(6,18)                 1.0903         estimate D2E/DX2                !
 ! R17   R(6,19)                 1.1173         estimate D2E/DX2                !
 ! R18   R(7,20)                 1.0952         estimate D2E/DX2                !
 ! R19   R(7,21)                 1.105          estimate D2E/DX2                !
 ! R20   R(7,22)                 1.1014         estimate D2E/DX2                !
 ! R21   R(8,9)                  1.534          estimate D2E/DX2                !
 ! R22   R(8,23)                 1.1255         estimate D2E/DX2                !
 ! R23   R(8,24)                 1.0887         estimate D2E/DX2                !
 ! R24   R(9,10)                 1.4874         estimate D2E/DX2                !
 ! R25   R(9,25)                 1.1233         estimate D2E/DX2                !
 ! R26   R(9,26)                 1.0844         estimate D2E/DX2                !
 ! R27   R(10,11)                1.5249         estimate D2E/DX2                !
 ! R28   R(10,27)                1.0688         estimate D2E/DX2                !
 ! R29   R(11,28)                1.1102         estimate D2E/DX2                !
 ! R30   R(11,29)                1.0872         estimate D2E/DX2                !
 ! A1    A(2,1,12)             107.2796         estimate D2E/DX2                !
 ! A2    A(1,2,3)              110.8692         estimate D2E/DX2                !
 ! A3    A(1,2,11)             106.4353         estimate D2E/DX2                !
 ! A4    A(1,2,13)             113.5728         estimate D2E/DX2                !
 ! A5    A(3,2,11)             102.7628         estimate D2E/DX2                !
 ! A6    A(3,2,13)             110.4396         estimate D2E/DX2                !
 ! A7    A(11,2,13)            112.1788         estimate D2E/DX2                !
 ! A8    A(2,3,4)              115.7137         estimate D2E/DX2                !
 ! A9    A(2,3,5)              100.8184         estimate D2E/DX2                !
 ! A10   A(2,3,8)              106.2455         estimate D2E/DX2                !
 ! A11   A(4,3,5)              115.901          estimate D2E/DX2                !
 ! A12   A(4,3,8)              115.3341         estimate D2E/DX2                !
 ! A13   A(5,3,8)              100.7958         estimate D2E/DX2                !
 ! A14   A(3,4,14)             109.3532         estimate D2E/DX2                !
 ! A15   A(3,4,15)             108.9489         estimate D2E/DX2                !
 ! A16   A(3,4,16)             117.8686         estimate D2E/DX2                !
 ! A17   A(14,4,15)            103.4008         estimate D2E/DX2                !
 ! A18   A(14,4,16)            108.2562         estimate D2E/DX2                !
 ! A19   A(15,4,16)            108.0413         estimate D2E/DX2                !
 ! A20   A(3,5,6)              113.7582         estimate D2E/DX2                !
 ! A21   A(3,5,7)              113.4053         estimate D2E/DX2                !
 ! A22   A(3,5,10)              96.0791         estimate D2E/DX2                !
 ! A23   A(6,5,7)              110.6916         estimate D2E/DX2                !
 ! A24   A(6,5,10)             112.3558         estimate D2E/DX2                !
 ! A25   A(7,5,10)             109.7666         estimate D2E/DX2                !
 ! A26   A(5,6,17)             109.5033         estimate D2E/DX2                !
 ! A27   A(5,6,18)             115.0461         estimate D2E/DX2                !
 ! A28   A(5,6,19)             107.7082         estimate D2E/DX2                !
 ! A29   A(17,6,18)            108.319          estimate D2E/DX2                !
 ! A30   A(17,6,19)            104.2382         estimate D2E/DX2                !
 ! A31   A(18,6,19)            111.4744         estimate D2E/DX2                !
 ! A32   A(5,7,20)             112.1436         estimate D2E/DX2                !
 ! A33   A(5,7,21)             108.1325         estimate D2E/DX2                !
 ! A34   A(5,7,22)             114.7785         estimate D2E/DX2                !
 ! A35   A(20,7,21)            107.2382         estimate D2E/DX2                !
 ! A36   A(20,7,22)            107.3671         estimate D2E/DX2                !
 ! A37   A(21,7,22)            106.8074         estimate D2E/DX2                !
 ! A38   A(3,8,9)              104.8307         estimate D2E/DX2                !
 ! A39   A(3,8,23)             105.0491         estimate D2E/DX2                !
 ! A40   A(3,8,24)             113.4208         estimate D2E/DX2                !
 ! A41   A(9,8,23)             110.3422         estimate D2E/DX2                !
 ! A42   A(9,8,24)             112.5533         estimate D2E/DX2                !
 ! A43   A(23,8,24)            110.277          estimate D2E/DX2                !
 ! A44   A(8,9,10)             103.3303         estimate D2E/DX2                !
 ! A45   A(8,9,25)             106.9808         estimate D2E/DX2                !
 ! A46   A(8,9,26)             112.9689         estimate D2E/DX2                !
 ! A47   A(10,9,25)            107.3803         estimate D2E/DX2                !
 ! A48   A(10,9,26)            116.4694         estimate D2E/DX2                !
 ! A49   A(25,9,26)            109.1391         estimate D2E/DX2                !
 ! A50   A(5,10,9)             101.6159         estimate D2E/DX2                !
 ! A51   A(5,10,11)             99.2778         estimate D2E/DX2                !
 ! A52   A(5,10,27)            113.9016         estimate D2E/DX2                !
 ! A53   A(9,10,11)            107.138          estimate D2E/DX2                !
 ! A54   A(9,10,27)            117.7998         estimate D2E/DX2                !
 ! A55   A(11,10,27)           114.796          estimate D2E/DX2                !
 ! A56   A(2,11,10)            105.1096         estimate D2E/DX2                !
 ! A57   A(2,11,28)            106.9932         estimate D2E/DX2                !
 ! A58   A(2,11,29)            112.4857         estimate D2E/DX2                !
 ! A59   A(10,11,28)           108.0559         estimate D2E/DX2                !
 ! A60   A(10,11,29)           113.2512         estimate D2E/DX2                !
 ! A61   A(28,11,29)           110.5754         estimate D2E/DX2                !
 ! D1    D(12,1,2,3)           149.3469         estimate D2E/DX2                !
 ! D2    D(12,1,2,11)           38.3106         estimate D2E/DX2                !
 ! D3    D(12,1,2,13)          -85.6156         estimate D2E/DX2                !
 ! D4    D(1,2,3,4)             48.8399         estimate D2E/DX2                !
 ! D5    D(1,2,3,5)            -77.0072         estimate D2E/DX2                !
 ! D6    D(1,2,3,8)            178.2599         estimate D2E/DX2                !
 ! D7    D(11,2,3,4)           162.2197         estimate D2E/DX2                !
 ! D8    D(11,2,3,5)            36.3726         estimate D2E/DX2                !
 ! D9    D(11,2,3,8)           -68.3603         estimate D2E/DX2                !
 ! D10   D(13,2,3,4)           -77.9465         estimate D2E/DX2                !
 ! D11   D(13,2,3,5)           156.2064         estimate D2E/DX2                !
 ! D12   D(13,2,3,8)            51.4735         estimate D2E/DX2                !
 ! D13   D(1,2,11,10)          115.0422         estimate D2E/DX2                !
 ! D14   D(1,2,11,28)         -130.236          estimate D2E/DX2                !
 ! D15   D(1,2,11,29)           -8.6206         estimate D2E/DX2                !
 ! D16   D(3,2,11,10)           -1.5501         estimate D2E/DX2                !
 ! D17   D(3,2,11,28)          113.1717         estimate D2E/DX2                !
 ! D18   D(3,2,11,29)         -125.2128         estimate D2E/DX2                !
 ! D19   D(13,2,11,10)        -120.1713         estimate D2E/DX2                !
 ! D20   D(13,2,11,28)          -5.4495         estimate D2E/DX2                !
 ! D21   D(13,2,11,29)         116.166          estimate D2E/DX2                !
 ! D22   D(2,3,4,14)           133.8751         estimate D2E/DX2                !
 ! D23   D(2,3,4,15)            21.5225         estimate D2E/DX2                !
 ! D24   D(2,3,4,16)          -101.9783         estimate D2E/DX2                !
 ! D25   D(5,3,4,14)          -108.3865         estimate D2E/DX2                !
 ! D26   D(5,3,4,15)           139.2608         estimate D2E/DX2                !
 ! D27   D(5,3,4,16)            15.76           estimate D2E/DX2                !
 ! D28   D(8,3,4,14)             9.0184         estimate D2E/DX2                !
 ! D29   D(8,3,4,15)          -103.3342         estimate D2E/DX2                !
 ! D30   D(8,3,4,16)           133.165          estimate D2E/DX2                !
 ! D31   D(2,3,5,6)             60.9093         estimate D2E/DX2                !
 ! D32   D(2,3,5,7)           -171.4144         estimate D2E/DX2                !
 ! D33   D(2,3,5,10)           -56.7884         estimate D2E/DX2                !
 ! D34   D(4,3,5,6)            -64.8122         estimate D2E/DX2                !
 ! D35   D(4,3,5,7)             62.8642         estimate D2E/DX2                !
 ! D36   D(4,3,5,10)           177.4902         estimate D2E/DX2                !
 ! D37   D(8,3,5,6)            169.9589         estimate D2E/DX2                !
 ! D38   D(8,3,5,7)            -62.3647         estimate D2E/DX2                !
 ! D39   D(8,3,5,10)            52.2612         estimate D2E/DX2                !
 ! D40   D(2,3,8,9)             72.9244         estimate D2E/DX2                !
 ! D41   D(2,3,8,23)           -43.4075         estimate D2E/DX2                !
 ! D42   D(2,3,8,24)          -163.9085         estimate D2E/DX2                !
 ! D43   D(4,3,8,9)           -157.436          estimate D2E/DX2                !
 ! D44   D(4,3,8,23)            86.2322         estimate D2E/DX2                !
 ! D45   D(4,3,8,24)           -34.2689         estimate D2E/DX2                !
 ! D46   D(5,3,8,9)            -31.8248         estimate D2E/DX2                !
 ! D47   D(5,3,8,23)          -148.1567         estimate D2E/DX2                !
 ! D48   D(5,3,8,24)            91.3422         estimate D2E/DX2                !
 ! D49   D(3,5,6,17)           147.2862         estimate D2E/DX2                !
 ! D50   D(3,5,6,18)           -90.4679         estimate D2E/DX2                !
 ! D51   D(3,5,6,19)            34.5187         estimate D2E/DX2                !
 ! D52   D(7,5,6,17)            18.2215         estimate D2E/DX2                !
 ! D53   D(7,5,6,18)           140.4674         estimate D2E/DX2                !
 ! D54   D(7,5,6,19)           -94.546          estimate D2E/DX2                !
 ! D55   D(10,5,6,17)         -104.8868         estimate D2E/DX2                !
 ! D56   D(10,5,6,18)           17.359          estimate D2E/DX2                !
 ! D57   D(10,5,6,19)          142.3457         estimate D2E/DX2                !
 ! D58   D(3,5,7,20)           -65.1191         estimate D2E/DX2                !
 ! D59   D(3,5,7,21)           176.8514         estimate D2E/DX2                !
 ! D60   D(3,5,7,22)            57.7547         estimate D2E/DX2                !
 ! D61   D(6,5,7,20)            64.1348         estimate D2E/DX2                !
 ! D62   D(6,5,7,21)           -53.8948         estimate D2E/DX2                !
 ! D63   D(6,5,7,22)          -172.9915         estimate D2E/DX2                !
 ! D64   D(10,5,7,20)         -171.2701         estimate D2E/DX2                !
 ! D65   D(10,5,7,21)           70.7003         estimate D2E/DX2                !
 ! D66   D(10,5,7,22)          -48.3964         estimate D2E/DX2                !
 ! D67   D(3,5,10,9)           -55.1315         estimate D2E/DX2                !
 ! D68   D(3,5,10,11)           54.6482         estimate D2E/DX2                !
 ! D69   D(3,5,10,27)          177.1417         estimate D2E/DX2                !
 ! D70   D(6,5,10,9)          -173.9399         estimate D2E/DX2                !
 ! D71   D(6,5,10,11)          -64.1603         estimate D2E/DX2                !
 ! D72   D(6,5,10,27)           58.3333         estimate D2E/DX2                !
 ! D73   D(7,5,10,9)            62.4341         estimate D2E/DX2                !
 ! D74   D(7,5,10,11)          172.2137         estimate D2E/DX2                !
 ! D75   D(7,5,10,27)          -65.2927         estimate D2E/DX2                !
 ! D76   D(3,8,9,10)            -2.6292         estimate D2E/DX2                !
 ! D77   D(3,8,9,25)          -115.7913         estimate D2E/DX2                !
 ! D78   D(3,8,9,26)           124.0927         estimate D2E/DX2                !
 ! D79   D(23,8,9,10)          109.9915         estimate D2E/DX2                !
 ! D80   D(23,8,9,25)           -3.1706         estimate D2E/DX2                !
 ! D81   D(23,8,9,26)         -123.2865         estimate D2E/DX2                !
 ! D82   D(24,8,9,10)         -126.3534         estimate D2E/DX2                !
 ! D83   D(24,8,9,25)          120.4845         estimate D2E/DX2                !
 ! D84   D(24,8,9,26)            0.3686         estimate D2E/DX2                !
 ! D85   D(8,9,10,5)            35.6703         estimate D2E/DX2                !
 ! D86   D(8,9,10,11)          -67.9584         estimate D2E/DX2                !
 ! D87   D(8,9,10,27)          160.8392         estimate D2E/DX2                !
 ! D88   D(25,9,10,5)          148.5417         estimate D2E/DX2                !
 ! D89   D(25,9,10,11)          44.913          estimate D2E/DX2                !
 ! D90   D(25,9,10,27)         -86.2894         estimate D2E/DX2                !
 ! D91   D(26,9,10,5)          -88.8            estimate D2E/DX2                !
 ! D92   D(26,9,10,11)         167.5713         estimate D2E/DX2                !
 ! D93   D(26,9,10,27)          36.3689         estimate D2E/DX2                !
 ! D94   D(5,10,11,2)          -33.0132         estimate D2E/DX2                !
 ! D95   D(5,10,11,28)        -146.9935         estimate D2E/DX2                !
 ! D96   D(5,10,11,29)          90.1602         estimate D2E/DX2                !
 ! D97   D(9,10,11,2)           72.2869         estimate D2E/DX2                !
 ! D98   D(9,10,11,28)         -41.6935         estimate D2E/DX2                !
 ! D99   D(9,10,11,29)        -164.5397         estimate D2E/DX2                !
 ! D100  D(27,10,11,2)        -154.8633         estimate D2E/DX2                !
 ! D101  D(27,10,11,28)         91.1564         estimate D2E/DX2                !
 ! D102  D(27,10,11,29)        -31.6899         estimate D2E/DX2                !
 --------------------------------------------------------------------------------
 Trust Radius=3.00D-01 FncErr=1.00D-07 GrdErr=1.00D-07
 Number of steps in this run=    174 maximum allowed number of steps=    174.
 GradGradGradGradGradGradGradGradGradGradGradGradGradGradGradGradGradGrad

                          Input orientation:                          
 ---------------------------------------------------------------------
 Center     Atomic      Atomic             Coordinates (Angstroms)
 Number     Number       Type             X           Y           Z
 ---------------------------------------------------------------------
      1          8           0        1.902578   -0.390373   -1.506707
      2          6           0        1.143131   -1.021854   -0.523900
      3          6           0       -0.299644   -0.559541   -0.576112
      4          6           0       -0.922356   -0.577159   -1.894603
      5          6           0       -0.187104    0.797228    0.083466
      6          6           0        0.707782    1.743241   -0.639092
      7          6           0       -1.504518    1.429500    0.363166
      8          6           0       -1.036367   -1.340693    0.502571
      9          6           0       -0.563181   -0.725133    1.825531
     10          6           0        0.434573    0.290022    1.393955
     11          6           0        1.628243   -0.467675    0.822702
     12          1           0        2.828656   -0.306770   -1.155892
     13          1           0        1.196109   -2.113809   -0.564316
     14          1           0       -1.945529   -1.048327   -1.818866
     15          1           0       -0.353505   -1.291899   -2.559489
     16          1           0       -1.021334    0.372263   -2.425153
     17          1           0        0.322476    2.797734   -0.513075
     18          1           0        1.752207    1.720400   -0.326854
     19          1           0        0.603401    1.541416   -1.733088
     20          1           0       -2.051490    1.667494   -0.555298
     21          1           0       -1.323200    2.382327    0.892540
     22          1           0       -2.176397    0.833684    1.000923
     23          1           0       -0.660822   -2.397316    0.406226
     24          1           0       -2.119211   -1.313686    0.393149
     25          1           0       -0.006732   -1.527789    2.380344
     26          1           0       -1.380448   -0.367860    2.442272
     27          1           0        0.685277    1.067176    2.083587
     28          1           0        1.828339   -1.340072    1.479451
     29          1           0        2.519066    0.147472    0.722558
 ---------------------------------------------------------------------
                    Distance matrix (angstroms):
                    1          2          3          4          5
     1  O    0.000000
     2  C    1.393355   0.000000
     3  C    2.396749   1.515935   0.000000
     4  C    2.857552   2.518495   1.458252   0.000000
     5  C    2.881981   2.333983   1.512789   2.518391   0.000000
     6  C    2.594726   2.801526   2.514295   3.101276   1.489245
     7  C    4.291464   3.715652   2.508037   3.076217   1.487810
     8  C    3.684794   2.430126   1.522011   2.518417   2.338291
     9  C    4.158827   2.918796   2.421727   3.740361   2.343887
    10  C    3.321418   2.429247   2.267597   3.661676   1.536594
    11  C    2.346781   1.534857   2.383667   3.728443   2.332795
    12  H    0.993821   1.936944   3.191598   3.832609   3.442329
    13  H    2.087446   1.093986   2.157120   2.935788   3.287406
    14  H    3.916411   3.349247   2.119502   1.128990   3.180723
    15  H    2.647831   2.540958   2.114955   1.129831   3.373033
    16  H    3.158230   3.200505   2.192726   1.092100   2.677630
    17  H    3.694327   3.906769   3.415011   3.853327   2.148850
    18  H    2.422814   2.815983   3.077394   3.858744   2.186672
    19  H    2.338999   2.885099   2.562831   2.615795   2.116266
    20  H    4.557922   4.176025   2.833564   2.847305   2.154372
    21  H    4.883635   4.435937   3.443718   4.085021   2.111363
    22  H    4.942121   4.097240   2.819631   3.456468   2.190969
    23  H    3.775997   2.451790   2.114912   2.945367   3.245565
    24  H    4.542769   3.401326   2.195228   2.684910   2.878350
    25  H    4.477538   3.164299   3.124729   4.474063   3.273207
    26  H    5.135485   3.948966   3.211778   4.366021   2.888852
    27  H    4.061586   3.372338   3.269599   4.595032   2.198728
    28  H    3.134418   2.141072   3.059882   4.419570   3.252512
    29  H    2.374649   2.194124   3.183008   4.383835   2.855517
                    6          7          8          9         10
     6  C    0.000000
     7  C    2.448923   0.000000
     8  C    3.722378   2.812929   0.000000
     9  C    3.712490   2.768947   1.533963   0.000000
    10  C    2.513915   2.474067   2.370118   1.487384   0.000000
    11  C    2.805751   3.691157   2.822196   2.423693   1.524888
    12  H    2.994617   4.909029   4.331039   4.535247   3.548170
    13  H    3.888559   4.550676   2.592278   3.276414   3.192674
    14  H    4.027999   3.330973   2.510204   3.911134   4.216430
    15  H    3.745174   4.156050   3.137657   4.426465   4.330503
    16  H    2.838915   3.020917   3.392051   4.413898   4.088033
    17  H    1.129733   2.444948   4.472647   4.320192   3.152451
    18  H    1.090338   3.341707   4.223077   3.996801   2.596791
    19  H    1.117343   2.974917   3.999195   4.377434   3.372371
    20  H    2.761583   1.095169   3.346453   3.688912   3.446379
    21  H    2.622826   1.104985   3.754361   3.332328   2.778295
    22  H    3.440266   1.101432   2.505182   2.390053   2.695776
    23  H    4.484415   3.918954   1.125508   2.195485   3.065499
    24  H    4.289780   2.811373   1.088694   2.195300   3.177311
    25  H    4.508565   3.880455   2.149694   1.123258   2.114746
    26  H    4.279282   2.751105   2.197097   1.084407   2.196834
    27  H    2.805450   2.808261   3.355816   2.199457   1.068837
    28  H    3.905213   4.474881   3.026687   2.493449   2.146416
    29  H    2.771519   4.238158   3.860587   3.387954   2.194585
                   11         12         13         14         15
    11  C    0.000000
    12  H    2.319853   0.000000
    13  H    2.195522   2.506105   0.000000
    14  H    4.481839   4.876708   3.546694   0.000000
    15  H    4.005732   3.614791   2.656606   1.772679   0.000000
    16  H    4.274847   4.110296   3.815799   1.799943   1.798187
    17  H    3.761944   4.041299   4.988899   4.652002   4.622754
    18  H    2.474776   2.440382   3.881597   4.854400   4.300305
    19  H    3.408638   2.949696   3.883040   3.634717   3.102625
    20  H    4.471942   5.298515   4.984499   2.997251   3.957012
    21  H    4.103463   5.353991   5.355799   4.416832   5.133882
    22  H    4.024995   5.568038   4.744627   3.398011   4.529633
    23  H    3.022712   4.357413   2.114361   2.901944   3.179914
    24  H    3.865703   5.281552   3.542356   2.234634   3.440387
    25  H    2.494641   4.694175   3.234388   4.649966   4.957605
    26  H    3.418361   5.537786   4.327419   4.351971   5.189034
    27  H    2.198814   4.120197   4.170252   5.160003   5.310599
    28  H    1.110151   3.002229   2.274943   5.020567   4.590839
    29  H    1.087198   1.957232   2.918844   5.274598   4.592960
                   16         17         18         19         20
    16  H    0.000000
    17  H    3.368201   0.000000
    18  H    3.729995   1.799849   0.000000
    19  H    2.117932   1.773608   1.824633   0.000000
    20  H    2.497039   2.629627   3.810918   2.907152   0.000000
    21  H    3.890831   2.203762   3.373899   3.363457   1.771335
    22  H    3.644870   3.520518   4.240659   3.962698   1.769934
    23  H    3.977090   5.366613   4.828633   4.657095   4.402405
    24  H    3.462742   4.866914   4.971113   4.481641   3.129149
    25  H    5.266158   5.214442   4.579685   5.168424   4.796755
    26  H    4.936453   4.653495   4.673587   5.001462   3.684887
    27  H    4.870745   3.141514   2.715744   3.846897   3.848895
    28  H    5.128222   4.833138   3.554578   4.485962   5.314013
    29  H    4.742684   3.657278   2.040451   3.412191   4.983309
                   21         22         23         24         25
    21  H    0.000000
    22  H    1.771436   0.000000
    23  H    4.849766   3.618010   0.000000
    24  H    3.813599   2.232455   1.816954   0.000000
    25  H    4.385847   3.490960   2.254119   2.908153   0.000000
    26  H    3.157289   2.038315   2.963450   2.374713   1.798990
    27  H    2.679962   3.068527   4.077772   4.048609   2.701996
    28  H    4.912527   4.581715   2.909553   4.094374   2.052884
    29  H    4.448199   4.753498   4.085058   4.874126   3.454621
                   26         27         28         29
    26  H    0.000000
    27  H    2.540709   0.000000
    28  H    3.488343   2.732474   0.000000
    29  H    4.292924   2.461917   1.806316   0.000000
 Stoichiometry    C10H18O
 Framework group  C1[X(C10H18O)]
 Deg. of freedom    81
 Full point group                 C1      NOp   1
 Largest Abelian subgroup         C1      NOp   1
 Largest concise Abelian subgroup C1      NOp   1
                         Standard orientation:                         
 ---------------------------------------------------------------------
 Center     Atomic      Atomic             Coordinates (Angstroms)
 Number     Number       Type             X           Y           Z
 ---------------------------------------------------------------------
      1          8           0       -2.329373   -0.052799   -0.019217
      2          6           0       -1.211338   -0.688854    0.516384
      3          6           0       -0.098584    0.306253    0.780200
      4          6           0       -0.485961    1.511316    1.504259
      5          6           0        0.430538    0.518621   -0.621036
      6          6           0       -0.577509    1.076037   -1.564953
      7          6           0        1.687214    1.313918   -0.664026
      8          6           0        1.043716   -0.486551    1.399173
      9          6           0        1.628708   -1.302778    0.239605
     10          6           0        0.741093   -0.959522   -0.903472
     11          6           0       -0.628485   -1.559875   -0.604949
     12          1           0       -2.786033   -0.707431   -0.611332
     13          1           0       -1.427910   -1.267946    1.418911
     14          1           0        0.265793    1.714573    2.321677
     15          1           0       -1.441249    1.307117    2.071925
     16          1           0       -0.623600    2.429928    0.929900
     17          1           0       -0.061386    1.740666   -2.318732
     18          1           0       -1.162605    0.332809   -2.107275
     19          1           0       -1.234169    1.772507   -0.988600
     20          1           0        1.536844    2.342421   -0.319110
     21          1           0        2.024817    1.366992   -1.714835
     22          1           0        2.521423    0.890775   -0.082479
     23          1           0        0.553804   -1.167887    2.149197
     24          1           0        1.789315    0.138440    1.887766
     25          1           0        1.458985   -2.386214    0.482649
     26          1           0        2.689965   -1.132747    0.095512
     27          1           0        1.105971   -1.144362   -1.890950
     28          1           0       -0.474525   -2.574292   -0.181053
     29          1           0       -1.276826   -1.604347   -1.476544
 ---------------------------------------------------------------------
 Rotational constants (GHZ):      1.4933191      1.2481026      1.1749407
 General basis read from cards:  (5D, 7F)
 There are   504 symmetry adapted cartesian basis functions of A   symmetry.
 There are   449 symmetry adapted basis functions of A   symmetry.
   449 basis functions,   705 primitive gaussians,   504 cartesian basis functions
    43 alpha electrons       43 beta electrons
       nuclear repulsion energy       737.8593129822 Hartrees.
 NAtoms=   29 NActive=   29 NUniq=   29 SFac= 1.00D+00 NAtFMM=   60 NAOKFM=F Big=F
 Integral buffers will be    131072 words long.
 Raffenetti 2 integral format.
 Two-electron integral symmetry is turned on.
 Nuclear repulsion after empirical dispersion term =      737.8265796315 Hartrees.
 One-electron integrals computed using PRISM.
 NBasis=   449 RedAO= T EigKep=  1.13D-05  NBF=   449
 NBsUse=   449 1.00D-06 EigRej= -1.00D+00 NBFU=   449
 ExpMin= 9.52D-02 ExpMax= 2.70D+04 ExpMxC= 9.22D+02 IAcc=3 IRadAn=         7 AccDes= 0.00D+00
 Harris functional with IExCor=  402 and IRadAn=       7 diagonalized for initial guess.
 HarFok:  IExCor=  402 AccDes= 0.00D+00 IRadAn=         7 IDoV= 1 UseB2=F ITyADJ=14
 ICtDFT=  3500011 ScaDFX=  1.000000  1.000000  1.000000  1.000000
 FoFCou: FMM=F IPFlag=           0 FMFlag=      100000 FMFlg1=           0
         NFxFlg=           0 DoJE=T BraDBF=F KetDBF=T FulRan=T
         wScrn=  0.000000 ICntrl=     500 IOpCl=  0 I1Cent=   200000004 NGrid=           0
         NMat0=    1 NMatS0=      1 NMatT0=    0 NMatD0=    1 NMtDS0=    0 NMtDT0=    0
 Petite list used in FoFCou.
 Requested convergence on RMS density matrix=1.00D-08 within 128 cycles.
 Requested convergence on MAX density matrix=1.00D-06.
 Requested convergence on             energy=1.00D-06.
 No special actions if energy rises.
 Integral accuracy reduced to 1.0D-05 until final iterations.
 Initial convergence to 1.0D-05 achieved.  Increase integral accuracy.
 SCF Done:  E(RB3LYP) =  -467.280894348     A.U. after   13 cycles
            NFock= 13  Conv=0.61D-08     -V/T= 2.0040

 **********************************************************************

            Population analysis using the SCF density.

 **********************************************************************

 Orbital symmetries:
       Occupied  (A) (A) (A) (A) (A) (A) (A) (A) (A) (A) (A) (A)
                 (A) (A) (A) (A) (A) (A) (A) (A) (A) (A) (A) (A)
                 (A) (A) (A) (A) (A) (A) (A) (A) (A) (A) (A) (A)
                 (A) (A) (A) (A) (A) (A) (A)
       Virtual   (A) (A) (A) (A) (A) (A) (A) (A) (A) (A) (A) (A)
                 (A) (A) (A) (A) (A) (A) (A) (A) (A) (A) (A) (A)
                 (A) (A) (A) (A) (A) (A) (A) (A) (A) (A) (A) (A)
                 (A) (A) (A) (A) (A) (A) (A) (A) (A) (A) (A) (A)
                 (A) (A) (A) (A) (A) (A) (A) (A) (A) (A) (A) (A)
                 (A) (A) (A) (A) (A) (A) (A) (A) (A) (A) (A) (A)
                 (A) (A) (A) (A) (A) (A) (A) (A) (A) (A) (A) (A)
                 (A) (A) (A) (A) (A) (A) (A) (A) (A) (A) (A) (A)
                 (A) (A) (A) (A) (A) (A) (A) (A) (A) (A) (A) (A)
                 (A) (A) (A) (A) (A) (A) (A) (A) (A) (A) (A) (A)
                 (A) (A) (A) (A) (A) (A) (A) (A) (A) (A) (A) (A)
                 (A) (A) (A) (A) (A) (A) (A) (A) (A) (A) (A) (A)
                 (A) (A) (A) (A) (A) (A) (A) (A) (A) (A) (A) (A)
                 (A) (A) (A) (A) (A) (A) (A) (A) (A) (A) (A) (A)
                 (A) (A) (A) (A) (A) (A) (A) (A) (A) (A) (A) (A)
                 (A) (A) (A) (A) (A) (A) (A) (A) (A) (A) (A) (A)
                 (A) (A) (A) (A) (A) (A) (A) (A) (A) (A) (A) (A)
                 (A) (A) (A) (A) (A) (A) (A) (A) (A) (A) (A) (A)
                 (A) (A) (A) (A) (A) (A) (A) (A) (A) (A) (A) (A)
                 (A) (A) (A) (A) (A) (A) (A) (A) (A) (A) (A) (A)
                 (A) (A) (A) (A) (A) (A) (A) (A) (A) (A) (A) (A)
                 (A) (A) (A) (A) (A) (A) (A) (A) (A) (A) (A) (A)
                 (A) (A) (A) (A) (A) (A) (A) (A) (A) (A) (A) (A)
                 (A) (A) (A) (A) (A) (A) (A) (A) (A) (A) (A) (A)
                 (A) (A) (A) (A) (A) (A) (A) (A) (A) (A) (A) (A)
                 (A) (A) (A) (A) (A) (A) (A) (A) (A) (A) (A) (A)
                 (A) (A) (A) (A) (A) (A) (A) (A) (A) (A) (A) (A)
                 (A) (A) (A) (A) (A) (A) (A) (A) (A) (A) (A) (A)
                 (A) (A) (A) (A) (A) (A) (A) (A) (A) (A) (A) (A)
                 (A) (A) (A) (A) (A) (A) (A) (A) (A) (A) (A) (A)
                 (A) (A) (A) (A) (A) (A) (A) (A) (A) (A) (A) (A)
                 (A) (A) (A) (A) (A) (A) (A) (A) (A) (A) (A) (A)
                 (A) (A) (A) (A) (A) (A) (A) (A) (A) (A) (A) (A)
                 (A) (A) (A) (A) (A) (A) (A) (A) (A) (A)
 The electronic state is 1-A.
 Alpha  occ. eigenvalues --  -19.12240 -10.21182 -10.16462 -10.16345 -10.16168
 Alpha  occ. eigenvalues --  -10.16119 -10.16046 -10.16024 -10.15547 -10.15147
 Alpha  occ. eigenvalues --  -10.14576  -1.03233  -0.89816  -0.77283  -0.76865
 Alpha  occ. eigenvalues --   -0.74346  -0.67428  -0.66944  -0.63193  -0.61316
 Alpha  occ. eigenvalues --   -0.55220  -0.51736  -0.50879  -0.48561  -0.48263
 Alpha  occ. eigenvalues --   -0.46412  -0.43569  -0.42517  -0.40933  -0.40457
 Alpha  occ. eigenvalues --   -0.38938  -0.38017  -0.37529  -0.36244  -0.35844
 Alpha  occ. eigenvalues --   -0.34204  -0.33875  -0.32841  -0.31721  -0.30588
 Alpha  occ. eigenvalues --   -0.30049  -0.27994  -0.26177
 Alpha virt. eigenvalues --    0.02148   0.03626   0.04138   0.05300   0.06295
 Alpha virt. eigenvalues --    0.07998   0.08772   0.09168   0.09438   0.10454
 Alpha virt. eigenvalues --    0.10891   0.11382   0.12503   0.12814   0.13376
 Alpha virt. eigenvalues --    0.14186   0.14878   0.15753   0.16257   0.17171
 Alpha virt. eigenvalues --    0.17556   0.18580   0.19324   0.19755   0.21346
 Alpha virt. eigenvalues --    0.21872   0.23439   0.23530   0.24233   0.25059
 Alpha virt. eigenvalues --    0.25943   0.27504   0.29053   0.29569   0.30003
 Alpha virt. eigenvalues --    0.30371   0.32343   0.32909   0.34250   0.34641
 Alpha virt. eigenvalues --    0.35039   0.36239   0.36776   0.37150   0.38090
 Alpha virt. eigenvalues --    0.38837   0.39055   0.39824   0.41219   0.41631
 Alpha virt. eigenvalues --    0.42459   0.42703   0.43216   0.43439   0.44179
 Alpha virt. eigenvalues --    0.44366   0.44834   0.45144   0.46357   0.46789
 Alpha virt. eigenvalues --    0.46854   0.47404   0.48064   0.48874   0.49113
 Alpha virt. eigenvalues --    0.49825   0.50679   0.51714   0.51904   0.52631
 Alpha virt. eigenvalues --    0.53386   0.53559   0.55110   0.56236   0.57910
 Alpha virt. eigenvalues --    0.59103   0.60946   0.61787   0.62127   0.63594
 Alpha virt. eigenvalues --    0.64500   0.65077   0.66556   0.68892   0.71739
 Alpha virt. eigenvalues --    0.73719   0.74914   0.76822   0.78592   0.79680
 Alpha virt. eigenvalues --    0.81061   0.81500   0.84383   0.84625   0.86222
 Alpha virt. eigenvalues --    0.88478   0.90419   0.91813   0.92250   0.92352
 Alpha virt. eigenvalues --    0.96152   0.96593   0.97807   0.98238   0.99809
 Alpha virt. eigenvalues --    1.01693   1.03057   1.03656   1.04874   1.06660
 Alpha virt. eigenvalues --    1.07617   1.08812   1.09026   1.11158   1.11511
 Alpha virt. eigenvalues --    1.13841   1.14054   1.15122   1.16498   1.18838
 Alpha virt. eigenvalues --    1.20230   1.20555   1.21779   1.23389   1.24997
 Alpha virt. eigenvalues --    1.26109   1.27298   1.28842   1.30553   1.31586
 Alpha virt. eigenvalues --    1.33051   1.33430   1.34969   1.37552   1.38740
 Alpha virt. eigenvalues --    1.39459   1.40937   1.41623   1.45471   1.46103
 Alpha virt. eigenvalues --    1.50053   1.51066   1.52825   1.53205   1.54847
 Alpha virt. eigenvalues --    1.56393   1.57181   1.57822   1.58533   1.59876
 Alpha virt. eigenvalues --    1.60670   1.61671   1.62135   1.63188   1.64301
 Alpha virt. eigenvalues --    1.65357   1.66907   1.67455   1.67812   1.68704
 Alpha virt. eigenvalues --    1.70769   1.71842   1.73227   1.74099   1.76369
 Alpha virt. eigenvalues --    1.78857   1.79332   1.83372   1.83592   1.85112
 Alpha virt. eigenvalues --    1.86909   1.88652   1.90580   1.91438   1.93274
 Alpha virt. eigenvalues --    1.95490   1.96599   1.97901   1.99024   2.01883
 Alpha virt. eigenvalues --    2.02433   2.03395   2.05608   2.07282   2.10245
 Alpha virt. eigenvalues --    2.10824   2.12463   2.12695   2.16061   2.16275
 Alpha virt. eigenvalues --    2.17849   2.18379   2.18776   2.20685   2.21984
 Alpha virt. eigenvalues --    2.23467   2.24899   2.26410   2.26752   2.27794
 Alpha virt. eigenvalues --    2.29642   2.31277   2.32067   2.33882   2.35438
 Alpha virt. eigenvalues --    2.36281   2.37655   2.38745   2.40347   2.40846
 Alpha virt. eigenvalues --    2.42104   2.43331   2.45698   2.46037   2.46412
 Alpha virt. eigenvalues --    2.49230   2.49671   2.50510   2.52387   2.53268
 Alpha virt. eigenvalues --    2.54042   2.56159   2.57278   2.57607   2.58843
 Alpha virt. eigenvalues --    2.59609   2.60882   2.62354   2.62923   2.63470
 Alpha virt. eigenvalues --    2.64488   2.64892   2.67208   2.68282   2.68736
 Alpha virt. eigenvalues --    2.70456   2.72008   2.72580   2.73795   2.74747
 Alpha virt. eigenvalues --    2.77562   2.78238   2.79214   2.79522   2.83384
 Alpha virt. eigenvalues --    2.83780   2.85472   2.87490   2.88086   2.91165
 Alpha virt. eigenvalues --    2.91974   2.93212   2.94876   2.97018   2.98107
 Alpha virt. eigenvalues --    2.99862   3.00916   3.03226   3.03923   3.05104
 Alpha virt. eigenvalues --    3.05605   3.06524   3.09008   3.09939   3.11510
 Alpha virt. eigenvalues --    3.13247   3.13822   3.14377   3.14649   3.16781
 Alpha virt. eigenvalues --    3.18699   3.19875   3.22326   3.23316   3.23633
 Alpha virt. eigenvalues --    3.24903   3.26043   3.27079   3.27687   3.29902
 Alpha virt. eigenvalues --    3.30058   3.31858   3.33326   3.34216   3.35200
 Alpha virt. eigenvalues --    3.36544   3.37020   3.39668   3.39882   3.42282
 Alpha virt. eigenvalues --    3.43732   3.44791   3.45393   3.46088   3.47404
 Alpha virt. eigenvalues --    3.48523   3.50432   3.52004   3.53559   3.54510
 Alpha virt. eigenvalues --    3.56699   3.59046   3.60451   3.61903   3.63446
 Alpha virt. eigenvalues --    3.64445   3.65338   3.67301   3.70875   3.71272
 Alpha virt. eigenvalues --    3.72252   3.74171   3.75100   3.75732   3.77072
 Alpha virt. eigenvalues --    3.78666   3.81462   3.83129   3.86737   3.87498
 Alpha virt. eigenvalues --    3.88703   3.92174   3.93269   3.94571   3.95622
 Alpha virt. eigenvalues --    3.96919   3.99392   4.00605   4.02284   4.04072
 Alpha virt. eigenvalues --    4.05809   4.06667   4.10952   4.11607   4.13357
 Alpha virt. eigenvalues --    4.16328   4.17535   4.17918   4.18999   4.21718
 Alpha virt. eigenvalues --    4.24259   4.25989   4.27137   4.28194   4.30235
 Alpha virt. eigenvalues --    4.31373   4.31818   4.34619   4.35457   4.38745
 Alpha virt. eigenvalues --    4.39464   4.40976   4.41757   4.45088   4.47912
 Alpha virt. eigenvalues --    4.48939   4.50890   4.54115   4.57227   4.58158
 Alpha virt. eigenvalues --    4.60115   4.65091   4.69004   4.71988   4.72644
 Alpha virt. eigenvalues --    4.75545   4.79481   4.81455   4.84653   4.87323
 Alpha virt. eigenvalues --    4.88848   4.92639   4.95609   5.00117   5.02350
 Alpha virt. eigenvalues --    5.03924   5.07364   5.12683   5.16479   5.22055
 Alpha virt. eigenvalues --    5.24280   5.31884   5.37292   5.41829   5.43047
 Alpha virt. eigenvalues --    5.53195   5.80389   5.90647   6.01130   6.25862
 Alpha virt. eigenvalues --    6.52730   6.78988   6.86754   7.04539   7.19912
 Alpha virt. eigenvalues --   22.42380  22.47860  22.50514  22.58452  22.61401
 Alpha virt. eigenvalues --   22.65656  22.73035  22.80571  23.01350  23.25411
 Alpha virt. eigenvalues --   44.22299
          Condensed to atoms (all electrons):
               1          2          3          4          5          6
     1  O    8.072865   0.339134  -0.078012   0.012064  -0.026310  -0.029645
     2  C    0.339134   5.268709  -0.145482  -0.066785  -0.018093  -0.052640
     3  C   -0.078012  -0.145482   5.894404   0.123547   0.193541  -0.030424
     4  C    0.012064  -0.066785   0.123547   5.152713  -0.007831  -0.015705
     5  C   -0.026310  -0.018093   0.193541  -0.007831   5.301687   0.278069
     6  C   -0.029645  -0.052640  -0.030424  -0.015705   0.278069   5.093910
     7  C   -0.007150  -0.036550  -0.056841   0.010353   0.227030  -0.057420
     8  C   -0.003343   0.021581   0.212896  -0.078052   0.014501   0.009446
     9  C    0.000355  -0.020985  -0.081346   0.025283  -0.012003   0.010991
    10  C    0.026511  -0.004003   0.032988  -0.018523   0.245372  -0.081265
    11  C   -0.089570   0.293956  -0.022206   0.023918   0.002627  -0.002420
    12  H    0.288674  -0.059337   0.024115  -0.002329   0.001606   0.000109
    13  H   -0.049576   0.530831  -0.147025  -0.000897  -0.005333  -0.000930
    14  H    0.000114   0.006364  -0.042622   0.416991  -0.011768   0.001016
    15  H    0.004931  -0.030638  -0.046295   0.421599   0.007352   0.000704
    16  H   -0.001531  -0.005970  -0.051271   0.415413   0.007184  -0.003292
    17  H    0.005858   0.010550   0.012855  -0.001913  -0.044667   0.384915
    18  H    0.001483   0.000770  -0.026010   0.000975  -0.014553   0.399312
    19  H   -0.005982  -0.008157  -0.010923   0.004710  -0.042116   0.411289
    20  H    0.000112   0.002656  -0.016612   0.000696  -0.044567  -0.003488
    21  H    0.000113  -0.000436   0.022526  -0.001455  -0.059326  -0.019381
    22  H    0.000012   0.000770  -0.014448   0.000028  -0.028887   0.014345
    23  H    0.000808  -0.006872  -0.031513   0.015114   0.010302  -0.000312
    24  H   -0.000280  -0.000471  -0.022391  -0.016189  -0.011463  -0.000715
    25  H   -0.000016  -0.000078  -0.010758  -0.001777   0.006018  -0.000583
    26  H    0.000101   0.000293   0.011910   0.000082  -0.001996  -0.000111
    27  H    0.000198   0.006325   0.006902  -0.000584  -0.052777   0.005443
    28  H    0.009798  -0.015912  -0.007214  -0.001376   0.003231   0.000307
    29  H   -0.022447  -0.020373  -0.001646  -0.000837   0.001680  -0.012043
               7          8          9         10         11         12
     1  O   -0.007150  -0.003343   0.000355   0.026511  -0.089570   0.288674
     2  C   -0.036550   0.021581  -0.020985  -0.004003   0.293956  -0.059337
     3  C   -0.056841   0.212896  -0.081346   0.032988  -0.022206   0.024115
     4  C    0.010353  -0.078052   0.025283  -0.018523   0.023918  -0.002329
     5  C    0.227030   0.014501  -0.012003   0.245372   0.002627   0.001606
     6  C   -0.057420   0.009446   0.010991  -0.081265  -0.002420   0.000109
     7  C    5.201773   0.005312  -0.005689  -0.116330   0.035782   0.000197
     8  C    0.005312   5.184601   0.341866  -0.146205   0.026078  -0.001450
     9  C   -0.005689   0.341866   5.055681   0.196174   0.052793  -0.000134
    10  C   -0.116330  -0.146205   0.196174   5.424670   0.072942   0.002563
    11  C    0.035782   0.026078   0.052793   0.072942   5.253325  -0.011851
    12  H    0.000197  -0.001450  -0.000134   0.002563  -0.011851   0.458684
    13  H   -0.003192  -0.022294   0.001055   0.017493  -0.082116  -0.004322
    14  H    0.003614  -0.029352   0.002638  -0.000573  -0.001228   0.000055
    15  H    0.001077   0.000230  -0.000583  -0.002650   0.003202  -0.000713
    16  H   -0.004827   0.009241  -0.001614   0.001692  -0.000003   0.000252
    17  H   -0.045745  -0.001673   0.000483   0.004503  -0.003887  -0.000470
    18  H    0.010053   0.000664  -0.002149  -0.016135   0.005864   0.001600
    19  H    0.003824  -0.000038  -0.000463   0.009219  -0.000353  -0.000552
    20  H    0.405832   0.000814  -0.002420   0.020780  -0.002194   0.000008
    21  H    0.419041  -0.001823   0.000314  -0.008588   0.000008  -0.000009
    22  H    0.411940  -0.000427   0.005360  -0.023677  -0.000401  -0.000008
    23  H   -0.001413   0.331748   0.002102  -0.004562  -0.008962  -0.000104
    24  H   -0.000591   0.428947  -0.055741   0.013686   0.001169   0.000062
    25  H   -0.000399   0.000099   0.334380   0.004984  -0.027248   0.000002
    26  H   -0.006507  -0.057994   0.435736  -0.038997   0.002599  -0.000003
    27  H    0.001003   0.016349  -0.048487   0.411361  -0.034508  -0.000034
    28  H   -0.001521  -0.007457  -0.024965   0.025212   0.317807   0.002336
    29  H   -0.000912   0.001498   0.003315  -0.036633   0.412655   0.004807
              13         14         15         16         17         18
     1  O   -0.049576   0.000114   0.004931  -0.001531   0.005858   0.001483
     2  C    0.530831   0.006364  -0.030638  -0.005970   0.010550   0.000770
     3  C   -0.147025  -0.042622  -0.046295  -0.051271   0.012855  -0.026010
     4  C   -0.000897   0.416991   0.421599   0.415413  -0.001913   0.000975
     5  C   -0.005333  -0.011768   0.007352   0.007184  -0.044667  -0.014553
     6  C   -0.000930   0.001016   0.000704  -0.003292   0.384915   0.399312
     7  C   -0.003192   0.003614   0.001077  -0.004827  -0.045745   0.010053
     8  C   -0.022294  -0.029352   0.000230   0.009241  -0.001673   0.000664
     9  C    0.001055   0.002638  -0.000583  -0.001614   0.000483  -0.002149
    10  C    0.017493  -0.000573  -0.002650   0.001692   0.004503  -0.016135
    11  C   -0.082116  -0.001228   0.003202  -0.000003  -0.003887   0.005864
    12  H   -0.004322   0.000055  -0.000713   0.000252  -0.000470   0.001600
    13  H    0.692673  -0.000052   0.002620  -0.000633   0.000364   0.000265
    14  H   -0.000052   0.606627  -0.030657  -0.027651  -0.000031  -0.000006
    15  H    0.002620  -0.030657   0.574143  -0.021132   0.000047  -0.000057
    16  H   -0.000633  -0.027651  -0.021132   0.558111  -0.000841  -0.000103
    17  H    0.000364  -0.000031   0.000047  -0.000841   0.652621  -0.030981
    18  H    0.000265  -0.000006  -0.000057  -0.000103  -0.030981   0.605595
    19  H   -0.000355   0.000080  -0.000571   0.006807  -0.034889  -0.014443
    20  H    0.000019  -0.001117  -0.000213   0.003855  -0.000536  -0.000065
    21  H    0.000071   0.000049   0.000036  -0.000285   0.007803   0.000744
    22  H    0.000028  -0.000145  -0.000054   0.000050   0.001674  -0.000615
    23  H    0.016820   0.000596   0.000983  -0.000554   0.000074   0.000027
    24  H   -0.000171   0.007522  -0.000075   0.000778   0.000009   0.000008
    25  H    0.000840  -0.000056   0.000018   0.000054   0.000034  -0.000179
    26  H   -0.000060  -0.000253   0.000017   0.000031  -0.000001   0.000003
    27  H   -0.000226   0.000014   0.000025  -0.000089   0.001278   0.002022
    28  H   -0.008757   0.000009  -0.000238   0.000054   0.000082   0.000567
    29  H    0.004958   0.000055  -0.000042   0.000024   0.000353   0.001249
              19         20         21         22         23         24
     1  O   -0.005982   0.000112   0.000113   0.000012   0.000808  -0.000280
     2  C   -0.008157   0.002656  -0.000436   0.000770  -0.006872  -0.000471
     3  C   -0.010923  -0.016612   0.022526  -0.014448  -0.031513  -0.022391
     4  C    0.004710   0.000696  -0.001455   0.000028   0.015114  -0.016189
     5  C   -0.042116  -0.044567  -0.059326  -0.028887   0.010302  -0.011463
     6  C    0.411289  -0.003488  -0.019381   0.014345  -0.000312  -0.000715
     7  C    0.003824   0.405832   0.419041   0.411940  -0.001413  -0.000591
     8  C   -0.000038   0.000814  -0.001823  -0.000427   0.331748   0.428947
     9  C   -0.000463  -0.002420   0.000314   0.005360   0.002102  -0.055741
    10  C    0.009219   0.020780  -0.008588  -0.023677  -0.004562   0.013686
    11  C   -0.000353  -0.002194   0.000008  -0.000401  -0.008962   0.001169
    12  H   -0.000552   0.000008  -0.000009  -0.000008  -0.000104   0.000062
    13  H   -0.000355   0.000019   0.000071   0.000028   0.016820  -0.000171
    14  H    0.000080  -0.001117   0.000049  -0.000145   0.000596   0.007522
    15  H   -0.000571  -0.000213   0.000036  -0.000054   0.000983  -0.000075
    16  H    0.006807   0.003855  -0.000285   0.000050  -0.000554   0.000778
    17  H   -0.034889  -0.000536   0.007803   0.001674   0.000074   0.000009
    18  H   -0.014443  -0.000065   0.000744  -0.000615   0.000027   0.000008
    19  H    0.566349   0.002266   0.000100  -0.000760  -0.000121  -0.000033
    20  H    0.002266   0.576356  -0.025747  -0.026188  -0.000076   0.000191
    21  H    0.000100  -0.025747   0.582370  -0.027556   0.000062   0.000229
    22  H   -0.000760  -0.026188  -0.027556   0.585330   0.000411  -0.002462
    23  H   -0.000121  -0.000076   0.000062   0.000411   0.649450  -0.024382
    24  H   -0.000033   0.000191   0.000229  -0.002462  -0.024382   0.580715
    25  H    0.000066   0.000069  -0.000077   0.000470  -0.021485   0.006226
    26  H    0.000003   0.000418   0.000263  -0.001705   0.006383  -0.014462
    27  H   -0.000831  -0.000759   0.004946   0.000486  -0.000584  -0.000202
    28  H   -0.000187   0.000067   0.000013  -0.000110   0.001328  -0.000094
    29  H    0.000712   0.000037  -0.000028  -0.000007  -0.000333   0.000154
              25         26         27         28         29
     1  O   -0.000016   0.000101   0.000198   0.009798  -0.022447
     2  C   -0.000078   0.000293   0.006325  -0.015912  -0.020373
     3  C   -0.010758   0.011910   0.006902  -0.007214  -0.001646
     4  C   -0.001777   0.000082  -0.000584  -0.001376  -0.000837
     5  C    0.006018  -0.001996  -0.052777   0.003231   0.001680
     6  C   -0.000583  -0.000111   0.005443   0.000307  -0.012043
     7  C   -0.000399  -0.006507   0.001003  -0.001521  -0.000912
     8  C    0.000099  -0.057994   0.016349  -0.007457   0.001498
     9  C    0.334380   0.435736  -0.048487  -0.024965   0.003315
    10  C    0.004984  -0.038997   0.411361   0.025212  -0.036633
    11  C   -0.027248   0.002599  -0.034508   0.317807   0.412655
    12  H    0.000002  -0.000003  -0.000034   0.002336   0.004807
    13  H    0.000840  -0.000060  -0.000226  -0.008757   0.004958
    14  H   -0.000056  -0.000253   0.000014   0.000009   0.000055
    15  H    0.000018   0.000017   0.000025  -0.000238  -0.000042
    16  H    0.000054   0.000031  -0.000089   0.000054   0.000024
    17  H    0.000034  -0.000001   0.001278   0.000082   0.000353
    18  H   -0.000179   0.000003   0.002022   0.000567   0.001249
    19  H    0.000066   0.000003  -0.000831  -0.000187   0.000712
    20  H    0.000069   0.000418  -0.000759   0.000067   0.000037
    21  H   -0.000077   0.000263   0.004946   0.000013  -0.000028
    22  H    0.000470  -0.001705   0.000486  -0.000110  -0.000007
    23  H   -0.021485   0.006383  -0.000584   0.001328  -0.000333
    24  H    0.006226  -0.014462  -0.000202  -0.000094   0.000154
    25  H    0.663303  -0.026276   0.001988   0.009433   0.001788
    26  H   -0.026276   0.585975  -0.005173   0.001767  -0.000711
    27  H    0.001988  -0.005173   0.617046   0.002862  -0.005776
    28  H    0.009433   0.001767   0.002862   0.655870  -0.024661
    29  H    0.001788  -0.000711  -0.005776  -0.024661   0.603131
 Mulliken charges:
               1
     1  O   -0.449268
     2  C    0.010842
     3  C    0.307355
     4  C   -0.409232
     5  C    0.081491
     6  C   -0.299483
     7  C   -0.391742
     8  C   -0.255761
     9  C   -0.211944
    10  C   -0.012007
    11  C   -0.217781
    12  H    0.296246
    13  H    0.057901
    14  H    0.099767
    15  H    0.116938
    16  H    0.116250
    17  H    0.082129
    18  H    0.074096
    19  H    0.115347
    20  H    0.109806
    21  H    0.106026
    22  H    0.106545
    23  H    0.065062
    24  H    0.110029
    25  H    0.059160
    26  H    0.108668
    27  H    0.071780
    28  H    0.061748
    29  H    0.090031
 Sum of Mulliken charges =   0.00000
 Mulliken charges with hydrogens summed into heavy atoms:
               1
     1  O   -0.153022
     2  C    0.068744
     3  C    0.307355
     4  C   -0.076277
     5  C    0.081491
     6  C   -0.027911
     7  C   -0.069365
     8  C   -0.080670
     9  C   -0.044116
    10  C    0.059773
    11  C   -0.066002
 Electronic spatial extent (au):  <R**2>=           1438.9996
 Charge=              0.0000 electrons
 Dipole moment (field-independent basis, Debye):
    X=              0.3619    Y=             -1.2962    Z=             -0.4276  Tot=              1.4121
 Quadrupole moment (field-independent basis, Debye-Ang):
   XX=            -71.6391   YY=            -71.4038   ZZ=            -71.0240
   XY=              3.7553   XZ=              2.2303   YZ=              1.1050
 Traceless Quadrupole moment (field-independent basis, Debye-Ang):
   XX=             -0.2834   YY=             -0.0482   ZZ=              0.3316
   XY=              3.7553   XZ=              2.2303   YZ=              1.1050
 Octapole moment (field-independent basis, Debye-Ang**2):
  XXX=            -10.4734  YYY=             -0.0364  ZZZ=             -2.4752  XYY=             -7.8295
  XXY=            -10.0771  XXZ=             -7.3505  XZZ=             -5.4690  YZZ=             -3.8141
  YYZ=              0.8955  XYZ=             -1.2495
 Hexadecapole moment (field-independent basis, Debye-Ang**3):
 XXXX=           -747.5758 YYYY=           -660.7481 ZZZZ=           -586.1572 XXXY=             28.1887
 XXXZ=             30.2200 YYYX=              2.2036 YYYZ=             -2.7659 ZZZX=             -2.1878
 ZZZY=              6.0766 XXYY=           -239.8951 XXZZ=           -215.9628 YYZZ=           -211.4719
 XXYZ=             10.8419 YYXZ=              0.7856 ZZXY=              8.1408
 N-N= 7.378265796315D+02 E-N=-2.561764498205D+03  KE= 4.653994810434D+02
 Calling FoFJK, ICntrl=      2127 FMM=F ISym2X=0 I1Cent= 0 IOpClX= 0 NMat=1 NMatS=1 NMatT=0.
 ***** Axes restored to original set *****
 -------------------------------------------------------------------
 Center     Atomic                   Forces (Hartrees/Bohr)
 Number     Number              X              Y              Z
 -------------------------------------------------------------------
      1        8           0.038639643   -0.010523428   -0.022651851
      2        6           0.009661516    0.005578603    0.015527260
      3        6           0.001716629    0.010757377    0.017144506
      4        6          -0.026176679   -0.043907702   -0.046877934
      5        6           0.001168910    0.011143468    0.021273213
      6        6          -0.011904826    0.047313505   -0.030374584
      7        6          -0.025976551    0.021768330    0.005882488
      8        6           0.009045056   -0.035227393   -0.002427820
      9        6           0.010197188   -0.042676004    0.026854912
     10        6           0.006964687    0.008494540   -0.021945298
     11        6           0.001390154   -0.034552992    0.033636329
     12        1          -0.025944305   -0.003618113   -0.014644317
     13        1           0.003913623   -0.002657479   -0.005034713
     14        1           0.015346226    0.013649734   -0.005019177
     15        1          -0.010909051    0.016656334    0.006565981
     16        1           0.003089970   -0.000855224    0.003314867
     17        1           0.010724505   -0.016654934    0.001276217
     18        1          -0.005248169    0.002267185   -0.006266000
     19        1           0.011173066    0.008584061    0.015803147
     20        1           0.000485096    0.000821231    0.000681298
     21        1          -0.004824139   -0.005374615   -0.003290661
     22        1           0.004487978    0.005314895   -0.007512307
     23        1          -0.017567787    0.012130823    0.005236989
     24        1           0.001579507   -0.002198595   -0.002724677
     25        1          -0.015719859    0.013759834    0.001888284
     26        1           0.000609619    0.001969760    0.002148290
     27        1           0.002966039    0.007976114    0.012006458
     28        1           0.009364148    0.012550083   -0.001788795
     29        1           0.001747804   -0.002489398    0.001317895
 -------------------------------------------------------------------
 Cartesian Forces:  Max     0.047313505 RMS     0.016621877

 GradGradGradGradGradGradGradGradGradGradGradGradGradGradGradGradGradGrad
 Berny optimization.
 FormGI is forming the generalized inverse of G from B-inverse, IUseBI=4.
 Internal  Forces:  Max     0.046127821 RMS     0.010288066
 Search for a local minimum.
 Step number   1 out of a maximum of  174
 All quantities printed in internal units (Hartrees-Bohrs-Radians)
 Mixed Optimization -- RFO/linear search
 Second derivative matrix not updated -- first step.
 ITU=  0
     Eigenvalues ---    0.00508   0.00865   0.00908   0.00927   0.01318
     Eigenvalues ---    0.01780   0.01896   0.02489   0.02870   0.03321
     Eigenvalues ---    0.03619   0.04049   0.04176   0.04267   0.04763
     Eigenvalues ---    0.04880   0.05360   0.05419   0.05435   0.05460
     Eigenvalues ---    0.05513   0.05686   0.05851   0.06090   0.06093
     Eigenvalues ---    0.06354   0.06470   0.06496   0.06712   0.06975
     Eigenvalues ---    0.07026   0.07279   0.07991   0.08180   0.09206
     Eigenvalues ---    0.09661   0.10763   0.11541   0.11772   0.13066
     Eigenvalues ---    0.16000   0.16000   0.16000   0.16000   0.16000
     Eigenvalues ---    0.16000   0.16000   0.16000   0.16000   0.16000
     Eigenvalues ---    0.17299   0.21677   0.25281   0.25669   0.27010
     Eigenvalues ---    0.28130   0.29404   0.30296   0.30587   0.30597
     Eigenvalues ---    0.30669   0.31012   0.31236   0.31835   0.32386
     Eigenvalues ---    0.32584   0.33137   0.33524   0.33532   0.33691
     Eigenvalues ---    0.34222   0.34356   0.34571   0.34774   0.34964
     Eigenvalues ---    0.35138   0.35467   0.37184   0.37377   0.46740
     Eigenvalues ---    0.48791
 RFO step:  Lambda=-7.05547637D-02 EMin= 5.07700793D-03
 Linear search not attempted -- first point.
 Maximum step size (   0.300) exceeded in Quadratic search.
    -- Step size scaled by   0.721
 Iteration  1 RMS(Cart)=  0.07212369 RMS(Int)=  0.00158296
 Iteration  2 RMS(Cart)=  0.00247896 RMS(Int)=  0.00031328
 Iteration  3 RMS(Cart)=  0.00000336 RMS(Int)=  0.00031327
 Iteration  4 RMS(Cart)=  0.00000000 RMS(Int)=  0.00031327
 Variable       Old X    -DE/DX   Delta X   Delta X   Delta X     New X
                                 (Linear)    (Quad)   (Total)
    R1        2.63306   0.02682   0.00000   0.03593   0.03593   2.66899
    R2        1.87805  -0.02965   0.00000  -0.03827  -0.03827   1.83978
    R3        2.86470   0.02887   0.00000   0.05342   0.05354   2.91824
    R4        2.90046   0.02575   0.00000   0.04777   0.04745   2.94791
    R5        2.06733   0.00303   0.00000   0.00527   0.00527   2.07260
    R6        2.75570   0.04613   0.00000   0.07516   0.07516   2.83086
    R7        2.85876   0.04293   0.00000   0.08588   0.08626   2.94502
    R8        2.87618   0.02329   0.00000   0.04620   0.04613   2.92231
    R9        2.13348  -0.01994   0.00000  -0.03810  -0.03810   2.09538
   R10        2.13507  -0.01989   0.00000  -0.03809  -0.03809   2.09698
   R11        2.06377  -0.00263   0.00000  -0.00456  -0.00456   2.05921
   R12        2.81427   0.03871   0.00000   0.06875   0.06875   2.88301
   R13        2.81155   0.03165   0.00000   0.05599   0.05599   2.86754
   R14        2.90374   0.02710   0.00000   0.05235   0.05257   2.95631
   R15        2.13489  -0.01906   0.00000  -0.03649  -0.03649   2.09840
   R16        2.06044  -0.00687   0.00000  -0.01184  -0.01184   2.04860
   R17        2.11147  -0.01807   0.00000  -0.03349  -0.03349   2.07799
   R18        2.06957  -0.00064   0.00000  -0.00111  -0.00111   2.06846
   R19        2.08812  -0.00700   0.00000  -0.01256  -0.01256   2.07556
   R20        2.08140  -0.00996   0.00000  -0.01770  -0.01770   2.06371
   R21        2.89877   0.01020   0.00000   0.02232   0.02222   2.92099
   R22        2.12690  -0.01770   0.00000  -0.03351  -0.03351   2.09339
   R23        2.05733  -0.00135   0.00000  -0.00232  -0.00232   2.05501
   R24        2.81075   0.02890   0.00000   0.05087   0.05089   2.86164
   R25        2.12265  -0.01669   0.00000  -0.03141  -0.03141   2.09124
   R26        2.04923   0.00141   0.00000   0.00239   0.00239   2.05162
   R27        2.88162   0.02013   0.00000   0.03897   0.03870   2.92032
   R28        2.01981   0.01424   0.00000   0.02310   0.02310   2.04291
   R29        2.09788  -0.00923   0.00000  -0.01679  -0.01679   2.08109
   R30        2.05451  -0.00010   0.00000  -0.00017  -0.00017   2.05434
    A1        1.87238   0.00660   0.00000   0.02064   0.02064   1.89302
    A2        1.93503   0.00040   0.00000   0.00698   0.00563   1.94067
    A3        1.85765   0.01949   0.00000   0.08625   0.08605   1.94370
    A4        1.98222  -0.01310   0.00000  -0.06286  -0.06285   1.91937
    A5        1.79355  -0.00452   0.00000  -0.00919  -0.00968   1.78387
    A6        1.92753   0.00088   0.00000  -0.00447  -0.00487   1.92267
    A7        1.95789  -0.00165   0.00000  -0.00813  -0.00760   1.95029
    A8        2.01958  -0.00139   0.00000  -0.00628  -0.00704   2.01255
    A9        1.75961   0.00681   0.00000   0.03339   0.03379   1.79340
   A10        1.85433  -0.00519   0.00000  -0.02571  -0.02585   1.82848
   A11        2.02285  -0.00163   0.00000   0.00156   0.00141   2.02426
   A12        2.01296   0.00018   0.00000  -0.00534  -0.00553   2.00743
   A13        1.75922   0.00205   0.00000   0.00635   0.00661   1.76583
   A14        1.90857   0.00800   0.00000   0.02713   0.02681   1.93538
   A15        1.90152   0.00872   0.00000   0.02907   0.02876   1.93027
   A16        2.05720  -0.00963   0.00000  -0.03442  -0.03422   2.02297
   A17        1.80468  -0.00202   0.00000   0.00367   0.00280   1.80748
   A18        1.88943  -0.00177   0.00000  -0.00907  -0.00891   1.88052
   A19        1.88568  -0.00258   0.00000  -0.01220  -0.01202   1.87366
   A20        1.98545   0.01413   0.00000   0.05488   0.05469   2.04014
   A21        1.97930   0.00337   0.00000   0.00185   0.00264   1.98194
   A22        1.67690  -0.01361   0.00000  -0.04183  -0.04185   1.63505
   A23        1.93193  -0.01896   0.00000  -0.06444  -0.06428   1.86765
   A24        1.96098   0.00640   0.00000   0.02001   0.02075   1.98173
   A25        1.91579   0.01097   0.00000   0.03757   0.03739   1.95318
   A26        1.91119  -0.00002   0.00000  -0.00046  -0.00062   1.91057
   A27        2.00793   0.00197   0.00000   0.00329   0.00319   2.01112
   A28        1.87986   0.01472   0.00000   0.04900   0.04873   1.92859
   A29        1.89052  -0.00400   0.00000  -0.01792  -0.01792   1.87260
   A30        1.81930  -0.00307   0.00000  -0.00302  -0.00336   1.81594
   A31        1.94560  -0.01007   0.00000  -0.03138  -0.03156   1.91403
   A32        1.95728  -0.00105   0.00000  -0.00464  -0.00463   1.95265
   A33        1.88727   0.00536   0.00000   0.01806   0.01803   1.90530
   A34        2.00326   0.00081   0.00000   0.00256   0.00252   2.00578
   A35        1.87166  -0.00239   0.00000  -0.00767  -0.00765   1.86400
   A36        1.87391  -0.00091   0.00000  -0.00495  -0.00495   1.86896
   A37        1.86414  -0.00214   0.00000  -0.00419  -0.00427   1.85987
   A38        1.82964   0.00350   0.00000   0.00472   0.00437   1.83401
   A39        1.83345   0.00575   0.00000   0.03473   0.03478   1.86824
   A40        1.97957  -0.00435   0.00000  -0.01654  -0.01635   1.96322
   A41        1.92583  -0.00275   0.00000  -0.00426  -0.00450   1.92133
   A42        1.96443   0.00196   0.00000   0.00760   0.00769   1.97211
   A43        1.92470  -0.00364   0.00000  -0.02322  -0.02312   1.90157
   A44        1.80345  -0.00239   0.00000  -0.01330  -0.01360   1.78986
   A45        1.86717   0.00303   0.00000   0.02147   0.02147   1.88863
   A46        1.97168   0.00260   0.00000   0.00656   0.00637   1.97805
   A47        1.87414   0.00633   0.00000   0.02958   0.02970   1.90384
   A48        2.03277  -0.00411   0.00000  -0.01742  -0.01737   2.01540
   A49        1.90484  -0.00449   0.00000  -0.02156  -0.02149   1.88334
   A50        1.77353   0.00643   0.00000   0.02184   0.02215   1.79568
   A51        1.73273   0.01162   0.00000   0.04650   0.04712   1.77984
   A52        1.98796  -0.00794   0.00000  -0.02051  -0.02084   1.96711
   A53        1.86991  -0.00819   0.00000  -0.02907  -0.02985   1.84006
   A54        2.05600  -0.00195   0.00000  -0.01621  -0.01625   2.03974
   A55        2.00357   0.00239   0.00000   0.00808   0.00759   2.01116
   A56        1.83451   0.00029   0.00000  -0.00806  -0.00804   1.82647
   A57        1.86738   0.00417   0.00000   0.02656   0.02664   1.89402
   A58        1.96325  -0.00094   0.00000  -0.00379  -0.00385   1.95939
   A59        1.88593   0.00138   0.00000   0.00552   0.00541   1.89134
   A60        1.97661   0.00017   0.00000   0.00760   0.00765   1.98425
   A61        1.92991  -0.00451   0.00000  -0.02526  -0.02520   1.90470
    D1        2.60659   0.00638   0.00000   0.04360   0.04383   2.65043
    D2        0.66865   0.00129   0.00000   0.00607   0.00468   0.67333
    D3       -1.49427  -0.00223   0.00000  -0.00528  -0.00412  -1.49839
    D4        0.85242  -0.01370   0.00000  -0.06834  -0.06841   0.78401
    D5       -1.34403  -0.01584   0.00000  -0.09107  -0.09116  -1.43519
    D6        3.11122  -0.01902   0.00000  -0.10260  -0.10237   3.00885
    D7        2.83127   0.00649   0.00000   0.02872   0.02838   2.85965
    D8        0.63482   0.00435   0.00000   0.00598   0.00563   0.64045
    D9       -1.19311   0.00117   0.00000  -0.00555  -0.00558  -1.19869
   D10       -1.36042   0.00245   0.00000   0.01196   0.01198  -1.34844
   D11        2.72632   0.00032   0.00000  -0.01078  -0.01077   2.71554
   D12        0.89838  -0.00286   0.00000  -0.02230  -0.02198   0.87640
   D13        2.00787   0.00256   0.00000   0.03071   0.03089   2.03875
   D14       -2.27305   0.00609   0.00000   0.04489   0.04503  -2.22801
   D15       -0.15046   0.00272   0.00000   0.02904   0.02915  -0.12131
   D16       -0.02705  -0.00369   0.00000  -0.00760  -0.00769  -0.03474
   D17        1.97522  -0.00016   0.00000   0.00658   0.00646   1.98168
   D18       -2.18538  -0.00353   0.00000  -0.00927  -0.00943  -2.19481
   D19       -2.09738  -0.00129   0.00000   0.00699   0.00716  -2.09022
   D20       -0.09511   0.00224   0.00000   0.02116   0.02131  -0.07380
   D21        2.02748  -0.00113   0.00000   0.00532   0.00542   2.03290
   D22        2.33656  -0.00151   0.00000  -0.00854  -0.00830   2.32826
   D23        0.37564  -0.00780   0.00000  -0.04199  -0.04232   0.33332
   D24       -1.77986  -0.00446   0.00000  -0.02418  -0.02421  -1.80407
   D25       -1.89170   0.00540   0.00000   0.03339   0.03366  -1.85805
   D26        2.43056  -0.00089   0.00000  -0.00007  -0.00036   2.43020
   D27        0.27506   0.00246   0.00000   0.01775   0.01774   0.29281
   D28        0.15740   0.00706   0.00000   0.03902   0.03936   0.19676
   D29       -1.80352   0.00077   0.00000   0.00557   0.00534  -1.79818
   D30        2.32417   0.00411   0.00000   0.02339   0.02344   2.34761
   D31        1.06307   0.00741   0.00000   0.04195   0.04150   1.10456
   D32       -2.99175  -0.00373   0.00000   0.00159   0.00131  -2.99043
   D33       -0.99114   0.00263   0.00000   0.02284   0.02259  -0.96855
   D34       -1.13119   0.00510   0.00000   0.02437   0.02403  -1.10715
   D35        1.09719  -0.00604   0.00000  -0.01599  -0.01615   1.08103
   D36        3.09779   0.00032   0.00000   0.00525   0.00513   3.10292
   D37        2.96634   0.00432   0.00000   0.02553   0.02532   2.99166
   D38       -1.08847  -0.00683   0.00000  -0.01484  -0.01487  -1.10334
   D39        0.91213  -0.00047   0.00000   0.00641   0.00642   0.91855
   D40        1.27277   0.00244   0.00000   0.01299   0.01316   1.28594
   D41       -0.75760   0.00155   0.00000   0.00085   0.00083  -0.75677
   D42       -2.86074   0.00469   0.00000   0.01579   0.01591  -2.84484
   D43       -2.74778  -0.00374   0.00000  -0.02160  -0.02150  -2.76928
   D44        1.50504  -0.00464   0.00000  -0.03375  -0.03383   1.47120
   D45       -0.59811  -0.00150   0.00000  -0.01880  -0.01876  -0.61686
   D46       -0.55545  -0.00419   0.00000  -0.01816  -0.01819  -0.57364
   D47       -2.58582  -0.00509   0.00000  -0.03030  -0.03052  -2.61635
   D48        1.59422  -0.00195   0.00000  -0.01536  -0.01545   1.57877
   D49        2.57063   0.00503   0.00000   0.02161   0.02099   2.59162
   D50       -1.57896   0.00116   0.00000   0.00003  -0.00073  -1.57969
   D51        0.60247   0.00101   0.00000  -0.00001  -0.00078   0.60168
   D52        0.31803   0.00501   0.00000   0.02903   0.02927   0.34730
   D53        2.45162   0.00114   0.00000   0.00746   0.00756   2.45918
[...]
 0015129,0.00047004,0.00008668,0.00001577,0.00012999,0.00017665,0.00012
 205,-0.00007076,0.00000020,-0.00001899,-0.00001824,-0.00016310,-0.0002
 8682,0.00013813,0.00001783,0.00001461,-0.00002306,0.00001264,0.0000225
 2,0.00002991,0.00004615,0.00004059,-0.00005064,0.00020861,0.00018695,-
 0.00016614,0.00046635,0.00011937,-0.00036993,0.06799949,0.00043975,0.0
 0123654,-0.00031325,0.00201594,-0.00106849,-0.00042112,0.00296968,-0.0
 1670737,-0.00259651,-0.00024051,-0.00026776,-0.00024250,-0.00184754,-0
 .00099786,0.00296313,0.00014861,-0.00079020,-0.00104138,-0.00035024,0.
 00048150,0.00004262,0.05969184,-0.28813532,-0.02386555,0.00256128,-0.0
 0652231,0.00034652,0.00029706,-0.00054172,-0.00041381,0.00017479,0.000
 02334,0.00002913,-0.00012440,-0.00008066,-0.00001021,-0.00085645,0.001
 67090,-0.00005149,-0.00007243,0.00005774,-0.00007766,0.00016920,0.0003
 4233,0.00054888,-0.00005388,0.00022172,0.00029738,-0.00024903,-0.00034
 955,0.00028296,-0.00004962,-0.00004531,-0.00001196,0.00004260,-0.00000
 199,0.00006340,0.00000488,-0.00007651,0.00005606,0.00002202,-0.0000386
 2,-0.00002712,-0.00010987,0.00010981,0.00001917,-0.06452750,0.31302921
 ,-0.00038403,-0.00012648,0.00012871,-0.00083131,0.00094007,0.00049859,
 -0.00545671,0.02162885,0.00239594,0.00000238,0.00039905,0.00109567,0.0
 0185760,0.00179303,-0.00368597,-0.00001680,0.00078536,0.00113378,0.000
 37601,-0.00007307,-0.00014540,0.00502251,-0.02372390,-0.04803041,0.007
 49304,-0.02581665,-0.00326900,-0.00014933,-0.00128303,-0.00267130,0.00
 008882,-0.00031625,0.00022832,-0.00003309,-0.00001758,0.00005967,0.000
 34071,-0.00027910,0.00019638,0.00012163,0.00001680,-0.00000481,-0.0000
 2238,-0.00046826,-0.00025825,0.00014620,-0.00037865,-0.00014411,0.0002
 7107,0.00042117,-0.00015405,0.00002041,-0.00000957,-0.00000620,-0.0000
 6051,-0.00006085,0.00003284,0.00000121,-0.00002073,0.00004812,-0.00006
 121,0.00007748,0.00002745,-0.00013605,-0.00001745,-0.00011872,-0.00628
 718,0.02502683,0.05300848,-0.00147334,0.00001930,0.00008057,0.00058791
 ,-0.00186421,0.00233524,-0.01596149,0.00221221,-0.00109551,0.00076284,
 0.00049657,-0.00113012,-0.00065300,0.00056453,0.00026903,0.00015061,-0
 .00013490,-0.00000528,-0.00046557,0.00072469,0.00099965,-0.30330615,0.
 02316928,-0.03081792,-0.00485521,0.00123409,-0.00096353,0.00033581,-0.
 00022504,-0.00096359,0.00062705,0.00038424,0.00010203,-0.00008781,-0.0
 0019682,0.00024276,0.00027487,-0.00031791,0.00019983,0.00065080,-0.000
 29157,0.00080035,-0.00011598,0.00007368,0.00017808,0.00035462,-0.00008
 773,-0.00011550,-0.00001036,-0.00009962,-0.00000192,0.00010110,0.00007
 593,-0.00004608,-0.00000620,-0.00006923,0.00008434,0.00004230,-0.00006
 199,-0.00001402,0.00038374,0.00033972,-0.00027553,0.00091613,0.0006696
 0,-0.00052059,-0.00754755,0.00176500,-0.00066726,0.32802243,-0.0010466
 5,0.00081484,-0.00009500,0.00086526,-0.00281116,0.00145989,-0.01810069
 ,0.00179600,-0.00154138,-0.00017467,0.00081147,-0.00088074,-0.00050365
 ,0.00083471,-0.00026592,0.00032621,-0.00012289,0.00008289,-0.00026745,
 -0.00172381,-0.00000858,0.02531941,-0.04988522,0.00334125,-0.01104864,
 0.00009143,-0.00125238,-0.00044835,-0.00097021,-0.00165478,0.00050022,
 0.00008637,0.00018341,-0.00029868,-0.00006743,0.00025443,-0.00018203,0
 .00082177,0.00011087,0.00034334,0.00000712,0.00029099,0.00021260,-0.00
 006648,0.00002819,0.00000683,-0.00011352,-0.00028121,0.00001795,-0.000
 03060,-0.00001616,0.00008493,0.00009344,-0.00004595,-0.00001530,-0.000
 02603,0.00004412,0.00007650,-0.00002854,0.00001359,0.00016163,0.000188
 80,0.00001124,0.00030881,-0.00199685,-0.00071062,0.03184840,-0.0027308
 9,0.00355621,-0.02706427,0.05458979,0.00211994,-0.00012380,-0.00016717
 ,0.00040402,0.00292263,-0.00299145,0.02389008,-0.00320376,0.00127325,0
 .00117846,-0.00068657,0.00113216,-0.00036892,-0.00041196,0.00020128,0.
 00014406,-0.00005179,-0.00000772,-0.00047730,-0.00004870,0.00059239,-0
 .03109479,0.00359638,-0.04717924,-0.02761697,0.00199858,-0.00544314,-0
 .00044055,-0.00028753,-0.00325724,0.00016291,-0.00004650,-0.00005110,0
 .00040560,0.00014134,-0.00037460,-0.00000965,0.00014091,-0.00031183,-0
 .00046312,0.00040169,-0.00036948,0.00000252,-0.00012503,-0.00007815,-0
 .00016788,-0.00006925,0.00028699,-0.00007426,0.00005548,-0.00000783,-0
 .00002055,-0.00004347,-0.00002634,-0.00001721,-0.00002061,0.00004283,0
 .00007586,0.00009947,-0.00007787,0.00004238,0.00013433,-0.00010237,0.0
 0014020,-0.00030095,0.00016324,0.00247346,-0.00000467,0.00062438,0.031
 78413,-0.00208951,0.05677624,0.00009950,0.00003586,-0.00012289,-0.0001
 1433,0.00022903,0.00021204,-0.00057006,-0.00056223,-0.00012493,0.00014
 873,0.00030150,-0.00013536,-0.00314073,-0.00287858,0.00123417,0.000852
 39,-0.00016622,0.00113127,-0.00076651,-0.00013357,-0.00023944,-0.00510
 738,0.00538196,-0.00364462,-0.10499369,0.08550014,-0.06987204,0.008542
 27,-0.01356986,0.01306135,0.00144028,-0.00171660,0.00093008,-0.0000114
 8,0.00001589,0.00002787,-0.00002044,-0.00001252,0.00001109,0.00002292,
 -0.00002669,0.00006190,0.00001568,0.00000007,0.00004925,-0.00000295,-0
 .00001445,-0.00011273,0.00001135,0.00005671,-0.00004302,0.00004401,0.0
 0003692,-0.00004076,-0.00015642,-0.00037792,0.00032333,0.00022563,0.00
 013451,-0.00010794,0.00005286,0.00005610,0.00000679,0.00051358,0.00012
 921,-0.00013940,0.00115840,-0.00038119,0.00029431,-0.00019525,-0.00057
 882,-0.00169153,0.11382571,-0.00000431,0.00003767,-0.00010645,0.000038
 00,0.00016746,0.00013460,-0.00079653,-0.00075601,-0.00143499,0.0002232
 6,0.00042471,-0.00026799,-0.00361640,-0.00339959,-0.00030497,0.0009699
 7,0.00009167,0.00133335,-0.00037376,0.00033234,0.00002330,-0.00762332,
 0.00936151,-0.00931732,0.08387467,-0.16517491,0.10009007,0.01128134,-0
 .01549833,0.01451768,0.00222106,0.00086620,-0.00076165,0.00001033,0.00
 001971,0.00001600,-0.00001890,0.00007458,-0.00000682,0.00002226,-0.000
 04335,0.00002202,0.00001518,0.00004073,0.00008055,0.00001877,-0.000029
 77,-0.00022520,0.00005789,0.00005417,-0.00007230,-0.00008489,-0.000034
 22,0.00001278,-0.00034076,-0.00041163,0.00033266,0.00002252,-0.0000893
 9,0.00007715,-0.00001381,-0.00000647,0.00000560,-0.00017307,-0.0000655
 7,-0.00008852,-0.00014375,0.00147302,0.00051784,-0.00104316,-0.0002101
 7,-0.00184982,-0.08950673,0.18021610,0.00020571,-0.00017750,0.00029111
 ,-0.00048524,0.00041636,-0.00046443,-0.00154306,-0.00069262,-0.0019395
 2,0.00077381,0.00060797,-0.00056872,0.00139951,0.00094217,-0.00035125,
 -0.00050040,0.00006626,-0.00032705,0.00045060,-0.00013976,0.00032712,-
 0.01160250,0.01655285,-0.01299770,-0.06774750,0.09802064,-0.12969352,-
 0.00227324,0.00459079,-0.00469180,-0.00078471,0.00085520,0.00001350,0.
 00007432,0.00001292,-0.00006992,0.00007116,-0.00020122,-0.00014346,0.0
 0007298,-0.00004370,0.00012715,-0.00002372,-0.00002823,0.00000540,-0.0
 0005147,0.00001171,-0.00041491,0.00001312,0.00004341,0.00001728,0.0000
 2521,0.00000055,-0.00002000,0.00010988,0.00012464,-0.00013534,-0.00010
 667,-0.00010075,0.00006921,-0.00000517,0.00006958,-0.00002597,-0.00016
 752,-0.00025122,-0.00001362,0.00025211,-0.00021476,0.00145955,-0.00033
 930,-0.00054912,-0.00276038,0.07364799,-0.10793329,0.14151066,0.000182
 83,0.00005241,0.00048357,-0.00011555,-0.00019254,-0.00094375,-0.000139
 75,-0.00092346,-0.00107139,0.00017084,0.00014860,-0.00016324,-0.000416
 11,0.00024110,-0.00028128,0.00005540,0.00002026,-0.00001785,-0.0005582
 1,0.00034980,-0.00087996,0.00937293,-0.00428004,-0.00789144,-0.2038737
 3,0.07431566,0.10691643,-0.01602793,0.00878353,0.00929491,-0.00279357,
 -0.00445669,0.00104927,0.00006455,-0.00008819,-0.00017183,0.00003830,0
 .00004603,0.00006119,0.00003725,0.00000540,0.00004349,0.00001341,0.000
 01855,0.00003426,-0.00006745,0.00004966,-0.00009560,-0.00001461,-0.000
 02836,-0.00001294,0.00003489,0.00006791,-0.00008479,0.00007259,-0.0000
 6743,0.00008183,0.00028167,0.00015367,-0.00017358,-0.00003361,-0.00014
 425,0.00008913,0.00040329,0.00091117,-0.00087478,-0.00000690,-0.000929
 25,-0.00116888,0.00161475,0.00003289,0.00007919,-0.01187622,0.00596297
 ,0.00724748,0.22380852,0.00029511,0.00013800,0.00008782,-0.00027337,-0
 .00041561,-0.00014002,-0.00061808,-0.00122108,-0.00009842,0.00022838,0
 .00020402,-0.00016179,0.00001916,0.00075082,-0.00035919,-0.00000134,-0
 .00000329,-0.00016969,0.00081644,-0.00050289,0.00108828,0.00855444,-0.
 00578539,-0.00672463,0.07585179,-0.08252589,-0.04798046,-0.01961331,0.
 01080517,0.01265458,-0.00228069,-0.00355608,0.00184994,-0.00001239,-0.
 00007484,-0.00010208,0.00000273,0.00016515,0.00012786,0.00002023,0.000
 02564,-0.00000297,0.00001890,0.00001865,0.00007191,-0.00007315,0.00004
 116,-0.00010975,-0.00000472,-0.00000090,0.00000154,0.00003648,0.000038
 30,-0.00006675,0.00007260,-0.00000425,-0.00001355,-0.00006998,-0.00011
 529,-0.00005689,-0.00002168,-0.00013832,-0.00001574,0.00048827,-0.0005
 9132,0.00116195,-0.00045974,-0.00025303,-0.00209535,0.00010616,0.00107
 602,0.00052398,0.01791658,-0.00818401,-0.01153442,-0.08007276,0.088141
 35,0.00011126,0.00016403,0.00000424,-0.00068881,0.00010707,0.00050703,
 -0.00159833,-0.00216033,-0.00234367,0.00081520,0.00062073,-0.00036392,
 0.00081053,-0.00063133,-0.00004206,-0.00031035,0.00024205,0.00015013,0
 .00076944,0.00094156,-0.00033198,0.01857941,-0.00934095,-0.01405421,0.
 10509361,-0.04677183,-0.11648960,0.00449890,-0.00290754,-0.00368399,0.
 00012952,0.00145255,0.00024771,0.00002283,-0.00000526,0.00003298,-0.00
 008044,0.00003216,-0.00000993,-0.00011285,-0.00000509,-0.00001883,0.00
 000741,0.00002045,0.00012153,-0.00018624,0.00008637,-0.00036420,0.0000
 6490,0.00009077,-0.00000744,-0.00008058,-0.00009787,0.00004327,0.00001
 197,0.00000682,-0.00005669,-0.00031174,-0.00032423,0.00030488,-0.00008
 287,0.00003743,-0.00000498,-0.00119550,0.00045099,-0.00076747,-0.00027
 772,-0.00046130,-0.00287378,-0.00013904,0.00001456,0.00156113,-0.01422
 080,0.00609773,0.01035084,-0.11186984,0.05259848,0.12727032,-0.0001132
 6,-0.00006488,0.00177665,-0.00421546,0.00253110,0.00026552,-0.00238647
 ,0.00035711,-0.00151409,0.00054234,-0.00087515,-0.00022887,-0.00247639
 ,-0.00977575,-0.00707038,0.00001799,-0.00011917,0.00055839,0.00054546,
 -0.00089939,0.00009697,-0.00153127,-0.00288239,0.00001736,-0.00315428,
 -0.01072189,-0.01414070,-0.05518862,-0.03076066,-0.03311889,0.00629690
 ,0.01737055,0.02034292,0.00018122,-0.00003679,-0.00010768,0.00055163,0
 .00052505,0.00074893,0.00003430,-0.00000485,0.00012657,-0.00012815,0.0
 0001819,-0.00034287,0.00000035,0.00005931,-0.00008811,0.00021827,0.000
 22569,0.00003513,0.00001703,0.00014599,0.00002952,-0.00009411,0.000059
 07,0.00002698,0.00007769,0.00017957,0.00017447,-0.00006754,0.00041691,
 0.00014895,-0.00005108,-0.00002827,-0.00007405,-0.00042727,-0.00035795
 ,-0.00062393,-0.00021058,-0.00040769,-0.00052488,0.00016277,-0.0001373
 6,0.00025115,0.00038119,0.00056078,-0.00022014,0.05972571,0.00014290,0
 .00008360,-0.00091942,0.00196394,-0.00012919,0.00097452,0.00075475,-0.
 00092792,0.00246339,0.00002037,0.00097055,0.00020580,0.00179367,0.0092
 0166,0.00904958,0.00001153,0.00091361,-0.00049453,-0.00066944,0.000583
 74,-0.00025942,-0.00212959,-0.00184149,0.00146273,-0.00243550,-0.01191
 951,-0.01581928,-0.03102854,-0.17047844,-0.12591593,-0.00342344,-0.007
 46366,-0.00824066,-0.00009981,0.00004358,0.00007930,-0.00028527,-0.000
 13001,-0.00021447,-0.00005321,-0.00004374,-0.00006457,0.00010925,0.000
 11302,0.00031578,0.00000966,0.00000106,-0.00010736,-0.00000117,0.00003
 700,-0.00026531,-0.00002112,-0.00009072,0.00003593,0.00005411,0.000048
 10,-0.00018725,-0.00016862,0.00000814,-0.00004010,-0.00018400,0.000049
 75,-0.00022814,0.00008642,-0.00006583,-0.00004065,-0.00017950,-0.00020
 583,-0.00055892,-0.00027050,-0.00042474,-0.00064352,0.00023904,-0.0004
 0900,0.00027104,-0.00018331,0.00116856,0.00037341,0.03545972,0.1803199
 5,0.00043495,0.00011355,-0.00050787,-0.00001972,-0.00068678,-0.0000731
 2,-0.00152863,0.00118932,-0.00449553,0.00013095,-0.00176509,-0.0000075
 9,-0.00184225,-0.01768713,-0.01350497,0.00005802,-0.00109599,0.0006811
 4,0.00076004,-0.00052738,0.00051477,0.00156906,0.00218784,-0.00085249,
 0.00233742,0.00826202,0.00933025,-0.03316989,-0.12547862,-0.17828596,-
 0.00211497,-0.00397278,-0.00540643,-0.00006485,-0.00003305,-0.00002665
 ,0.00001831,-0.00020998,-0.00033366,-0.00010316,0.00003974,-0.00001417
 ,-0.00027664,-0.00003126,-0.00062387,0.00005233,0.00003833,0.00004555,
 0.00018550,0.00085351,0.00007707,0.00003707,0.00001679,-0.00012249,-0.
 00002862,0.00030357,0.00025215,0.00005758,0.00027768,0.00008263,-0.000
 41155,0.00057440,0.00031289,-0.00008892,0.00005712,-0.00000310,0.00006
 953,0.00011822,0.00044644,0.00009114,0.00008996,0.00036189,-0.00044027
 ,-0.00021385,-0.00005958,-0.00065502,-0.00074993,0.00057432,0.03438426
 ,0.13843646,0.19161021,-0.00017022,0.00032866,0.00037573,-0.00365585,0
 .00480204,-0.00420354,-0.00049153,-0.00001847,-0.00114664,-0.00044943,
 -0.00004624,0.00014157,-0.00435464,0.00173119,0.00274088,-0.00028302,-
 0.00038136,0.00078616,-0.00023453,0.00033328,-0.00175413,0.00002724,-0
 .00002534,-0.00029911,0.00069801,0.00187169,-0.00166549,-0.01007720,0.
 01605811,-0.01663099,-0.07745251,0.05940169,-0.05684757,0.00004923,-0.
 00001829,0.00006728,0.00064105,-0.00025575,0.00014586,-0.00009097,0.00
 001906,-0.00013402,-0.00001953,-0.00003255,-0.00006779,0.00002192,0.00
 000523,0.00003752,0.00001242,0.00000485,-0.00004627,0.00039454,-0.0000
 6516,-0.00022526,0.00023098,-0.00002090,-0.00010561,-0.00061741,0.0002
 5877,-0.00001906,0.00005283,-0.00000534,0.00003034,-0.00002654,-0.0000
 5654,0.00002096,-0.00010246,-0.00012673,-0.00003765,0.00005788,-0.0000
 2640,0.00013174,-0.00048126,-0.00097987,0.00097447,0.00054010,-0.00015
 915,0.00012813,0.00016396,0.00016039,0.00032598,0.08591226,-0.00016961
 ,0.00024397,-0.00149830,-0.00604465,0.00984552,-0.01013575,-0.00095133
 ,-0.00079480,-0.00177651,-0.00044264,0.00021742,0.00011155,0.00169333,
 -0.00137853,-0.00245649,0.00001706,0.00033648,0.00011379,0.00015726,0.
 00004448,0.00106082,-0.00014751,0.00013316,-0.00007108,-0.00211123,0.0
 0063416,0.00054722,0.00470142,-0.00968201,0.01041871,0.06167581,-0.168
 80076,0.11476505,0.00016133,-0.00019755,0.00010891,0.00045134,0.001419
 59,0.00014924,-0.00012484,-0.00002761,-0.00017638,0.00001638,0.0000327
 8,0.00004740,0.00004352,-0.00002051,-0.00001984,0.00003528,-0.00001900
 ,-0.00003010,0.00024208,-0.00000807,-0.00029546,0.00016086,-0.00009170
 ,0.00001909,0.00039797,-0.00010721,-0.00008608,-0.00008444,0.00000827,
 0.00000630,0.00011962,0.00003492,-0.00006238,-0.00002838,0.00006916,-0
 .00000004,-0.00003906,-0.00002536,0.00001641,-0.00002742,0.00098880,-0
 .00036638,-0.00037493,0.00004710,-0.00024465,0.00010803,-0.00033301,-0
 .00022788,-0.06718733,0.18218942,-0.00013433,-0.00196848,-0.00483134,-
 0.00750461,0.02009187,-0.01165556,-0.00023367,-0.00129074,-0.00220430,
 -0.00078159,0.00027061,0.00028005,0.00222563,-0.00115832,-0.00112925,0
 .00029695,-0.00002498,-0.00013794,0.00032602,-0.00008116,0.00081718,-0
 .00021952,0.00034308,-0.00006666,-0.00008339,-0.00068397,0.00075581,0.
 00496146,-0.00850323,0.00872335,-0.05888642,0.11363775,-0.15377454,-0.
 00021251,0.00038559,-0.00005348,0.00072373,-0.00062972,0.00096133,-0.0
 0019963,-0.00000750,-0.00028614,0.00001088,-0.00002125,0.00000433,0.00
 008706,-0.00002281,0.00003544,-0.00005002,0.00006023,0.00002257,-0.000
 16860,-0.00013551,0.00004932,-0.00006422,-0.00001024,0.00003675,0.0002
 7029,-0.00016125,0.00003034,-0.00006506,0.00005318,0.00001060,-0.00005
 522,-0.00000015,0.00000022,-0.00002448,-0.00010817,-0.00004995,-0.0000
 7663,-0.00013532,0.00013440,0.00002479,-0.00012446,0.00021111,-0.00006
 435,-0.00032136,0.00016935,-0.00060251,0.00015997,0.00001172,0.0623022
 3,-0.12342677,0.16532827,0.00228146,0.00148158,0.00151020,-0.00712837,
 -0.00567303,0.00272936,0.00038238,-0.00038448,-0.00137944,-0.00037766,
 0.00014836,0.00022863,-0.00020397,-0.00099487,0.00059125,-0.00062379,0
 .00041334,0.00042275,0.00019796,0.00024753,-0.00000087,0.00083775,0.00
 058900,0.00039688,-0.00383510,0.00374010,0.00192280,-0.01735242,-0.018
 18695,0.00409400,-0.18293906,-0.12550560,0.03285497,0.00033941,-0.0001
 4849,-0.00056071,-0.00065221,0.00004961,-0.00069462,-0.00009317,0.0000
 0501,-0.00016580,0.00002335,-0.00001898,0.00002306,-0.00000354,0.00002
 417,-0.00010667,-0.00004661,0.00010566,-0.00005203,0.00058772,0.000458
 61,-0.00110760,0.00055248,-0.00009792,-0.00006110,-0.00003037,0.000042
 36,-0.00009690,-0.00005743,0.00004975,0.00004863,0.00020484,-0.0000215
 7,-0.00000994,0.00001438,-0.00002606,-0.00009959,0.00000565,0.00005830
 ,-0.00006693,0.00032063,0.00013840,0.00006100,-0.00114887,-0.00132769,
 0.00033215,0.00112766,0.00032725,0.00023235,0.00970471,0.00775209,-0.0
 0180228,0.19791221,0.00170451,0.00231154,0.00218411,-0.00987201,-0.011
 63300,0.00248854,0.00043237,-0.00071634,-0.00070133,-0.00030291,0.0001
 0316,0.00017133,-0.00055343,0.00043357,0.00013330,0.00025486,-0.000725
 08,0.00145008,-0.00008314,0.00001362,-0.00012445,0.00028060,-0.0001400
 2,-0.00015129,0.00261026,-0.00113105,-0.00023969,0.01170428,0.01224482
 ,-0.00278768,-0.12755642,-0.16434788,0.03373304,0.00000305,-0.00070536
 ,-0.00114609,-0.00089574,-0.00010216,-0.00230862,-0.00002913,0.0000343
 3,-0.00012981,0.00003181,0.00000670,0.00005842,-0.00000523,0.00004683,
 -0.00005194,0.00005613,-0.00012963,-0.00010138,0.00139601,-0.00083558,
 0.00098253,0.00016741,-0.00011356,-0.00011500,-0.00006755,-0.00000173,
 0.00000284,-0.00000260,0.00000833,0.00000540,-0.00003915,0.00000010,-0
 .00000975,0.00009399,0.00009811,0.00008317,-0.00006901,0.00002213,-0.0
 0002373,-0.00008071,0.00016374,-0.00035311,0.00058162,0.00075227,-0.00
 038678,-0.00094489,0.00092078,0.00012123,-0.01556952,-0.01475907,0.003
 81313,0.13675452,0.17818043,0.00017102,0.00051538,0.00352153,-0.020739
 62,-0.01969963,0.00221347,0.00041798,-0.00100676,-0.00264685,-0.000920
 02,0.00029942,0.00028529,-0.00046907,-0.00014620,0.00011994,-0.0007525
 0,0.00079918,-0.00028942,0.00007517,0.00020382,-0.00005149,0.00034489,
 0.00003063,-0.00025278,0.00298632,-0.00165739,-0.00127726,0.00893091,0
 .00961898,-0.00306030,0.03525772,0.03469829,-0.05313219,0.00043089,-0.
 00098935,-0.00072058,-0.00095848,-0.00101790,-0.00274486,-0.00018606,0
 .00008359,-0.00032616,0.00007122,0.00003057,0.00011061,0.00001010,0.00
 002673,0.00000805,0.00006684,-0.00004163,-0.00004928,-0.00112870,0.001
 19292,-0.00077939,0.00004208,-0.00007200,0.00001620,-0.00001412,-0.000
 06432,0.00006686,-0.00002605,0.00002046,0.00001084,-0.00002336,-0.0000
 0473,-0.00004606,0.00004492,0.00006718,0.00002763,0.00000464,0.0000450
 9,0.00005572,-0.00008049,-0.00055372,0.00029426,0.00103976,0.00053666,
 0.00007504,-0.00032669,0.00017162,0.00001646,0.01497426,0.01350961,-0.
 00339296,-0.03924357,-0.03659648,0.06194770\\-0.00000019,0.00000027,0.
 00000035,-0.00000023,0.00000041,-0.00000150,0.00000013,-0.00000095,0.0
 0000287,-0.00000054,-0.00000028,-0.00000080,-0.00000049,0.00000104,-0.
 00000093,-0.00000049,0.00000002,0.00000011,-0.00000010,0.00000004,0.00
 000031,0.00000058,0.00000031,-0.00000169,-0.00000034,0.00000045,0.0000
 0075,0.00000204,-0.00000141,-0.00000049,-0.00000091,0.00000074,0.00000
 060,0.,0.00000015,-0.00000055,0.00000011,-0.00000001,0.00000004,-0.000
 00029,0.00000026,0.00000036,-0.00000007,0.00000007,0.00000025,-0.00000
 047,0.00000018,0.00000016,0.00000004,0.00000006,0.00000005,-0.00000013
 ,0.00000009,-0.00000026,-0.00000022,0.00000007,0.00000002,-0.00000014,
 -0.00000002,0.00000034,0.00000005,-0.00000008,0.00000027,0.00000018,-0
 .00000015,0.00000052,0.,-0.00000040,0.00000018,0.00000004,-0.00000008,
 0.00000057,0.00000049,-0.00000026,-0.00000034,0.00000024,-0.00000031,0
 .00000006,-0.00000017,0.00000002,-0.00000026,0.00000060,-0.00000012,-0
 .00000046,0.00000030,-0.00000010,-0.00000054\\\@


 IF YOU GIVE EVERYONE A PIECE OF YOUR MIND,
 PRETTY SOON IT WILL BE ALL GONE.
 Job cpu time:       0 days 11 hours 42 minutes  9.6 seconds.
 File lengths (MBytes):  RWF=    486 Int=      0 D2E=      0 Chk=     19 Scr=      1
 Normal termination of Gaussian 09 at Thu Jun 17 20:10:58 2021.
