
                                 *****************
                                 * O   R   C   A *
                                 *****************

           --- An Ab Initio, DFT and Semiempirical electronic structure package ---

                  #######################################################
                  #                        -***-                        #
                  #          Department of theory and spectroscopy      #
                  #               Directorship: Frank Neese             #
                  #        Max Planck Institute fuer Kohlenforschung    #
                  #                Kaiser Wilhelm Platz 1               #
                  #                 D-45470 Muelheim/Ruhr               #
                  #                      Germany                        #
                  #                                                     #
                  #                  All rights reserved                #
                  #                        -***-                        #
                  #######################################################


                         Program Version 4.2.0 -  RELEASE  -


 With contributions from (in alphabetic order):
   Daniel Aravena         : Magnetic Suceptibility
   Michael Atanasov       : Ab Initio Ligand Field Theory (pilot matlab implementation)
   Alexander A. Auer      : GIAO ZORA, VPT2
   Ute Becker             : Parallelization
   Giovanni Bistoni       : ED, misc. LED, open-shell LED, HFLED
   Martin Brehm           : Molecular dynamics
   Dmytro Bykov           : SCF Hessian
   Vijay G. Chilkuri      : MRCI spin determinant printing, contributions to CSF-ICE
   Dipayan Datta          : RHF DLPNO-CCSD density
   Achintya Kumar Dutta   : EOM-CC, STEOM-CC
   Dmitry Ganyushin       : Spin-Orbit,Spin-Spin,Magnetic field MRCI
   Miquel Garcia          : C-PCM Hessian, Gaussian charge scheme
   Yang Guo               : DLPNO-NEVPT2, CIM, IAO-localization
   Andreas Hansen         : Spin unrestricted coupled pair/coupled cluster methods
   Benjamin Helmich-Paris : CASSCF linear response (MC-RPA)
   Lee Huntington         : MR-EOM, pCC
   Robert Izsak           : Overlap fitted RIJCOSX, COSX-SCS-MP3, EOM
   Christian Kollmar      : KDIIS, OOCD, Brueckner-CCSD(T), CCSD density
   Simone Kossmann        : Meta GGA functionals, TD-DFT gradient, OOMP2, MP2 Hessian
   Martin Krupicka        : AUTO-CI
   Lucas Lang             : DCDCAS
   Dagmar Lenk            : GEPOL surface, SMD
   Dimitrios Liakos       : Extrapolation schemes; Compound Job, initial MDCI parallelization
   Dimitrios Manganas     : Further ROCIS development; embedding schemes
   Dimitrios Pantazis     : SARC Basis sets
   Taras Petrenko         : DFT Hessian,TD-DFT gradient, ASA, ECA, R-Raman, ABS, FL, XAS/XES, NRVS
   Peter Pinski           : DLPNO-MP2, DLPNO-MP2 Gradient
   Christoph Reimann      : Effective Core Potentials
   Marius Retegan         : Local ZFS, SOC
   Christoph Riplinger    : Optimizer, TS searches, QM/MM, DLPNO-CCSD(T), (RO)-DLPNO pert. Triples
   Tobias Risthaus        : Range-separated hybrids, TD-DFT gradient, RPA, STAB
   Michael Roemelt        : Original ROCIS implementation
   Masaaki Saitow         : Open-shell DLPNO-CCSD energy and density
   Barbara Sandhoefer     : DKH picture change effects
   Avijit Sen             : IP-ROCIS
   Kantharuban Sivalingam : CASSCF convergence, NEVPT2, FIC-MRCI
   Bernardo de Souza      : ESD, SOC TD-DFT
   Georgi Stoychev        : AutoAux, RI-MP2 NMR
   Willem Van den Heuvel  : Paramagnetic NMR
   Boris Wezisla          : Elementary symmetry handling
   Frank Wennmohs         : Technical directorship


 We gratefully acknowledge several colleagues who have allowed us to
 interface, adapt or use parts of their codes:
   Stefan Grimme, W. Hujo, H. Kruse,             : VdW corrections, initial TS optimization,
                  C. Bannwarth                     DFT functionals, gCP, sTDA/sTD-DF
   Ed Valeev, F. Pavosevic, A. Kumar             : LibInt (2-el integral package), F12 methods
   Garnet Chan, S. Sharma, J. Yang, R. Olivares  : DMRG
   Ulf Ekstrom                                   : XCFun DFT Library
   Mihaly Kallay                                 : mrcc  (arbitrary order and MRCC methods)
   Andreas Klamt, Michael Diedenhofen            : otool_cosmo (COSMO solvation model)
   Jiri Pittner, Ondrej Demel                    : Mk-CCSD
   Frank Weinhold                                : gennbo (NPA and NBO analysis)
   Christopher J. Cramer and Donald G. Truhlar   : smd solvation model
   Lars Goerigk                                  : TD-DFT with DH, B97 family of functionals
   V. Asgeirsson, H. Jonsson                     : NEB implementation
   FAccTs GmbH                                   : IRC, NEB, NEB-TS, Multilevel, MM, QM/MM, CI optimization
   S Lehtola, MJT Oliveira, MAL Marques          : LibXC Library


 Your calculation uses the libint2 library for the computation of 2-el integrals
 For citations please refer to: http://libint.valeyev.net

 Your ORCA version has been built with support for libXC version: 4.2.3
 For citations please refer to: https://tddft.org/programs/libxc/

 This ORCA versions uses:
   CBLAS   interface :  Fast vector & matrix operations
   LAPACKE interface :  Fast linear algebra routines
   SCALAPACK package :  Parallel linear algebra routines




***************************************
The coordinates will be read from file: 1.xyz
***************************************


Your calculation utilizes the atom-pairwise dispersion correction
with the Becke-Johnson damping scheme (D3BJ)
Cite in your paper:
S.Grimme, S.Ehrlich, L.Goerigk, J Comput Chem, (2011), 32, 1456–1465 
S.Grimme, J.Antony, S.Ehrlich and H.Krieg, J.Chem.Phys., 132, (2010), 154104 
   

----- Orbital basis set information -----
Your calculation utilizes the basis: def2-TZVP
   F. Weigend and R. Ahlrichs, Phys. Chem. Chem. Phys. 7, 3297 (2005).

----- AuxJ basis set information -----
Your calculation utilizes the auxiliary basis: def2/J
   F. Weigend, Phys. Chem. Chem. Phys. 8, 1057 (2006).

================================================================================
                                        WARNINGS
                       Please study these warnings very carefully!
================================================================================


WARNING: Geometry Optimization
  ===> : Switching off AutoStart
         For restart on a previous wavefunction, please use MOREAD

INFO   : the flag for use of LIBINT has been found!

================================================================================
                                       INPUT FILE
================================================================================
NAME = 1.inp
|  1> !RI BP86 def2-tzvp def2/J D3BJ VeryTightSCF VeryTightOpt Grid5 FinalGrid6 freq
|  2> %maxcore 4000
|  3> %pal nprocs 24
|  4> end
|  5> * xyzfile 0 1 1.xyz 
|  6> 
|  7>                          ****END OF INPUT****
================================================================================

                       *****************************
                       * Geometry Optimization Run *
                       *****************************

Geometry optimization settings:
Update method            Update   .... BFGS
Choice of coordinates    CoordSys .... Z-matrix Internals
Initial Hessian          InHess   .... Almoef's Model

Convergence Tolerances:
Energy Change            TolE     ....  2.0000e-07 Eh
Max. Gradient            TolMAXG  ....  3.0000e-05 Eh/bohr
RMS Gradient             TolRMSG  ....  8.0000e-06 Eh/bohr
Max. Displacement        TolMAXD  ....  2.0000e-04 bohr
RMS Displacement         TolRMSD  ....  1.0000e-04 bohr
Strict Convergence                ....  False
------------------------------------------------------------------------------
                        ORCA OPTIMIZATION COORDINATE SETUP
------------------------------------------------------------------------------

The optimization will be done in new redundant internal coordinates
Making redundant internal coordinates   ...  (new redundants) done
Evaluating the initial hessian          ...  (Almloef) done
Evaluating the coordinates              ...  done
Calculating the B-matrix                .... done
Calculating the G-matrix                .... done
Diagonalizing the G-matrix              .... done
Small eigenvalue found = 1.280e-03
Small eigenvalue found = 2.505e-03
Small eigenvalue found = 3.897e-03
Small eigenvalue found = 4.187e-03
Small eigenvalue found = 4.560e-03
Small eigenvalue found = 6.295e-03
Small eigenvalue found = 7.612e-03
Small eigenvalue found = 8.787e-03
Small eigenvalue found = 1.028e-02
Small eigenvalue found = 1.136e-02
Small eigenvalue found = 1.369e-02
Small eigenvalue found = 1.535e-02
Small eigenvalue found = 1.696e-02
Small eigenvalue found = 1.888e-02
Small eigenvalue found = 2.120e-02
Small eigenvalue found = 2.436e-02
Small eigenvalue found = 2.640e-02
Small eigenvalue found = 2.740e-02
Small eigenvalue found = 2.893e-02
The first mode is                       ....  328
The number of degrees of freedom        ....  339

    -----------------------------------------------------------------
                    Redundant Internal Coordinates


    -----------------------------------------------------------------
         Definition                    Initial Value    Approx d2E/dq
    -----------------------------------------------------------------
      1. B(C   1,O   0)                  1.2306         1.005167   
      2. B(C   2,C   1)                  1.5322         0.370584   
      3. B(C   3,C   2)                  1.5466         0.351499   
      4. B(C   4,C   3)                  1.5338         0.368441   
      5. B(C   5,C   4)                  1.5308         0.372506   
      6. B(N   6,C   5)                  1.4735         0.411735   
      7. B(N   6,C   2)                  1.4719         0.414203   
      8. B(C   7,N   6)                  1.3578         0.629756   
      9. B(O   8,C   7)                  1.2375         0.979885   
     10. B(N   9,C   1)                  1.3659         0.611372   
     11. B(C  10,N   9)                  1.4503         0.448470   
     12. B(C  11,C  10)                  1.5279         0.376480   
     13. B(N  12,C  11)                  1.3624         0.619264   
     14. B(C  13,N  12)                  1.4767         0.406976   
     15. B(C  14,C  13)                  1.5544         0.341503   
     16. B(N  15,C  14)                  1.3580         0.629336   
     17. B(C  16,N  15)                  1.4558         0.439413   
     18. B(C  17,C  16)                  1.5253         0.380069   
     19. B(C  18,C  17)                  1.5497         0.347554   
     20. B(C  19,C  18)                  1.5357         0.365861   
     21. B(N  20,C  19)                  1.3542         0.638270   
     22. B(C  21,N  20)                  1.4636         0.426945   
     23. B(C  22,C  21)                  1.5435         0.355507   
     24. B(N  23,C  22)                  1.3629         0.618140   
     25. B(C  24,N  23)                  1.4590         0.434349   
     26. B(C  24,C   7)                  1.5377         0.363186   
     27. B(C  25,C  24)                  1.5260         0.379144   
     28. B(O  26,C  22)                  1.2336         0.994212   
     29. B(C  27,C  21)                  1.5276         0.376861   
     30. B(C  28,C  27)                  1.5368         0.364350   
     31. B(C  29,C  28)                  1.5326         0.370088   
     32. B(C  30,C  28)                  1.5336         0.368691   
     33. B(O  31,C  19)                  1.2397         0.971967   
     34. B(C  32,C  18)                  1.5338         0.368426   
     35. B(C  33,C  32)                  1.5014         0.415027   
     36. B(C  34,C  33)                  1.5259         0.379298   
     37. B(C  35,C  34)                  1.5295         0.374229   
     38. B(C  36,C  35)                  1.5342         0.367807   
     39. B(C  37,C  36)                  1.5366         0.364582   
     40. B(C  38,C  37)                  1.5341         0.368056   
     41. B(C  39,C  38)                  1.5284         0.375814   
     42. B(C  40,C  39)                  1.5308         0.372539   
     43. B(C  41,C  40)                  1.5292         0.374669   
     44. B(O  42,C  32)                  1.2258         1.023061   
     45. B(O  43,C  17)                  1.4320         0.479626   
     46. B(O  44,C  14)                  1.2281         1.014158   
     47. B(C  45,C  13)                  1.5322         0.370540   
     48. B(C  46,C  45)                  1.5291         0.374845   
     49. B(O  47,C  11)                  1.2350         0.988986   
     50. B(C  48,C  10)                  1.5652         0.328270   
     51. B(C  49,C  48)                  1.5301         0.373397   
     52. B(C  50,C  48)                  1.5312         0.371937   
     53. B(H  51,C   2)                  1.0988         0.348675   
     54. B(H  52,C   3)                  1.0959         0.352437   
     55. B(H  53,C   3)                  1.1005         0.346534   
     56. B(H  54,C   4)                  1.0975         0.350303   
     57. B(H  55,C   4)                  1.0989         0.348471   
     58. B(H  56,C   5)                  1.1008         0.346138   
     59. B(H  57,C   5)                  1.0954         0.352982   
     60. B(H  58,N   9)                  1.0210         0.415509   
     61. B(H  59,C  10)                  1.1026         0.343838   
     62. B(H  60,N  12)                  1.0161         0.423111   
     63. B(H  61,C  13)                  1.1027         0.343741   
     64. B(H  62,N  15)                  1.0173         0.421319   
     65. B(H  63,C  16)                  1.0962         0.351936   
     66. B(H  64,C  16)                  1.1010         0.345797   
     67. B(H  65,C  17)                  1.1039         0.342162   
     68. B(H  66,C  18)                  1.1028         0.343591   
     69. B(H  67,O  47)                  1.8283         0.021409   
     70. B(H  67,N  20)                  1.0258         0.408250   
     71. B(H  68,C  21)                  1.1013         0.345467   
     72. B(H  69,N  23)                  1.0279         0.405136   
     73. B(H  70,C  24)                  1.0962         0.352024   
     74. B(H  71,C  25)                  1.0979         0.349778   
     75. B(H  72,C  25)                  1.0986         0.348916   
     76. B(H  73,C  25)                  1.0980         0.349625   
     77. B(H  74,C  27)                  1.1015         0.345234   
     78. B(H  75,C  27)                  1.0998         0.347396   
     79. B(H  76,C  28)                  1.1062         0.339260   
     80. B(H  77,O  44)                  4.0711         0.000006   
     81. B(H  77,C  29)                  1.0997         0.347505   
     82. B(H  78,C  29)                  1.1014         0.345306   
     83. B(H  79,C  29)                  1.1000         0.347169   
     84. B(H  80,C  30)                  1.1001         0.346967   
     85. B(H  81,C  30)                  1.1001         0.346975   
     86. B(H  82,H  56)                  4.8097         0.000000   
     87. B(H  82,C  30)                  1.0999         0.347194   
     88. B(H  83,C  33)                  1.1094         0.335361   
     89. B(H  84,O   8)                  2.1386         0.006849   
     90. B(H  84,C  33)                  1.1013         0.345481   
     91. B(H  85,C  34)                  1.1019         0.344655   
     92. B(H  86,C  34)                  1.1008         0.346061   
     93. B(H  87,H  59)                  4.3160         0.000000   
     94. B(H  87,C  35)                  1.1030         0.343265   
     95. B(H  88,C  35)                  1.0984         0.349096   
     96. B(H  89,C  36)                  1.1045         0.341390   
     97. B(H  90,C  36)                  1.1020         0.344598   
     98. B(H  91,C  37)                  1.1026         0.343821   
     99. B(H  92,C  37)                  1.1043         0.341722   
    100. B(H  93,H  51)                  2.3293         0.000727   
    101. B(H  93,C  38)                  1.1027         0.343661   
    102. B(H  94,C  38)                  1.1042         0.341735   
    103. B(H  95,C  39)                  1.1044         0.341538   
    104. B(H  96,C  39)                  1.1055         0.340215   
    105. B(H  97,H  72)                  2.9719         0.000069   
    106. B(H  97,C  40)                  1.1045         0.341391   
    107. B(H  98,C  40)                  1.1031         0.343183   
    108. B(H  99,C  41)                  1.1000         0.347168   
    109. B(H 100,C  41)                  1.1013         0.345420   
    110. B(H 101,C  41)                  1.1004         0.346644   
    111. B(H 102,O  43)                  0.9818         0.479909   
    112. B(H 103,C  45)                  1.0987         0.348771   
    113. B(H 104,C  45)                  1.1016         0.345028   
    114. B(H 105,C  46)                  1.0985         0.349065   
    115. B(H 106,C  46)                  1.0970         0.350940   
    116. B(H 107,C  46)                  1.1014         0.345376   
    117. B(H 108,C  48)                  1.1049         0.340975   
    118. B(H 109,C  49)                  1.0973         0.350542   
    119. B(H 110,C  49)                  1.0983         0.349327   
    120. B(H 111,C  49)                  1.0997         0.347524   
    121. B(H 112,C  50)                  1.0986         0.348958   
    122. B(H 113,C  50)                  1.0987         0.348812   
    123. B(H 114,C  50)                  1.0997         0.347435   
    124. A(O   0,C   1,N   9)          123.1635         0.466437   
    125. A(C   2,C   1,N   9)          116.8240         0.392633   
    126. A(O   0,C   1,C   2)          119.5237         0.428799   
    127. A(C   1,C   2,H  51)          105.2137         0.322183   
    128. A(N   6,C   2,H  51)          109.3209         0.326163   
    129. A(C   1,C   2,N   6)          117.1446         0.367020   
    130. A(C   1,C   2,C   3)          109.9225         0.359103   
    131. A(C   3,C   2,H  51)          111.7806         0.319409   
    132. A(C   3,C   2,N   6)          103.6105         0.363713   
    133. A(C   4,C   3,H  53)          109.9579         0.321553   
    134. A(C   4,C   3,H  52)          113.8511         0.322444   
    135. A(C   2,C   3,C   4)          104.3174         0.358749   
    136. A(C   2,C   3,H  53)          109.4582         0.319088   
    137. A(C   2,C   3,H  52)          111.2927         0.319970   
    138. A(H  52,C   3,H  53)          107.9021         0.288121   
    139. A(H  54,C   4,H  55)          108.0735         0.288098   
    140. A(C   3,C   4,H  55)          110.2525         0.321846   
    141. A(C   3,C   4,C   5)          103.4002         0.362316   
    142. A(C   3,C   4,H  54)          112.8577         0.322123   
    143. A(C   5,C   4,H  55)          109.8492         0.322425   
    144. A(C   5,C   4,H  54)          112.3617         0.322703   
    145. A(H  56,C   5,H  57)          107.8976         0.288139   
    146. A(C   4,C   5,N   6)          102.8761         0.366970   
    147. A(C   4,C   5,H  56)          112.7278         0.322071   
    148. A(N   6,C   5,H  57)          111.0486         0.326501   
    149. A(N   6,C   5,H  56)          109.9044         0.325451   
    150. A(C   4,C   5,H  57)          112.3610         0.323106   
    151. A(C   5,N   6,C   7)          128.1040         0.399473   
    152. A(C   2,N   6,C   7)          118.4089         0.399893   
    153. A(C   2,N   6,C   5)          112.5183         0.371383   
    154. A(O   8,C   7,C  24)          119.2971         0.425307   
    155. A(N   6,C   7,O   8)          120.7698         0.466792   
    156. A(N   6,C   7,C  24)          119.9308         0.393284   
    157. A(C   1,N   9,C  10)          120.8823         0.403421   
    158. A(C  10,N   9,H  58)          117.4534         0.337317   
    159. A(C   1,N   9,H  58)          121.1315         0.355358   
    160. A(C  48,C  10,H  59)          108.1934         0.315155   
    161. A(C  11,C  10,H  59)          110.7223         0.322279   
    162. A(N   9,C  10,C  11)          109.1507         0.373081   
    163. A(N   9,C  10,C  48)          112.6342         0.364405   
    164. A(N   9,C  10,H  59)          107.3021         0.329706   
    165. A(C  11,C  10,C  48)          108.8386         0.355907   
    166. A(N  12,C  11,O  47)          122.4268         0.466146   
    167. A(C  10,C  11,O  47)          121.3611         0.428765   
    168. A(C  10,C  11,N  12)          116.1385         0.394605   
    169. A(C  13,N  12,H  60)          116.5078         0.332919   
    170. A(C  11,N  12,C  13)          122.8616         0.397481   
    171. A(C  11,N  12,H  60)          116.8031         0.357231   
    172. A(C  14,C  13,C  45)          111.5559         0.357338   
    173. A(N  12,C  13,H  61)          105.1798         0.324459   
    174. A(C  14,C  13,H  61)          106.9774         0.317173   
    175. A(N  12,C  13,C  14)          111.3283         0.360840   
    176. A(C  45,C  13,H  61)          109.1190         0.321426   
    177. A(N  12,C  13,C  45)          112.3160         0.365907   
    178. A(C  13,C  14,N  15)          113.8292         0.389028   
    179. A(N  15,C  14,O  44)          123.6434         0.469685   
    180. A(C  13,C  14,O  44)          122.5151         0.423245   
    181. A(C  14,N  15,H  62)          119.8969         0.357954   
    182. A(C  16,N  15,H  62)          116.1187         0.336952   
    183. A(C  14,N  15,C  16)          123.3113         0.404031   
    184. A(H  63,C  16,H  64)          108.4884         0.287961   
    185. A(C  17,C  16,H  64)          108.3916         0.323081   
    186. A(N  15,C  16,H  63)          107.6661         0.329863   
    187. A(C  17,C  16,H  63)          111.9104         0.324016   
    188. A(N  15,C  16,C  17)          109.6728         0.372380   
    189. A(N  15,C  16,H  64)          110.7178         0.328905   
    190. A(O  43,C  17,H  65)          110.5289         0.333123   
    191. A(C  18,C  17,H  65)          108.7115         0.317843   
    192. A(C  16,C  17,H  65)          109.0447         0.322522   
    193. A(C  16,C  17,C  18)          112.5010         0.359960   
    194. A(C  18,C  17,O  43)          110.3641         0.372260   
    195. A(C  16,C  17,O  43)          105.6679         0.378052   
    196. A(C  19,C  18,H  66)          108.2997         0.320736   
    197. A(C  17,C  18,H  66)          108.4908         0.318059   
    198. A(C  17,C  18,C  32)          111.8381         0.358058   
    199. A(C  17,C  18,C  19)          110.8242         0.357633   
    200. A(C  19,C  18,C  32)          110.2801         0.361203   
    201. A(C  32,C  18,H  66)          106.9506         0.321102   
    202. A(C  18,C  19,N  20)          114.2283         0.394717   
    203. A(N  20,C  19,O  31)          123.6429         0.467246   
    204. A(C  18,C  19,O  31)          121.9990         0.425248   
    205. A(C  19,N  20,H  67)          120.1785         0.356896   
    206. A(C  19,N  20,C  21)          122.9388         0.402985   
    207. A(C  21,N  20,H  67)          115.5620         0.333591   
    208. A(C  27,C  21,H  68)          111.1620         0.322582   
    209. A(C  22,C  21,H  68)          108.7601         0.319519   
    210. A(N  20,C  21,H  68)          106.4515         0.327296   
    211. A(N  20,C  21,C  22)          106.7892         0.366314   
    212. A(C  22,C  21,C  27)          112.7186         0.360829   
    213. A(N  20,C  21,C  27)          110.6715         0.370000   
    214. A(C  21,C  22,N  23)          113.4191         0.390542   
    215. A(C  21,C  22,O  26)          123.4681         0.424786   
    216. A(N  23,C  22,O  26)          123.0548         0.466441   
    217. A(C  22,N  23,C  24)          118.9756         0.401931   
    218. A(C  24,N  23,H  69)          118.7254         0.334119   
    219. A(C  22,N  23,H  69)          116.4052         0.354499   
    220. A(C  25,C  24,H  70)          110.8497         0.323899   
    221. A(N  23,C  24,H  70)          106.4615         0.329245   
    222. A(C   7,C  24,H  70)          111.0115         0.321624   
    223. A(N  23,C  24,C  25)          110.5772         0.371481   
    224. A(C   7,C  24,N  23)          108.3609         0.368746   
    225. A(C   7,C  24,C  25)          109.5173         0.362520   
    226. A(H  71,C  25,H  73)          109.4022         0.288180   
    227. A(C  24,C  25,H  73)          110.0311         0.323536   
    228. A(H  71,C  25,H  72)          108.7327         0.288088   
    229. A(C  24,C  25,H  72)          110.4496         0.323428   
    230. A(C  24,C  25,H  71)          110.1908         0.323559   
    231. A(H  72,C  25,H  73)          107.9885         0.288069   
    232. A(C  28,C  27,H  75)          109.3031         0.321096   
    233. A(C  21,C  27,C  28)          113.9214         0.362345   
    234. A(H  74,C  27,H  75)          106.8155         0.287304   
    235. A(C  21,C  27,H  75)          108.3508         0.322877   
    236. A(C  28,C  27,H  74)          109.9391         0.320769   
    237. A(C  21,C  27,H  74)          108.2580         0.322546   
    238. A(C  29,C  28,C  30)          110.7610         0.361956   
    239. A(C  27,C  28,C  30)          112.9928         0.360992   
    240. A(C  27,C  28,C  29)          109.6629         0.361225   
    241. A(C  30,C  28,H  76)          107.8797         0.320474   
    242. A(C  29,C  28,H  76)          107.9504         0.320673   
    243. A(C  27,C  28,H  76)          107.3986         0.319855   
    244. A(C  28,C  29,H  79)          111.2397         0.321884   
    245. A(H  78,C  29,H  79)          107.7609         0.287284   
    246. A(H  77,C  29,H  79)          108.1974         0.287569   
    247. A(H  77,C  29,H  78)          107.6787         0.287327   
    248. A(C  28,C  29,H  78)          110.4581         0.321601   
    249. A(C  28,C  29,H  77)          111.3567         0.321935   
    250. A(H  81,C  30,H  82)          108.3467         0.287504   
    251. A(H  80,C  30,H  82)          107.4716         0.287503   
    252. A(C  28,C  30,H  82)          110.7361         0.321689   
    253. A(H  80,C  30,H  81)          107.3553         0.287474   
    254. A(C  28,C  30,H  81)          110.6399         0.321656   
    255. A(C  28,C  30,H  80)          112.1268         0.321654   
    256. A(C  33,C  32,O  42)          123.2889         0.439018   
    257. A(C  18,C  32,O  42)          121.3014         0.429708   
    258. A(C  18,C  32,C  33)          115.3082         0.369083   
    259. A(C  32,C  33,C  34)          115.7694         0.370932   
    260. A(C  34,C  33,H  84)          110.1753         0.322925   
    261. A(H  83,C  33,H  84)          105.0043         0.285760   
    262. A(C  32,C  33,H  84)          109.5712         0.327740   
    263. A(C  34,C  33,H  83)          110.3964         0.321357   
    264. A(C  32,C  33,H  83)          105.2924         0.326139   
    265. A(C  33,C  34,C  35)          110.9290         0.364406   
    266. A(H  85,C  34,H  86)          106.3655         0.287056   
    267. A(C  35,C  34,H  86)          111.6859         0.322303   
    268. A(C  33,C  34,H  86)          110.2489         0.323014   
    269. A(C  35,C  34,H  85)          109.3641         0.322088   
    270. A(C  33,C  34,H  85)          108.0756         0.322799   
    271. A(C  34,C  35,C  36)          114.6592         0.362495   
    272. A(H  87,C  35,H  88)          105.5340         0.287266   
    273. A(C  36,C  35,H  88)          109.0755         0.321850   
    274. A(C  34,C  35,H  88)          107.4944         0.322764   
    275. A(C  36,C  35,H  87)          109.6184         0.320964   
    276. A(C  34,C  35,H  87)          110.0382         0.321875   
    277. A(C  35,C  36,C  37)          111.6488         0.360883   
    278. A(H  89,C  36,H  90)          106.0618         0.286440   
    279. A(C  37,C  36,H  90)          110.4648         0.320705   
    280. A(C  35,C  36,H  90)          110.3117         0.321168   
    281. A(C  37,C  36,H  89)          108.7357         0.320215   
    282. A(C  35,C  36,H  89)          109.4454         0.320677   
    283. A(C  36,C  37,C  38)          112.0535         0.360925   
    284. A(H  91,C  37,H  92)          106.3278         0.286383   
    285. A(C  38,C  37,H  92)          109.3290         0.320763   
    286. A(C  36,C  37,H  92)          108.8862         0.320266   
    287. A(C  38,C  37,H  91)          109.4623         0.321085   
    288. A(C  36,C  37,H  91)          110.6092         0.320587   
    289. A(C  37,C  38,C  39)          114.2253         0.362799   
    290. A(H  93,C  38,H  94)          105.5882         0.286364   
    291. A(C  39,C  38,H  94)          109.4836         0.321862   
    292. A(C  37,C  38,H  94)          109.0972         0.320765   
    293. A(C  39,C  38,H  93)          108.8212         0.322158   
    294. A(C  37,C  38,H  93)          109.2689         0.321060   
    295. A(C  38,C  39,C  40)          113.1814         0.363550   
    296. A(H  95,C  39,H  96)          105.6771         0.285888   
    297. A(C  40,C  39,H  96)          109.1490         0.321167   
    298. A(C  38,C  39,H  96)          109.0753         0.321627   
    299. A(C  40,C  39,H  95)          109.3994         0.321371   
    300. A(C  38,C  39,H  95)          110.0799         0.321832   
    301. A(C  39,C  40,C  41)          113.2654         0.363361   
    302. A(H  97,C  40,H  98)          105.6689         0.286257   
    303. A(C  41,C  40,H  98)          109.6598         0.321924   
    304. A(C  39,C  40,H  98)          109.2670         0.321624   
    305. A(C  41,C  40,H  97)          109.8538         0.321648   
    306. A(C  39,C  40,H  97)          108.8419         0.321348   
    307. A(H 100,C  41,H 101)          107.1260         0.287231   
    308. A(H  99,C  41,H 101)          107.5829         0.287457   
    309. A(C  40,C  41,H 101)          111.0273         0.322454   
    310. A(H  99,C  41,H 100)          107.8326         0.287299   
    311. A(C  40,C  41,H 100)          111.1191         0.322267   
    312. A(C  40,C  41,H  99)          111.9388         0.322533   
    313. A(C  17,O  43,H 102)          104.4506         0.349479   
    314. A(C  13,C  45,C  46)          112.6926         0.363056   
    315. A(C  46,C  45,H 104)          110.0472         0.322232   
    316. A(C  13,C  45,H 104)          107.7432         0.321623   
    317. A(C  46,C  45,H 103)          110.2600         0.322802   
    318. A(C  13,C  45,H 103)          108.1197         0.322191   
    319. A(H 103,C  45,H 104)          107.8193         0.287454   
    320. A(H 106,C  46,H 107)          108.5161         0.287779   
    321. A(H 105,C  46,H 107)          107.6011         0.287538   
    322. A(C  45,C  46,H 107)          111.3103         0.322285   
    323. A(H 105,C  46,H 106)          107.9313         0.288257   
    324. A(C  45,C  46,H 106)          110.7954         0.323130   
    325. A(C  45,C  46,H 105)          110.5591         0.322847   
    326. A(C  50,C  48,H 108)          108.2403         0.321199   
    327. A(C  49,C  48,H 108)          107.6548         0.321405   
    328. A(C  10,C  48,H 108)          105.9922         0.314727   
    329. A(C  49,C  48,C  50)          111.3732         0.363049   
    330. A(C  10,C  48,C  50)          111.5766         0.355175   
    331. A(C  10,C  48,C  49)          111.7164         0.355411   
    332. A(H 110,C  49,H 111)          107.6995         0.287850   
    333. A(H 109,C  49,H 111)          108.8702         0.288007   
    334. A(C  48,C  49,H 111)          109.8206         0.322408   
    335. A(H 109,C  49,H 110)          107.2809         0.288240   
    336. A(C  48,C  49,H 110)          111.0994         0.322682   
    337. A(C  48,C  49,H 109)          111.9335         0.322865   
    338. A(H 113,C  50,H 114)          107.7255         0.287772   
    339. A(H 112,C  50,H 114)          107.6261         0.287791   
    340. A(C  48,C  50,H 114)          110.4705         0.322188   
    341. A(H 112,C  50,H 113)          108.0879         0.287969   
    342. A(C  48,C  50,H 113)          110.2995         0.322396   
    343. A(C  48,C  50,H 112)          112.4652         0.322419   
    344. D(H  51,C   2,C   1,N   9)   -157.0734         0.010282   
    345. D(C   3,C   2,C   1,N   9)     82.4243         0.010282   
    346. D(N   6,C   2,C   1,N   9)    -35.4223         0.010282   
    347. D(N   6,C   2,C   1,O   0)    152.3428         0.010282   
    348. D(C   3,C   2,C   1,O   0)    -89.8105         0.010282   
    349. D(H  51,C   2,C   1,O   0)     30.6918         0.010282   
    350. D(C   4,C   3,C   2,N   6)    -23.5356         0.009948   
    351. D(H  53,C   3,C   2,H  51)   -148.3020         0.009948   
    352. D(H  53,C   3,C   2,C   1)    -31.8528         0.009948   
    353. D(C   4,C   3,C   2,H  51)     94.0668         0.009948   
    354. D(H  53,C   3,C   2,N   6)     94.0955         0.009948   
    355. D(H  52,C   3,C   2,H  51)    -29.1197         0.009948   
    356. D(C   4,C   3,C   2,C   1)   -149.4840         0.009948   
    357. D(H  52,C   3,C   2,C   1)     87.3295         0.009948   
    358. D(H  52,C   3,C   2,N   6)   -146.7222         0.009948   
    359. D(H  55,C   4,C   3,H  53)    161.0928         0.010857   
    360. D(H  55,C   4,C   3,H  52)     39.8867         0.010857   
    361. D(H  54,C   4,C   3,H  52)    -81.0706         0.010857   
    362. D(H  55,C   4,C   3,C   2)    -81.6204         0.010857   
    363. D(H  54,C   4,C   3,H  53)     40.1354         0.010857   
    364. D(C   5,C   4,C   3,C   2)     35.7636         0.010857   
    365. D(H  54,C   4,C   3,C   2)    157.4222         0.010857   
    366. D(C   5,C   4,C   3,H  53)    -81.5232         0.010857   
    367. D(C   5,C   4,C   3,H  52)    157.2708         0.010857   
    368. D(N   6,C   5,C   4,C   3)    -33.7462         0.011084   
    369. D(H  57,C   5,C   4,C   3)   -153.2458         0.011084   
    370. D(H  56,C   5,C   4,H  55)   -157.7602         0.011084   
    371. D(H  56,C   5,C   4,C   3)     84.5732         0.011084   
    372. D(H  57,C   5,C   4,H  54)     84.7628         0.011084   
    373. D(H  56,C   5,C   4,H  54)    -37.4182         0.011084   
    374. D(H  57,C   5,C   4,H  55)    -35.5792         0.011084   
    375. D(N   6,C   5,C   4,H  54)   -155.7377         0.011084   
    376. D(N   6,C   5,C   4,H  55)     83.9203         0.011084   
    377. D(C   5,N   6,C   2,C   3)      2.1946         0.014632   
    378. D(C   7,N   6,C   5,H  57)    -28.0654         0.014461   
    379. D(C   7,N   6,C   5,H  56)     91.2456         0.014461   
    380. D(C   7,N   6,C   5,C   4)   -148.4716         0.014461   
    381. D(C   2,N   6,C   5,H  57)    140.3513         0.014461   
    382. D(C   2,N   6,C   5,H  56)   -100.3377         0.014461   
    383. D(C   7,N   6,C   2,H  51)     52.5419         0.014632   
    384. D(C   2,N   6,C   5,C   4)     19.9451         0.014461   
    385. D(C   7,N   6,C   2,C   3)    171.8462         0.014632   
    386. D(C   5,N   6,C   2,C   1)    123.4013         0.014632   
    387. D(C   7,N   6,C   2,C   1)    -66.9472         0.014632   
    388. D(C   5,N   6,C   2,H  51)   -117.1097         0.014632   
    389. D(C  24,C   7,N   6,C   5)     -5.5899         0.032194   
    390. D(C  24,C   7,N   6,C   2)   -173.4161         0.032194   
    391. D(O   8,C   7,N   6,C   5)    174.9639         0.032194   
    392. D(O   8,C   7,N   6,C   2)      7.1377         0.032194   
    393. D(H  58,N   9,C   1,O   0)   -167.4332         0.030201   
    394. D(C  10,N   9,C   1,C   2)   -167.9443         0.030201   
    395. D(H  58,N   9,C   1,C   2)     20.6404         0.030201   
    396. D(C  10,N   9,C   1,O   0)      3.9821         0.030201   
    397. D(H  59,C  10,N   9,C   1)    -27.4850         0.017156   
    398. D(C  48,C  10,N   9,H  58)    -96.8038         0.017156   
    399. D(C  48,C  10,N   9,C   1)     91.4750         0.017156   
    400. D(C  11,C  10,N   9,C   1)   -147.5180         0.017156   
    401. D(H  59,C  10,N   9,H  58)    144.2363         0.017156   
    402. D(C  11,C  10,N   9,H  58)     24.2032         0.017156   
    403. D(O  47,C  11,C  10,N   9)    -16.5999         0.010589   
    404. D(N  12,C  11,C  10,H  59)     48.5430         0.010589   
    405. D(N  12,C  11,C  10,C  48)    -70.2594         0.010589   
    406. D(N  12,C  11,C  10,N   9)    166.4468         0.010589   
    407. D(O  47,C  11,C  10,H  59)   -134.5037         0.010589   
    408. D(O  47,C  11,C  10,C  48)    106.6940         0.010589   
    409. D(H  60,N  12,C  11,O  47)   -175.3903         0.031047   
    410. D(H  60,N  12,C  11,C  10)      1.5275         0.031047   
    411. D(C  13,N  12,C  11,O  47)    -18.2213         0.031047   
    412. D(C  13,N  12,C  11,C  10)    158.6965         0.031047   
    413. D(H  61,C  13,N  12,C  11)    175.6425         0.014133   
    414. D(H  61,C  13,N  12,H  60)    -27.1262         0.014133   
    415. D(C  45,C  13,N  12,H  60)     91.4424         0.014133   
    416. D(C  45,C  13,N  12,C  11)    -65.7890         0.014133   
    417. D(C  14,C  13,N  12,C  11)     60.1285         0.014133   
    418. D(C  14,C  13,N  12,H  60)   -142.6402         0.014133   
    419. D(O  44,C  14,C  13,C  45)      7.8580         0.008854   
    420. D(O  44,C  14,C  13,N  12)   -118.4788         0.008854   
    421. D(N  15,C  14,C  13,H  61)    -51.6458         0.008854   
    422. D(N  15,C  14,C  13,C  45)   -170.9084         0.008854   
    423. D(O  44,C  14,C  13,H  61)    127.1205         0.008854   
    424. D(N  15,C  14,C  13,N  12)     62.7548         0.008854   
    425. D(H  62,N  15,C  14,O  44)   -178.7893         0.032148   
    426. D(H  62,N  15,C  14,C  13)     -0.0389         0.032148   
    427. D(C  16,N  15,C  14,O  44)     10.9861         0.032148   
    428. D(C  16,N  15,C  14,C  13)   -170.2635         0.032148   
    429. D(H  64,C  16,N  15,H  62)     83.9444         0.016464   
    430. D(H  64,C  16,N  15,C  14)   -105.4908         0.016464   
    431. D(H  63,C  16,N  15,H  62)   -157.6131         0.016464   
    432. D(H  63,C  16,N  15,C  14)     12.9517         0.016464   
    433. D(C  17,C  16,N  15,C  14)    134.9413         0.016464   
    434. D(C  17,C  16,N  15,H  62)    -35.6234         0.016464   
    435. D(H  65,C  17,C  16,H  64)     61.1600         0.011513   
    436. D(H  65,C  17,C  16,H  63)    -58.4393         0.011513   
    437. D(H  65,C  17,C  16,N  15)   -177.8567         0.011513   
    438. D(O  43,C  17,C  16,H  64)    -57.6643         0.011513   
    439. D(O  43,C  17,C  16,H  63)   -177.2635         0.011513   
    440. D(O  43,C  17,C  16,N  15)     63.3190         0.011513   
    441. D(C  18,C  17,C  16,H  64)   -178.1537         0.011513   
    442. D(C  18,C  17,C  16,H  63)     62.2470         0.011513   
    443. D(C  18,C  17,C  16,N  15)    -57.1704         0.011513   
    444. D(H  66,C  18,C  17,H  65)    167.8678         0.009743   
    445. D(H  66,C  18,C  17,O  43)    -70.7561         0.009743   
    446. D(H  66,C  18,C  17,C  16)     46.9902         0.009743   
    447. D(C  32,C  18,C  17,O  43)     46.9670         0.009743   
    448. D(C  32,C  18,C  17,C  16)    164.7134         0.009743   
    449. D(C  32,C  18,C  17,H  65)    -74.4091         0.009743   
    450. D(C  19,C  18,C  17,H  65)     49.0901         0.009743   
    451. D(C  19,C  18,C  17,O  43)    170.4662         0.009743   
    452. D(C  19,C  18,C  17,C  16)    -71.7875         0.009743   
    453. D(O  31,C  19,C  18,H  66)    154.9081         0.010040   
    454. D(O  31,C  19,C  18,C  32)     38.1917         0.010040   
    455. D(O  31,C  19,C  18,C  17)    -86.1987         0.010040   
    456. D(N  20,C  19,C  18,H  66)    -29.0922         0.010040   
    457. D(N  20,C  19,C  18,C  17)     89.8010         0.010040   
    458. D(N  20,C  19,C  18,C  32)   -145.8086         0.010040   
    459. D(H  67,N  20,C  19,O  31)   -166.1869         0.033144   
    460. D(H  67,N  20,C  19,C  18)     17.8882         0.033144   
    461. D(C  21,N  20,C  19,O  31)      0.1008         0.033144   
    462. D(C  21,N  20,C  19,C  18)   -175.8240         0.033144   
    463. D(H  68,C  21,N  20,H  67)   -161.9041         0.015541   
    464. D(H  68,C  21,N  20,C  19)     31.2253         0.015541   
    465. D(C  27,C  21,N  20,H  67)    -40.9914         0.015541   
    466. D(C  27,C  21,N  20,C  19)    152.1380         0.015541   
    467. D(C  22,C  21,N  20,H  67)     82.0330         0.015541   
    468. D(C  22,C  21,N  20,C  19)    -84.8376         0.015541   
    469. D(N  23,C  22,C  21,C  27)   -158.4152         0.009524   
    470. D(N  23,C  22,C  21,N  20)     79.8448         0.009524   
    471. D(O  26,C  22,C  21,H  68)    148.0299         0.009524   
    472. D(O  26,C  22,C  21,C  27)     24.2821         0.009524   
    473. D(O  26,C  22,C  21,N  20)    -97.4579         0.009524   
    474. D(N  23,C  22,C  21,H  68)    -34.6673         0.009524   
    475. D(H  69,N  23,C  22,O  26)    161.4395         0.030926   
    476. D(H  69,N  23,C  22,C  21)    -15.8760         0.030926   
    477. D(C  24,N  23,C  22,O  26)      8.7766         0.030926   
    478. D(C  24,N  23,C  22,C  21)   -168.5389         0.030926   
    479. D(H  70,C  24,N  23,H  69)    158.8436         0.016085   
    480. D(H  70,C  24,N  23,C  22)    -49.1282         0.016085   
    481. D(C  25,C  24,N  23,H  69)     38.3560         0.016085   
    482. D(C  25,C  24,N  23,C  22)   -169.6158         0.016085   
    483. D(C   7,C  24,N  23,H  69)    -81.6839         0.016085   
    484. D(C   7,C  24,N  23,C  22)     70.3443         0.016085   
    485. D(H  70,C  24,C   7,O   8)   -179.9038         0.009905   
    486. D(H  70,C  24,C   7,N   6)      0.6418         0.009905   
    487. D(C  25,C  24,C   7,O   8)    -57.1754         0.009905   
    488. D(C  25,C  24,C   7,N   6)    123.3702         0.009905   
    489. D(N  23,C  24,C   7,O   8)     63.5245         0.009905   
    490. D(N  23,C  24,C   7,N   6)   -115.9299         0.009905   
    491. D(H  73,C  25,C  24,H  70)    179.2628         0.011460   
    492. D(H  73,C  25,C  24,N  23)    -62.9057         0.011460   
    493. D(H  73,C  25,C  24,C   7)     56.4383         0.011460   
    494. D(H  72,C  25,C  24,H  70)     60.1345         0.011460   
    495. D(H  72,C  25,C  24,N  23)    177.9660         0.011460   
    496. D(H  72,C  25,C  24,C   7)    -62.6900         0.011460   
    497. D(H  71,C  25,C  24,H  70)    -60.0192         0.011460   
    498. D(H  71,C  25,C  24,N  23)     57.8123         0.011460   
    499. D(H  71,C  25,C  24,C   7)    177.1563         0.011460   
    500. D(H  75,C  27,C  21,H  68)     87.0650         0.011329   
    501. D(H  75,C  27,C  21,C  22)   -150.5267         0.011329   
    502. D(H  75,C  27,C  21,N  20)    -31.0106         0.011329   
    503. D(H  74,C  27,C  21,H  68)   -157.4434         0.011329   
    504. D(H  74,C  27,C  21,C  22)    -35.0351         0.011329   
    505. D(H  74,C  27,C  21,N  20)     84.4810         0.011329   
    506. D(C  28,C  27,C  21,H  68)    -34.8151         0.011329   
    507. D(C  28,C  27,C  21,C  22)     87.5932         0.011329   
    508. D(C  28,C  27,C  21,N  20)   -152.8907         0.011329   
    509. D(H  76,C  28,C  27,H  75)    -60.0188         0.010633   
    510. D(H  76,C  28,C  27,H  74)   -176.9635         0.010633   
    511. D(H  76,C  28,C  27,C  21)     61.3339         0.010633   
    512. D(C  30,C  28,C  27,H  75)   -178.8657         0.010633   
    513. D(C  30,C  28,C  27,H  74)     64.1897         0.010633   
    514. D(C  30,C  28,C  27,C  21)    -57.5130         0.010633   
    515. D(C  29,C  28,C  27,H  75)     57.0421         0.010633   
    516. D(C  29,C  28,C  27,H  74)    -59.9025         0.010633   
    517. D(C  29,C  28,C  27,C  21)    178.3948         0.010633   
    518. D(H  79,C  29,C  28,C  30)     58.2467         0.010949   
    519. D(H  79,C  29,C  28,C  27)   -176.3686         0.010949   
    520. D(H  78,C  29,C  28,H  76)   -179.2783         0.010949   
    521. D(H  78,C  29,C  28,C  30)    -61.3771         0.010949   
    522. D(H  78,C  29,C  28,C  27)     64.0075         0.010949   
    523. D(H  77,C  29,C  28,H  76)     61.1249         0.010949   
    524. D(H  77,C  29,C  28,C  30)    179.0261         0.010949   
    525. D(H  79,C  29,C  28,H  76)    -59.6545         0.010949   
    526. D(H  77,C  29,C  28,C  27)    -55.5892         0.010949   
    527. D(H  82,C  30,C  28,H  76)   -176.8355         0.010871   
    528. D(H  82,C  30,C  28,C  29)     65.2202         0.010871   
    529. D(H  82,C  30,C  28,C  27)    -58.2679         0.010871   
    530. D(H  81,C  30,C  28,H  76)     63.0152         0.010871   
    531. D(H  81,C  30,C  28,C  29)    -54.9292         0.010871   
    532. D(H  81,C  30,C  28,C  27)   -178.4173         0.010871   
    533. D(H  80,C  30,C  28,H  76)    -56.8033         0.010871   
    534. D(H  80,C  30,C  28,C  29)   -174.7477         0.010871   
    535. D(H  80,C  30,C  28,C  27)     61.7643         0.010871   
    536. D(O  42,C  32,C  18,H  66)    134.3975         0.010171   
    537. D(O  42,C  32,C  18,C  19)   -108.0498         0.010171   
    538. D(O  42,C  32,C  18,C  17)     15.7558         0.010171   
    539. D(C  33,C  32,C  18,H  66)    -42.0558         0.010171   
    540. D(C  33,C  32,C  18,C  19)     75.4969         0.010171   
    541. D(C  33,C  32,C  18,C  17)   -160.6975         0.010171   
    542. D(H  84,C  33,C  32,O  42)    147.0570         0.012746   
    543. D(H  84,C  33,C  32,C  18)    -36.5684         0.012746   
    544. D(H  83,C  33,C  32,O  42)   -100.4816         0.012746   
    545. D(H  83,C  33,C  32,C  18)     75.8929         0.012746   
    546. D(C  34,C  33,C  32,O  42)     21.7405         0.012746   
    547. D(C  34,C  33,C  32,C  18)   -161.8849         0.012746   
    548. D(H  86,C  34,C  33,H  84)   -177.1487         0.011468   
    549. D(H  86,C  34,C  33,H  83)     67.3274         0.011468   
    550. D(H  86,C  34,C  33,C  32)    -52.1422         0.011468   
    551. D(H  85,C  34,C  33,H  84)    -61.2797         0.011468   
    552. D(H  85,C  34,C  33,H  83)   -176.8036         0.011468   
    553. D(H  85,C  34,C  33,C  32)     63.7268         0.011468   
    554. D(C  35,C  34,C  33,H  84)     58.6041         0.011468   
    555. D(C  35,C  34,C  33,H  83)    -56.9198         0.011468   
    556. D(C  35,C  34,C  33,C  32)   -176.3894         0.011468   
    557. D(H  88,C  35,C  34,H  86)   -169.8540         0.011180   
    558. D(H  88,C  35,C  34,H  85)     72.6836         0.011180   
    559. D(H  88,C  35,C  34,C  33)    -46.4284         0.011180   
    560. D(H  87,C  35,C  34,H  86)    -55.4071         0.011180   
    561. D(H  87,C  35,C  34,H  85)   -172.8695         0.011180   
    562. D(H  87,C  35,C  34,C  33)     68.0185         0.011180   
    563. D(C  36,C  35,C  34,H  86)     68.6964         0.011180   
    564. D(C  36,C  35,C  34,H  85)    -48.7660         0.011180   
    565. D(C  36,C  35,C  34,C  33)   -167.8779         0.011180   
    566. D(H  90,C  36,C  35,H  87)     43.6888         0.010822   
    567. D(H  90,C  36,C  35,C  34)    -80.6374         0.010822   
    568. D(H  89,C  36,C  35,H  88)    -84.8878         0.010822   
    569. D(H  89,C  36,C  35,H  87)    160.0189         0.010822   
    570. D(H  89,C  36,C  35,C  34)     35.6927         0.010822   
    571. D(C  37,C  36,C  35,H  88)     35.5506         0.010822   
    572. D(C  37,C  36,C  35,H  87)    -79.5427         0.010822   
    573. D(H  90,C  36,C  35,H  88)    158.7821         0.010822   
    574. D(C  37,C  36,C  35,C  34)    156.1311         0.010822   
    575. D(H  92,C  37,C  36,H  90)    -76.6068         0.010646   
    576. D(H  92,C  37,C  36,H  89)    167.3907         0.010646   
    577. D(H  92,C  37,C  36,C  35)     46.5377         0.010646   
    578. D(H  91,C  37,C  36,H  90)     39.8867         0.010646   
    579. D(H  91,C  37,C  36,H  89)    -76.1158         0.010646   
    580. D(H  91,C  37,C  36,C  35)    163.0312         0.010646   
    581. D(C  38,C  37,C  36,H  90)    162.3266         0.010646   
    582. D(C  38,C  37,C  36,H  89)     46.3241         0.010646   
    583. D(C  38,C  37,C  36,C  35)    -74.5289         0.010646   
    584. D(H  94,C  38,C  37,H  92)    167.3106         0.010836   
    585. D(H  94,C  38,C  37,H  91)     51.2110         0.010836   
    586. D(H  94,C  38,C  37,C  36)    -71.8787         0.010836   
    587. D(H  93,C  38,C  37,H  92)    -77.7106         0.010836   
    588. D(H  93,C  38,C  37,H  91)    166.1898         0.010836   
    589. D(H  93,C  38,C  37,C  36)     43.1001         0.010836   
    590. D(C  39,C  38,C  37,H  92)     44.4341         0.010836   
    591. D(C  39,C  38,C  37,H  91)    -71.6654         0.010836   
    592. D(C  39,C  38,C  37,C  36)    165.2448         0.010836   
    593. D(H  95,C  39,C  38,H  94)    -63.4747         0.011270   
    594. D(H  95,C  39,C  38,H  93)   -178.4188         0.011270   
    595. D(H  95,C  39,C  38,C  37)     59.1917         0.011270   
    596. D(C  40,C  39,C  38,H  94)     59.2936         0.011270   
    597. D(C  40,C  39,C  38,H  93)    -55.6506         0.011270   
    598. D(C  40,C  39,C  38,C  37)   -178.0400         0.011270   
    599. D(H  96,C  39,C  38,H  94)   -178.9948         0.011270   
    600. D(H  96,C  39,C  38,H  93)     66.0611         0.011270   
    601. D(H  96,C  39,C  38,C  37)    -56.3284         0.011270   
    602. D(H  98,C  40,C  39,H  95)     64.6611         0.011085   
    603. D(H  98,C  40,C  39,C  38)    -58.4839         0.011085   
    604. D(H  97,C  40,C  39,H  96)    -65.2197         0.011085   
    605. D(H  97,C  40,C  39,H  95)    179.5955         0.011085   
    606. D(H  97,C  40,C  39,C  38)     56.4506         0.011085   
    607. D(C  41,C  40,C  39,H  96)     57.2825         0.011085   
    608. D(C  41,C  40,C  39,H  95)    -57.9022         0.011085   
    609. D(H  98,C  40,C  39,H  96)    179.8458         0.011085   
    610. D(C  41,C  40,C  39,C  38)    178.9528         0.011085   
    611. D(H 101,C  41,C  40,H  98)    -61.3037         0.011205   
    612. D(H 101,C  41,C  40,H  97)   -177.0203         0.011205   
    613. D(H 101,C  41,C  40,C  39)     61.0413         0.011205   
    614. D(H 100,C  41,C  40,H  98)    179.5739         0.011205   
    615. D(H 100,C  41,C  40,H  97)     63.8573         0.011205   
    616. D(H 100,C  41,C  40,C  39)    -58.0811         0.011205   
    617. D(H  99,C  41,C  40,H  98)     58.9439         0.011205   
    618. D(H  99,C  41,C  40,H  97)    -56.7727         0.011205   
    619. D(H  99,C  41,C  40,C  39)   -178.7111         0.011205   
    620. D(H 102,O  43,C  17,H  65)     59.0570         0.018147   
    621. D(H 102,O  43,C  17,C  18)    -61.2336         0.018147   
    622. D(H 102,O  43,C  17,C  16)    176.8908         0.018147   
    623. D(H 104,C  45,C  13,H  61)     73.9685         0.010974   
    624. D(H 104,C  45,C  13,C  14)   -168.0477         0.010974   
    625. D(H 104,C  45,C  13,N  12)    -42.2540         0.010974   
    626. D(H 103,C  45,C  13,H  61)   -169.7508         0.010974   
    627. D(H 103,C  45,C  13,C  14)    -51.7670         0.010974   
    628. D(H 103,C  45,C  13,N  12)     74.0268         0.010974   
    629. D(C  46,C  45,C  13,H  61)    -47.6266         0.010974   
    630. D(C  46,C  45,C  13,C  14)     70.3572         0.010974   
    631. D(C  46,C  45,C  13,N  12)   -163.8491         0.010974   
    632. D(H 107,C  46,C  45,H 104)    -61.6836         0.011215   
    633. D(H 107,C  46,C  45,H 103)    179.5050         0.011215   
    634. D(H 107,C  46,C  45,C  13)     58.5957         0.011215   
    635. D(H 106,C  46,C  45,H 104)    177.4673         0.011215   
    636. D(H 106,C  46,C  45,H 103)     58.6559         0.011215   
    637. D(H 106,C  46,C  45,C  13)    -62.2534         0.011215   
    638. D(H 105,C  46,C  45,H 104)     57.8523         0.011215   
    639. D(H 105,C  46,C  45,H 103)    -60.9592         0.011215   
    640. D(H 105,C  46,C  45,C  13)    178.1315         0.011215   
    641. D(H 108,C  48,C  10,H  59)    -63.2978         0.008785   
    642. D(H 108,C  48,C  10,C  11)     57.0781         0.008785   
    643. D(H 108,C  48,C  10,N   9)    178.2633         0.008785   
    644. D(C  50,C  48,C  10,H  59)    179.0904         0.008785   
    645. D(C  50,C  48,C  10,C  11)    -60.5336         0.008785   
    646. D(C  50,C  48,C  10,N   9)     60.6516         0.008785   
    647. D(C  49,C  48,C  10,H  59)     53.6860         0.008785   
    648. D(C  49,C  48,C  10,C  11)    174.0620         0.008785   
    649. D(C  49,C  48,C  10,N   9)    -64.7529         0.008785   
    650. D(H 111,C  49,C  48,C  50)     59.7245         0.011134   
    651. D(H 111,C  49,C  48,C  10)   -174.7587         0.011134   
    652. D(H 110,C  49,C  48,H 108)   -177.8271         0.011134   
    653. D(H 110,C  49,C  48,C  50)    -59.3185         0.011134   
    654. D(H 110,C  49,C  48,C  10)     66.1983         0.011134   
    655. D(H 109,C  49,C  48,H 108)     62.2639         0.011134   
    656. D(H 109,C  49,C  48,C  50)   -179.2276         0.011134   
    657. D(H 111,C  49,C  48,H 108)    -58.7841         0.011134   
    658. D(H 109,C  49,C  48,C  10)    -53.7108         0.011134   
    659. D(H 114,C  50,C  48,H 108)   -178.9538         0.011052   
    660. D(H 114,C  50,C  48,C  49)     62.8894         0.011052   
    661. D(H 114,C  50,C  48,C  10)    -62.7050         0.011052   
    662. D(H 113,C  50,C  48,H 108)     62.0611         0.011052   
    663. D(H 113,C  50,C  48,C  49)    -56.0958         0.011052   
    664. D(H 113,C  50,C  48,C  10)    178.3098         0.011052   
    665. D(H 112,C  50,C  48,H 108)    -58.6811         0.011052   
    666. D(H 112,C  50,C  48,C  49)   -176.8379         0.011052   
    667. D(H 112,C  50,C  48,C  10)     57.5677         0.011052   
    -----------------------------------------------------------------

Number of atoms                         .... 115
Number of degrees of freedom            .... 667

         *************************************************************
         *                GEOMETRY OPTIMIZATION CYCLE   1            *
         *************************************************************
---------------------------------
CARTESIAN COORDINATES (ANGSTROEM)
---------------------------------
  O     -2.953689    1.035070   -1.059278
  C     -1.815741    1.438032   -0.820540
  C     -1.612441    2.569603    0.192285
  C     -1.669551    3.937434   -0.527220
  C     -0.740690    4.838257    0.296294
  C      0.378907    3.889574    0.731943
  N     -0.326484    2.607809    0.907365
  C     -0.044242    1.609036    1.782889
  O     -0.785814    0.623008    1.878980
  N     -0.718614    1.043016   -1.531871
  C     -0.852414    0.173207   -2.684601
  C      0.382520   -0.720964   -2.783837
  N      0.288450   -1.782228   -3.632990
  C      1.470449   -2.462862   -4.198876
  C      2.371950   -3.054683   -3.079364
  N      1.763675   -4.013721   -2.334722
  C      2.335562   -4.559330   -1.112163
  C      1.260134   -4.639625   -0.033472
  C      0.604683   -3.265149    0.253968
  C      1.577642   -2.342102    1.002064
  N      2.356268   -1.583668    0.194378
  C      3.409961   -0.703754    0.702072
  C      2.732407    0.630024    1.081981
  N      2.104447    0.593504    2.291059
  C      1.216337    1.690770    2.659650
  C      0.821823    1.590556    4.130333
  O      2.713658    1.618035    0.343650
  C      4.514501   -0.528963   -0.338625
  C      5.893471   -0.215325    0.262909
  C      6.931218   -0.099656   -0.858885
  C      5.893552    1.045694    1.135666
  O      1.682379   -2.360603    2.237204
  C     -0.702899   -3.410324    1.042402
  C     -1.624973   -2.227148    0.979589
  C     -2.695122   -2.161737    2.065294
  C     -3.624124   -0.966716    1.845471
  C     -4.543673   -0.644289    3.030523
  C     -4.993984    0.824802    3.015321
  C     -3.870569    1.776097    3.446933
  C     -4.131955    3.245501    3.117612
  C     -2.976115    4.166981    3.515259
  C     -3.224918    5.634240    3.163530
  O     -0.985810   -4.453841    1.619925
  O      0.284219   -5.563335   -0.528356
  O      3.534307   -2.696410   -2.909349
  C      2.267219   -1.556500   -5.142999
  C      3.240554   -2.336362   -6.027594
  O      1.420302   -0.454066   -2.169863
  C     -1.009916    0.967908   -4.023805
  C     -2.308761    1.776264   -4.053068
  C      0.206649    1.856446   -4.297723
  H     -2.429099    2.456605    0.918653
  H     -2.698583    4.307748   -0.596927
  H     -1.278642    3.830091   -1.550287
  H     -0.362639    5.696073   -0.274454
  H     -1.268884    5.222775    1.179933
  H      1.166320    3.782808   -0.029808
  H      0.854904    4.207730    1.665850
  H      0.225976    1.240467   -1.198274
  H     -1.761528   -0.432367   -2.534690
  H     -0.581702   -1.880985   -4.148307
  H      1.066755   -3.314586   -4.771106
  H      0.802793   -4.279386   -2.537078
  H      3.166072   -3.908786   -0.814181
  H      2.730376   -5.572474   -1.285176
  H      1.713181   -5.017938    0.899397
  H      0.348881   -2.791531   -0.708510
  H      2.096224   -1.441869   -0.787770
  H      3.797654   -1.177449    1.617579
  H      1.928518   -0.338721    2.686825
  H      1.770080    2.616866    2.466482
  H      1.718127    1.596818    4.764385
  H      0.182495    2.437454    4.414799
  H      0.257157    0.665379    4.306067
  H      4.214126    0.275092   -1.028930
  H      4.578757   -1.451640   -0.933645
  H      6.177548   -1.071527    0.903189
  H      6.951483   -1.006404   -1.480752
  H      6.694141    0.751606   -1.516359
  H      7.940764    0.061004   -0.452800
  H      5.223003    0.949726    2.002501
  H      6.903006    1.249412    1.522623
  H      5.561728    1.920062    0.556674
  H     -2.094974   -2.275441   -0.024144
  H     -1.033333   -1.298310    0.972982
  H     -2.188913   -2.056845    3.038437
  H     -3.254031   -3.109208    2.106930
  H     -4.230810   -1.121647    0.937390
  H     -2.993433   -0.092985    1.632369
  H     -4.007773   -0.841326    3.976019
  H     -5.417841   -1.315248    3.030001
  H     -5.869398    0.969188    3.669931
  H     -5.323085    1.087231    1.994433
  H     -2.927143    1.466397    2.967326
  H     -3.701478    1.666413    4.532633
  H     -5.059097    3.585755    3.611926
  H     -4.318170    3.344956    2.032494
  H     -2.052880    3.814346    3.022049
  H     -2.790438    4.071327    4.598403
  H     -2.372356    6.272860    3.437767
  H     -3.405912    5.758407    2.084294
  H     -4.111942    6.020914    3.687439
  H     -0.371058   -5.640382    0.198721
  H      2.811798   -0.822457   -4.533277
  H      1.546126   -1.006580   -5.768475
  H      3.768026   -1.658094   -6.711968
  H      3.992279   -2.853046   -5.418180
  H      2.713146   -3.084084   -6.640583
  H     -1.070149    0.207907   -4.823477
  H     -3.185732    1.150592   -3.844322
  H     -2.293039    2.577104   -3.301669
  H     -2.433564    2.245832   -5.039587
  H      1.143948    1.284750   -4.335899
  H      0.087672    2.380828   -5.255817
  H      0.312382    2.617132   -3.510564

----------------------------
CARTESIAN COORDINATES (A.U.)
----------------------------
  NO LB      ZA    FRAG     MASS         X           Y           Z
   0 O     8.0000    0    15.999   -5.581663    1.955998   -2.001745
   1 C     6.0000    0    12.011   -3.431254    2.717486   -1.550596
   2 C     6.0000    0    12.011   -3.047071    4.855846    0.363365
   3 C     6.0000    0    12.011   -3.154993    7.440672   -0.996302
   4 C     6.0000    0    12.011   -1.399702    9.142981    0.559915
   5 C     6.0000    0    12.011    0.716031    7.350230    1.383171
   6 N     7.0000    0    14.007   -0.616966    4.928044    1.714672
   7 C     6.0000    0    12.011   -0.083605    3.040637    3.369172
   8 O     8.0000    0    15.999   -1.484973    1.177314    3.550758
   9 N     7.0000    0    14.007   -1.357984    1.971015   -2.894817
  10 C     6.0000    0    12.011   -1.610829    0.327314   -5.073160
  11 C     6.0000    0    12.011    0.722858   -1.362425   -5.260689
  12 N     7.0000    0    14.007    0.545091   -3.367924   -6.865356
  13 C     6.0000    0    12.011    2.778746   -4.654134   -7.934726
  14 C     6.0000    0    12.011    4.482335   -5.772514   -5.819154
  15 N     7.0000    0    14.007    3.332863   -7.584834   -4.411986
  16 C     6.0000    0    12.011    4.413573   -8.615885   -2.101683
  17 C     6.0000    0    12.011    2.381309   -8.767621   -0.063253
  18 C     6.0000    0    12.011    1.142685   -6.170237    0.479929
  19 C     6.0000    0    12.011    2.981311   -4.425932    1.893626
  20 N     7.0000    0    14.007    4.452701   -2.992699    0.367321
  21 C     6.0000    0    12.011    6.443892   -1.329903    1.326724
  22 C     6.0000    0    12.011    5.163502    1.190574    2.044647
  23 N     7.0000    0    14.007    3.976829    1.121559    4.329475
  24 C     6.0000    0    12.011    2.298544    3.195092    5.026011
  25 C     6.0000    0    12.011    1.553021    3.005716    7.805198
  26 O     8.0000    0    15.999    5.128071    3.057643    0.649403
  27 C     6.0000    0    12.011    8.531170   -0.999596   -0.639909
  28 C     6.0000    0    12.011   11.137046   -0.406905    0.496826
  29 C     6.0000    0    12.011   13.098104   -0.188323   -1.623057
  30 C     6.0000    0    12.011   11.137199    1.976076    2.146097
  31 O     8.0000    0    15.999    3.179236   -4.460894    4.227703
  32 C     6.0000    0    12.011   -1.328286   -6.444578    1.969854
  33 C     6.0000    0    12.011   -3.070754   -4.208699    1.851154
  34 C     6.0000    0    12.011   -5.093042   -4.085091    3.902840
  35 C     6.0000    0    12.011   -6.848601   -1.826828    3.487434
  36 C     6.0000    0    12.011   -8.586297   -1.217530    5.726858
  37 C     6.0000    0    12.011   -9.437262    1.558650    5.698131
  38 C     6.0000    0    12.011   -7.314315    3.356336    6.513760
  39 C     6.0000    0    12.011   -7.808263    6.133108    5.891432
  40 C     6.0000    0    12.011   -5.624043    7.874454    6.642877
  41 C     6.0000    0    12.011   -6.094212   10.647171    5.978205
  42 O     8.0000    0    15.999   -1.862910   -8.416540    3.061215
  43 O     8.0000    0    15.999    0.537097  -10.513180   -0.998448
  44 O     8.0000    0    15.999    6.678872   -5.095477   -5.497873
  45 C     6.0000    0    12.011    4.284423   -2.941360   -9.718859
  46 C     6.0000    0    12.011    6.123759   -4.415084  -11.390503
  47 O     8.0000    0    15.999    2.683983   -0.858061   -4.100447
  48 C     6.0000    0    12.011   -1.908464    1.829081   -7.603890
  49 C     6.0000    0    12.011   -4.362927    3.356653   -7.659188
  50 C     6.0000    0    12.011    0.390510    3.508175   -8.121520
  51 H     1.0000    0     1.008   -4.590331    4.642311    1.736002
  52 H     1.0000    0     1.008   -5.099582    8.140463   -1.128028
  53 H     1.0000    0     1.008   -2.416284    7.237823   -2.929618
  54 H     1.0000    0     1.008   -0.685289   10.764018   -0.518644
  55 H     1.0000    0     1.008   -2.397843    9.869614    2.229751
  56 H     1.0000    0     1.008    2.204026    7.148471   -0.056329
  57 H     1.0000    0     1.008    1.615534    7.951457    3.147999
  58 H     1.0000    0     1.008    0.427032    2.344144   -2.264410
  59 H     1.0000    0     1.008   -3.328805   -0.817055   -4.789871
  60 H     1.0000    0     1.008   -1.099258   -3.554547   -7.839165
  61 H     1.0000    0     1.008    2.015875   -6.263660   -9.016083
  62 H     1.0000    0     1.008    1.517060   -8.086867   -4.794382
  63 H     1.0000    0     1.008    5.983009   -7.386534   -1.538579
  64 H     1.0000    0     1.008    5.159663  -10.530451   -2.428630
  65 H     1.0000    0     1.008    3.237442   -9.482529    1.699614
  66 H     1.0000    0     1.008    0.659290   -5.275230   -1.338891
  67 H     1.0000    0     1.008    3.961290   -2.724738   -1.488670
  68 H     1.0000    0     1.008    7.176526   -2.225056    3.056781
  69 H     1.0000    0     1.008    3.644371   -0.640090    5.077364
  70 H     1.0000    0     1.008    3.344966    4.945160    4.660976
  71 H     1.0000    0     1.008    3.246789    3.017549    9.003382
  72 H     1.0000    0     1.008    0.344866    4.606121    8.342760
  73 H     1.0000    0     1.008    0.485957    1.257384    8.137288
  74 H     1.0000    0     1.008    7.963544    0.519849   -1.944395
  75 H     1.0000    0     1.008    8.652597   -2.743202   -1.764334
  76 H     1.0000    0     1.008   11.673875   -2.024892    1.706780
  77 H     1.0000    0     1.008   13.136398   -1.901828   -2.798215
  78 H     1.0000    0     1.008   12.650093    1.420329   -2.865502
  79 H     1.0000    0     1.008   15.005869    0.115280   -0.855669
  80 H     1.0000    0     1.008    9.870045    1.794723    3.784178
  81 H     1.0000    0     1.008   13.044791    2.361046    2.877341
  82 H     1.0000    0     1.008   10.510144    3.628392    1.051962
  83 H     1.0000    0     1.008   -3.958927   -4.299961   -0.045625
  84 H     1.0000    0     1.008   -1.952716   -2.453451    1.838670
  85 H     1.0000    0     1.008   -4.136446   -3.886874    5.741814
  86 H     1.0000    0     1.008   -6.149228   -5.875553    3.981520
  87 H     1.0000    0     1.008   -7.995072   -2.119606    1.771410
  88 H     1.0000    0     1.008   -5.656769   -0.175716    3.084730
  89 H     1.0000    0     1.008   -7.573594   -1.589876    7.513586
  90 H     1.0000    0     1.008  -10.238236   -2.485459    5.725872
  91 H     1.0000    0     1.008  -11.091554    1.831500    6.935164
  92 H     1.0000    0     1.008  -10.059174    2.054569    3.768932
  93 H     1.0000    0     1.008   -5.531498    2.771089    5.607434
  94 H     1.0000    0     1.008   -6.994780    3.149065    8.565435
  95 H     1.0000    0     1.008   -9.560307    6.776094    6.825551
  96 H     1.0000    0     1.008   -8.160159    6.321050    3.840856
  97 H     1.0000    0     1.008   -3.879380    7.208069    5.710846
  98 H     1.0000    0     1.008   -5.273163    7.693693    8.689722
  99 H     1.0000    0     1.008   -4.483103   11.853987    6.496438
 100 H     1.0000    0     1.008   -6.436241   10.881812    3.938745
 101 H     1.0000    0     1.008   -7.770443   11.377878    6.968250
 102 H     1.0000    0     1.008   -0.701197  -10.658777    0.375528
 103 H     1.0000    0     1.008    5.313528   -1.554219   -8.566652
 104 H     1.0000    0     1.008    2.921754   -1.902160  -10.900838
 105 H     1.0000    0     1.008    7.120537   -3.133344  -12.683782
 106 H     1.0000    0     1.008    7.544314   -5.391476  -10.238877
 107 H     1.0000    0     1.008    5.127103   -5.828075  -12.548884
 108 H     1.0000    0     1.008   -2.022289    0.392886   -9.115050
 109 H     1.0000    0     1.008   -6.020161    2.174305   -7.264716
 110 H     1.0000    0     1.008   -4.333215    4.870021   -6.239250
 111 H     1.0000    0     1.008   -4.598770    4.244006   -9.523439
 112 H     1.0000    0     1.008    2.161749    2.427826   -8.193661
 113 H     1.0000    0     1.008    0.165675    4.499112   -9.932054
 114 H     1.0000    0     1.008    0.590317    4.945662   -6.634004

--------------------------------
INTERNAL COORDINATES (ANGSTROEM)
--------------------------------
 O      0   0   0     0.000000000000     0.00000000     0.00000000
 C      1   0   0     1.230568420829     0.00000000     0.00000000
 C      2   1   0     1.532187809267   119.52373735     0.00000000
 C      3   2   1     1.546580334679   109.92249377   270.18952012
 C      4   3   2     1.533766460491   104.31740493   210.51603609
 C      5   4   3     1.530779847327   103.40015394    35.76358700
 N      3   2   1     1.471897818557   117.14463123   152.34284290
 C      7   3   2     1.357847676447   118.40893483   293.05280729
 O      8   7   3     1.237502768232   120.76978181     7.13768039
 N      2   1   3     1.365912511850   123.16351576   188.28147910
 C     10   2   1     1.450260913387   120.88233655     3.98205254
 C     11  10   2     1.527891214582   109.15074433   212.48201763
 N     12  11  10     1.362421232936   116.13853838   166.44681280
 C     13  12  11     1.476689136430   122.86159695   158.69651312
 C     14  13  12     1.554433800351   111.32830122    60.12849199
 N     15  14  13     1.358029255629   113.82919745    62.75478844
 C     16  15  14     1.455814522888   123.31125956   189.73653391
 C     17  16  15     1.525308384053   109.67281032   134.94134844
 C     18  17  16     1.549652812006   112.50098503   302.82957459
 C     19  18  17     1.535679323413   110.82415666   288.21253772
 N     20  19  18     1.354192257487   114.22829277    89.80097558
 C     21  20  19     1.463649594242   122.93879015   184.17599117
 C     22  21  20     1.543494270424   106.78921664   275.16236045
 N     23  22  21     1.362915606659   113.41912126    79.84479841
 C     24  23  22     1.458969364945   118.97559867   191.46111121
 C     25  24  23     1.525972087378   110.57717192   190.38415956
 O     23  22  21     1.233551438008   123.46808751   262.54207143
 C     22  21  20     1.527616190654   110.67146928   152.13800307
 C     28  22  21     1.536806095112   113.92144284   207.10928450
 C     29  28  22     1.532552897108   109.66289352   178.39479406
 C     29  28  22     1.533581788118   112.99278997   302.48698820
 O     20  19  18     1.239711344893   121.99899547   273.80127613
 C     19  18  17     1.533777559812   111.83811907   164.71335590
 C     33  19  18     1.501356698430   115.30821280   199.30252212
 C     34  33  19     1.525861212010   115.76939126   198.11507214
 C     35  34  33     1.529523731477   110.92903452   183.61060412
 C     36  35  34     1.534235356673   114.65916933   192.12207007
 C     37  36  35     1.536632478220   111.64882997   156.13112002
 C     38  37  36     1.534050987213   112.05352219   285.47107153
 C     39  38  37     1.528373131937   114.22534688   165.24477394
 C     40  39  38     1.530756030486   113.18135745   181.95997202
 C     41  40  39     1.529203927080   113.26542851   178.95282228
 O     33  19  18     1.225765205513   121.30138685    15.75578619
 O     18  17  16     1.431977885039   105.66788103    63.31902763
 O     15  14  13     1.228144420090   122.51508930   241.52116526
 C     14  13  12     1.532220687521   112.31601174   294.21104591
 C     46  14  13     1.529076172543   112.69263909   196.15092547
 O     12  11  10     1.234986292440   121.36108757   343.40013644
 C     11  10   2     1.565191917231   112.63418954    91.47498849
 C     49  11  10     1.530129409228   111.71639749   295.24712506
 C     49  11  10     1.531195884291   111.57659655    60.65156983
 H      3   2   1     1.098776278182   105.21365238    30.69176984
 H      4   3   2     1.095854878384   111.29273798    87.32949349
 H      4   3   2     1.100453240497   109.45823874   328.14721885
 H      5   4   3     1.097508462274   112.85773502   157.42219189
 H      5   4   3     1.098935977699   110.25254795   278.37955906
 H      6   5   4     1.100764573593   112.72782707    84.57324351
 H      6   5   4     1.095434966178   112.36103246   206.75424980
 H     10   2   1     1.021040408162   121.13153602   192.56680023
 H     11  10   2     1.102579118989   107.30211207   332.51502383
 H     13  12  11     1.016105252322   116.80311668     1.52747525
 H     14  13  12     1.102655586168   105.17978761   175.64248413
 H     16  15  14     1.017260605927   119.89686404   359.96110596
 H     17  16  15     1.096242392460   107.66611941    12.95165122
 H     17  16  15     1.101032537375   110.71780047   254.50917917
 H     18  17  16     1.103909456971   109.04471600   182.14328373
 H     19  18  17     1.102774593276   108.49077988    46.99023767
 H     21  20  19     1.025838428472   120.17846724    17.88820471
 H     22  21  20     1.101292552478   106.45145551    31.22528072
 H     24  23  22     1.027922490264   116.40516227   344.12404997
 H     25  24  23     1.096174648757   106.46146354   310.87179810
 H     26  25  24     1.097916878622   110.19081894    57.81228263
 H     26  25  24     1.098588732702   110.44962442   177.96603827
 H     26  25  24     1.098036108657   110.03108336   297.09432669
 H     28  22  21     1.101476301906   108.25802451    84.48098520
 H     28  22  21     1.099776772366   108.35084440   328.98939547
 H     29  28  22     1.106228222173   107.39857900    61.33387295
 H     30  29  28     1.099691376140   111.35671777   304.41079016
 H     30  29  28     1.101419181303   110.45811749    64.00754811
 H     30  29  28     1.099954367312   111.23972267   183.63137251
 H     31  29  28     1.100112812393   112.12681876    61.76427959
 H     31  29  28     1.100106754735   110.63988350   181.58270981
 H     31  29  28     1.099935062132   110.73607474   301.73209711
 H     34  33  19     1.109374491153   105.29235699    75.89289063
 H     34  33  19     1.101281522646   109.57116886   323.43156143
 H     35  34  33     1.101933332262   108.07558693    63.72682122
 H     35  34  33     1.100824887070   110.24893509   307.85777491
 H     36  35  34     1.103033212518   110.03817872    68.01853362
 H     36  35  34     1.098448120051   107.49435485   313.57164727
 H     37  36  35     1.104524515212   109.44535744    35.69270912
 H     37  36  35     1.101978390067   110.31173727   279.36262703
 H     38  37  36     1.102592788864   110.60922369   163.03121969
 H     38  37  36     1.104259249905   108.88620440    46.53769597
 H     39  38  37     1.102719111270   109.26886051    43.10005270
 H     39  38  37     1.104249027033   109.09716531   288.12126275
 H     40  39  38     1.104405800473   110.07994776    59.19168269
 H     40  39  38     1.105463022274   109.07531229   303.67161700
 H     41  40  39     1.104523222144   108.84186034    56.45059167
 H     41  40  39     1.103098435647   109.26696876   301.51611267
 H     42  41  40     1.099955635794   111.93880298   181.28888124
 H     42  41  40     1.101329324403   111.11909331   301.91890541
 H     42  41  40     1.100367084335   111.02733058    61.04131613
 H     44  18  17     0.981817158033   104.45056085   176.89084261
 H     46  14  13     1.098701703721   108.11974739    74.02676353
 H     46  14  13     1.101639043898   107.74324028   317.74603530
 H     47  46  14     1.098472068711   110.55906741   178.13152636
 H     47  46  14     1.097013939594   110.79540590   297.74660097
 H     47  46  14     1.101364325402   111.31032913    58.59568095
 H     49  11  10     1.104855028622   105.99220926   178.26328927
 H     50  49  11     1.097322698730   111.93353159   306.28924194
 H     50  49  11     1.098267580758   111.09938513    66.19826848
 H     50  49  11     1.099676611701   109.82057259   185.24130757
 H     51  49  11     1.098555542635   112.46518397    57.56770159
 H     51  49  11     1.098669584971   110.29948452   178.30981862
 H     51  49  11     1.099746250067   110.47054705   297.29499202

---------------------------
INTERNAL COORDINATES (A.U.)
---------------------------
 O      0   0   0     0.000000000000     0.00000000     0.00000000
 C      1   0   0     2.325437304419     0.00000000     0.00000000
 C      2   1   0     2.895415345247   119.52373735     0.00000000
 C      3   2   1     2.922613276652   109.92249377   270.18952012
 C      4   3   2     2.898398563722   104.31740493   210.51603609
 C      5   4   3     2.892754682774   103.40015394    35.76358700
 N      3   2   1     2.781483774189   117.14463123   152.34284290
 C      7   3   2     2.565960240065   118.40893483   293.05280729
 O      8   7   3     2.338541321928   120.76978181     7.13768039
 N      2   1   3     2.581200570294   123.16351576   188.28147910
 C     10   2   1     2.740595949032   120.88233655     3.98205254
 C     11  10   2     2.887295957984   109.15074433   212.48201763
 N     12  11  10     2.574603009289   116.13853838   166.44681280
 C     13  12  11     2.790538052789   122.86159695   158.69651312
 C     14  13  12     2.937454175974   111.32830122    60.12849199
 N     15  14  13     2.566303374992   113.82919745    62.75478844
 C     16  15  14     2.751090750044   123.31125956   189.73653391
 C     17  16  15     2.882415115634   109.67281032   134.94134844
 C     18  17  16     2.928419417353   112.50098503   302.82957459
 C     19  18  17     2.902013350776   110.82415666   288.21253772
 N     20  19  18     2.559052499328   114.22829277    89.80097558
 C     21  20  19     2.765896889142   122.93879015   184.17599117
 C     22  21  20     2.916781460378   106.78921664   275.16236045
 N     23  22  21     2.575537240233   113.41912126    79.84479841
 C     24  23  22     2.757052537528   118.97559867   191.46111121
 C     25  24  23     2.883669333153   110.57717192   190.38415956
 O     23  22  21     2.331074389940   123.46808751   262.54207143
 C     22  21  20     2.886776238080   110.67146928   152.13800307
 C     28  22  21     2.904142640702   113.92144284   207.10928450
 C     29  28  22     2.896105261283   109.66289352   178.39479406
 C     29  28  22     2.898049583511   112.99278997   302.48698820
 O     20  19  18     2.342714926963   121.99899547   273.80127613
 C     19  18  17     2.898419538399   111.83811907   164.71335590
 C     33  19  18     2.837152989362   115.30821280   199.30252212
 C     34  33  19     2.883459809073   115.76939126   198.11507214
 C     35  34  33     2.890380967824   110.92903452   183.61060412
 C     36  35  34     2.899284649092   114.65916933   192.12207007
 C     37  36  35     2.903814552325   111.64882997   156.13112002
 C     38  37  36     2.898936241303   112.05352219   285.47107153
 C     39  38  37     2.888206649805   114.22534688   165.24477394
 C     40  39  38     2.892709675468   113.18135745   181.95997202
 C     41  40  39     2.889776625099   113.26542851   178.95282228
 O     33  19  18     2.316360542910   121.30138685    15.75578619
 O     18  17  16     2.706046032555   105.66788103    63.31902763
 O     15  14  13     2.320856606874   122.51508930   241.52116526
 C     14  13  12     2.895477476143   112.31601174   294.21104591
 C     46  14  13     2.889535204011   112.69263909   196.15092547
 O     12  11  10     2.333785871858   121.36108757   343.40013644
 C     11  10   2     2.957784070594   112.63418954    91.47498849
 C     49  11  10     2.891525532899   111.71639749   295.24712506
 C     49  11  10     2.893540878698   111.57659655    60.65156983
 H      3   2   1     2.076386248214   105.21365238    30.69176984
 H      4   3   2     2.070865602668   111.29273798    87.32949349
 H      4   3   2     2.079555247725   109.45823874   328.14721885
 H      5   4   3     2.073990423359   112.85773502   157.42219189
 H      5   4   3     2.076688036565   110.25254795   278.37955906
[...]
freq.      92.43  E(vib)   ...       0.47 
freq.      92.84  E(vib)   ...       0.47 
freq.      95.86  E(vib)   ...       0.47 
freq.      98.29  E(vib)   ...       0.46 
freq.     104.54  E(vib)   ...       0.46 
freq.     109.29  E(vib)   ...       0.45 
freq.     110.44  E(vib)   ...       0.45 
freq.     114.05  E(vib)   ...       0.44 
freq.     121.96  E(vib)   ...       0.44 
freq.     128.53  E(vib)   ...       0.43 
freq.     137.14  E(vib)   ...       0.42 
freq.     139.60  E(vib)   ...       0.42 
freq.     144.05  E(vib)   ...       0.41 
freq.     148.26  E(vib)   ...       0.41 
freq.     154.34  E(vib)   ...       0.40 
freq.     160.03  E(vib)   ...       0.39 
freq.     164.34  E(vib)   ...       0.39 
freq.     175.73  E(vib)   ...       0.38 
freq.     183.04  E(vib)   ...       0.37 
freq.     187.10  E(vib)   ...       0.36 
freq.     197.23  E(vib)   ...       0.35 
freq.     202.44  E(vib)   ...       0.35 
freq.     202.75  E(vib)   ...       0.35 
freq.     210.41  E(vib)   ...       0.34 
freq.     215.22  E(vib)   ...       0.34 
freq.     224.53  E(vib)   ...       0.33 
freq.     227.20  E(vib)   ...       0.33 
freq.     229.25  E(vib)   ...       0.32 
freq.     237.83  E(vib)   ...       0.32 
freq.     240.09  E(vib)   ...       0.31 
freq.     243.84  E(vib)   ...       0.31 
freq.     245.43  E(vib)   ...       0.31 
freq.     248.37  E(vib)   ...       0.31 
freq.     255.42  E(vib)   ...       0.30 
freq.     260.55  E(vib)   ...       0.30 
freq.     266.34  E(vib)   ...       0.29 
freq.     267.83  E(vib)   ...       0.29 
freq.     269.20  E(vib)   ...       0.29 
freq.     280.72  E(vib)   ...       0.28 
freq.     284.84  E(vib)   ...       0.28 
freq.     293.33  E(vib)   ...       0.27 
freq.     304.77  E(vib)   ...       0.26 
freq.     310.91  E(vib)   ...       0.26 
freq.     318.06  E(vib)   ...       0.25 
freq.     325.83  E(vib)   ...       0.24 
freq.     332.55  E(vib)   ...       0.24 
freq.     346.59  E(vib)   ...       0.23 
freq.     348.71  E(vib)   ...       0.23 
freq.     353.93  E(vib)   ...       0.22 
freq.     367.61  E(vib)   ...       0.21 
freq.     371.36  E(vib)   ...       0.21 
freq.     378.85  E(vib)   ...       0.21 
freq.     386.75  E(vib)   ...       0.20 
freq.     397.45  E(vib)   ...       0.20 
freq.     400.55  E(vib)   ...       0.19 
freq.     407.45  E(vib)   ...       0.19 
freq.     408.24  E(vib)   ...       0.19 
freq.     434.07  E(vib)   ...       0.17 
freq.     444.26  E(vib)   ...       0.17 
freq.     460.08  E(vib)   ...       0.16 
freq.     468.14  E(vib)   ...       0.16 
freq.     490.02  E(vib)   ...       0.15 
freq.     493.75  E(vib)   ...       0.14 
freq.     508.38  E(vib)   ...       0.14 
freq.     511.05  E(vib)   ...       0.14 
freq.     519.82  E(vib)   ...       0.13 
freq.     536.54  E(vib)   ...       0.12 
freq.     553.80  E(vib)   ...       0.12 
freq.     561.23  E(vib)   ...       0.11 
freq.     571.82  E(vib)   ...       0.11 
freq.     588.18  E(vib)   ...       0.10 
freq.     590.94  E(vib)   ...       0.10 
freq.     610.12  E(vib)   ...       0.10 
freq.     625.14  E(vib)   ...       0.09 
freq.     636.94  E(vib)   ...       0.09 
freq.     640.95  E(vib)   ...       0.09 
freq.     649.65  E(vib)   ...       0.08 
freq.     672.12  E(vib)   ...       0.08 
freq.     688.83  E(vib)   ...       0.07 
freq.     696.34  E(vib)   ...       0.07 
freq.     697.83  E(vib)   ...       0.07 
freq.     705.77  E(vib)   ...       0.07 
freq.     707.30  E(vib)   ...       0.07 
freq.     710.25  E(vib)   ...       0.07 
freq.     714.11  E(vib)   ...       0.07 
freq.     719.17  E(vib)   ...       0.07 
freq.     731.25  E(vib)   ...       0.06 
freq.     743.77  E(vib)   ...       0.06 
freq.     752.58  E(vib)   ...       0.06 
freq.     766.19  E(vib)   ...       0.06 
freq.     772.15  E(vib)   ...       0.05 
freq.     781.38  E(vib)   ...       0.05 
freq.     785.35  E(vib)   ...       0.05 
freq.     808.68  E(vib)   ...       0.05 
freq.     812.72  E(vib)   ...       0.05 
freq.     815.88  E(vib)   ...       0.05 
freq.     820.82  E(vib)   ...       0.05 
freq.     837.99  E(vib)   ...       0.04 
freq.     855.15  E(vib)   ...       0.04 
freq.     855.98  E(vib)   ...       0.04 
freq.     862.90  E(vib)   ...       0.04 
freq.     870.54  E(vib)   ...       0.04 
freq.     873.66  E(vib)   ...       0.04 
freq.     875.88  E(vib)   ...       0.04 
freq.     888.49  E(vib)   ...       0.04 
freq.     893.35  E(vib)   ...       0.03 
freq.     897.19  E(vib)   ...       0.03 
freq.     902.41  E(vib)   ...       0.03 
freq.     906.74  E(vib)   ...       0.03 
freq.     908.94  E(vib)   ...       0.03 
freq.     912.41  E(vib)   ...       0.03 
freq.     923.27  E(vib)   ...       0.03 
freq.     925.51  E(vib)   ...       0.03 
freq.     926.29  E(vib)   ...       0.03 
freq.     934.14  E(vib)   ...       0.03 
freq.     942.78  E(vib)   ...       0.03 
freq.     944.07  E(vib)   ...       0.03 
freq.     944.89  E(vib)   ...       0.03 
freq.     947.09  E(vib)   ...       0.03 
freq.     957.15  E(vib)   ...       0.03 
freq.     969.03  E(vib)   ...       0.03 
freq.     977.25  E(vib)   ...       0.03 
freq.     980.26  E(vib)   ...       0.02 
freq.     990.28  E(vib)   ...       0.02 
freq.     994.12  E(vib)   ...       0.02 
freq.    1006.02  E(vib)   ...       0.02 
freq.    1007.03  E(vib)   ...       0.02 
freq.    1019.55  E(vib)   ...       0.02 
freq.    1024.08  E(vib)   ...       0.02 
freq.    1030.53  E(vib)   ...       0.02 
freq.    1033.96  E(vib)   ...       0.02 
freq.    1039.47  E(vib)   ...       0.02 
freq.    1043.40  E(vib)   ...       0.02 
freq.    1049.47  E(vib)   ...       0.02 
freq.    1051.32  E(vib)   ...       0.02 
freq.    1055.24  E(vib)   ...       0.02 
freq.    1060.30  E(vib)   ...       0.02 
freq.    1061.13  E(vib)   ...       0.02 
freq.    1063.63  E(vib)   ...       0.02 
freq.    1075.96  E(vib)   ...       0.02 
freq.    1078.80  E(vib)   ...       0.02 
freq.    1079.35  E(vib)   ...       0.02 
freq.    1084.73  E(vib)   ...       0.02 
freq.    1092.43  E(vib)   ...       0.02 
freq.    1096.99  E(vib)   ...       0.02 
freq.    1097.08  E(vib)   ...       0.02 
freq.    1111.78  E(vib)   ...       0.01 
freq.    1121.24  E(vib)   ...       0.01 
freq.    1123.33  E(vib)   ...       0.01 
freq.    1127.76  E(vib)   ...       0.01 
freq.    1133.90  E(vib)   ...       0.01 
freq.    1139.14  E(vib)   ...       0.01 
freq.    1144.69  E(vib)   ...       0.01 
freq.    1151.81  E(vib)   ...       0.01 
freq.    1162.11  E(vib)   ...       0.01 
freq.    1165.30  E(vib)   ...       0.01 
freq.    1168.61  E(vib)   ...       0.01 
freq.    1176.32  E(vib)   ...       0.01 
freq.    1176.53  E(vib)   ...       0.01 
freq.    1182.87  E(vib)   ...       0.01 
freq.    1187.65  E(vib)   ...       0.01 
freq.    1188.23  E(vib)   ...       0.01 
freq.    1194.36  E(vib)   ...       0.01 
freq.    1208.28  E(vib)   ...       0.01 
freq.    1214.18  E(vib)   ...       0.01 
freq.    1215.37  E(vib)   ...       0.01 
freq.    1219.50  E(vib)   ...       0.01 
freq.    1223.07  E(vib)   ...       0.01 
freq.    1230.44  E(vib)   ...       0.01 
freq.    1233.21  E(vib)   ...       0.01 
freq.    1238.67  E(vib)   ...       0.01 
freq.    1241.82  E(vib)   ...       0.01 
freq.    1242.46  E(vib)   ...       0.01 
freq.    1246.37  E(vib)   ...       0.01 
freq.    1249.54  E(vib)   ...       0.01 
freq.    1255.85  E(vib)   ...       0.01 
freq.    1266.78  E(vib)   ...       0.01 
freq.    1269.42  E(vib)   ...       0.01 
freq.    1274.49  E(vib)   ...       0.01 
freq.    1279.55  E(vib)   ...       0.01 
freq.    1285.90  E(vib)   ...       0.01 
freq.    1288.64  E(vib)   ...       0.01 
freq.    1290.25  E(vib)   ...       0.01 
freq.    1292.13  E(vib)   ...       0.01 
freq.    1293.96  E(vib)   ...       0.01 
freq.    1298.25  E(vib)   ...       0.01 
freq.    1300.61  E(vib)   ...       0.01 
freq.    1302.52  E(vib)   ...       0.01 
freq.    1304.09  E(vib)   ...       0.01 
freq.    1304.40  E(vib)   ...       0.01 
freq.    1305.49  E(vib)   ...       0.01 
freq.    1308.20  E(vib)   ...       0.01 
freq.    1311.56  E(vib)   ...       0.01 
freq.    1314.29  E(vib)   ...       0.01 
freq.    1317.17  E(vib)   ...       0.01 
freq.    1321.33  E(vib)   ...       0.01 
freq.    1325.09  E(vib)   ...       0.01 
freq.    1330.74  E(vib)   ...       0.01 
freq.    1334.09  E(vib)   ...       0.01 
freq.    1336.75  E(vib)   ...       0.01 
freq.    1339.85  E(vib)   ...       0.01 
freq.    1340.32  E(vib)   ...       0.01 
freq.    1345.72  E(vib)   ...       0.01 
freq.    1351.79  E(vib)   ...       0.01 
freq.    1352.94  E(vib)   ...       0.01 
freq.    1355.31  E(vib)   ...       0.01 
freq.    1355.77  E(vib)   ...       0.01 
freq.    1356.24  E(vib)   ...       0.01 
freq.    1360.37  E(vib)   ...       0.01 
freq.    1362.88  E(vib)   ...       0.01 
freq.    1365.54  E(vib)   ...       0.01 
freq.    1373.58  E(vib)   ...       0.01 
freq.    1377.19  E(vib)   ...       0.01 
freq.    1381.13  E(vib)   ...       0.01 
freq.    1389.33  E(vib)   ...       0.00 
freq.    1410.36  E(vib)   ...       0.00 
freq.    1426.54  E(vib)   ...       0.00 
freq.    1427.84  E(vib)   ...       0.00 
freq.    1430.54  E(vib)   ...       0.00 
freq.    1434.27  E(vib)   ...       0.00 
freq.    1434.87  E(vib)   ...       0.00 
freq.    1437.95  E(vib)   ...       0.00 
freq.    1439.35  E(vib)   ...       0.00 
freq.    1440.14  E(vib)   ...       0.00 
freq.    1441.13  E(vib)   ...       0.00 
freq.    1441.79  E(vib)   ...       0.00 
freq.    1443.44  E(vib)   ...       0.00 
freq.    1443.55  E(vib)   ...       0.00 
freq.    1443.77  E(vib)   ...       0.00 
freq.    1444.81  E(vib)   ...       0.00 
freq.    1447.02  E(vib)   ...       0.00 
freq.    1447.95  E(vib)   ...       0.00 
freq.    1451.77  E(vib)   ...       0.00 
freq.    1452.24  E(vib)   ...       0.00 
freq.    1453.57  E(vib)   ...       0.00 
freq.    1454.48  E(vib)   ...       0.00 
freq.    1454.99  E(vib)   ...       0.00 
freq.    1457.25  E(vib)   ...       0.00 
freq.    1458.36  E(vib)   ...       0.00 
freq.    1460.58  E(vib)   ...       0.00 
freq.    1462.56  E(vib)   ...       0.00 
freq.    1464.09  E(vib)   ...       0.00 
freq.    1465.65  E(vib)   ...       0.00 
freq.    1472.83  E(vib)   ...       0.00 
freq.    1480.55  E(vib)   ...       0.00 
freq.    1487.31  E(vib)   ...       0.00 
freq.    1492.96  E(vib)   ...       0.00 
freq.    1511.11  E(vib)   ...       0.00 
freq.    1638.34  E(vib)   ...       0.00 
freq.    1643.00  E(vib)   ...       0.00 
freq.    1660.72  E(vib)   ...       0.00 
freq.    1675.51  E(vib)   ...       0.00 
freq.    1677.41  E(vib)   ...       0.00 
freq.    1695.82  E(vib)   ...       0.00 
freq.    1699.55  E(vib)   ...       0.00 
freq.    2905.06  E(vib)   ...       0.00 
freq.    2912.72  E(vib)   ...       0.00 
freq.    2921.00  E(vib)   ...       0.00 
freq.    2928.57  E(vib)   ...       0.00 
freq.    2931.04  E(vib)   ...       0.00 
freq.    2932.21  E(vib)   ...       0.00 
freq.    2935.13  E(vib)   ...       0.00 
freq.    2942.76  E(vib)   ...       0.00 
freq.    2946.81  E(vib)   ...       0.00 
freq.    2947.57  E(vib)   ...       0.00 
freq.    2950.87  E(vib)   ...       0.00 
freq.    2953.56  E(vib)   ...       0.00 
freq.    2953.60  E(vib)   ...       0.00 
freq.    2958.47  E(vib)   ...       0.00 
freq.    2962.80  E(vib)   ...       0.00 
freq.    2963.08  E(vib)   ...       0.00 
freq.    2963.75  E(vib)   ...       0.00 
freq.    2965.53  E(vib)   ...       0.00 
freq.    2965.98  E(vib)   ...       0.00 
freq.    2969.09  E(vib)   ...       0.00 
freq.    2969.71  E(vib)   ...       0.00 
freq.    2969.88  E(vib)   ...       0.00 
freq.    2971.66  E(vib)   ...       0.00 
freq.    2972.93  E(vib)   ...       0.00 
freq.    2973.70  E(vib)   ...       0.00 
freq.    2975.26  E(vib)   ...       0.00 
freq.    2975.56  E(vib)   ...       0.00 
freq.    2976.80  E(vib)   ...       0.00 
freq.    2977.90  E(vib)   ...       0.00 
freq.    2978.49  E(vib)   ...       0.00 
freq.    2981.65  E(vib)   ...       0.00 
freq.    2988.41  E(vib)   ...       0.00 
freq.    2990.86  E(vib)   ...       0.00 
freq.    2995.85  E(vib)   ...       0.00 
freq.    3002.86  E(vib)   ...       0.00 
freq.    3008.64  E(vib)   ...       0.00 
freq.    3016.27  E(vib)   ...       0.00 
freq.    3016.88  E(vib)   ...       0.00 
freq.    3020.16  E(vib)   ...       0.00 
freq.    3020.87  E(vib)   ...       0.00 
freq.    3021.13  E(vib)   ...       0.00 
freq.    3023.41  E(vib)   ...       0.00 
freq.    3027.53  E(vib)   ...       0.00 
freq.    3029.25  E(vib)   ...       0.00 
freq.    3029.54  E(vib)   ...       0.00 
freq.    3030.93  E(vib)   ...       0.00 
freq.    3034.77  E(vib)   ...       0.00 
freq.    3036.83  E(vib)   ...       0.00 
freq.    3040.10  E(vib)   ...       0.00 
freq.    3040.80  E(vib)   ...       0.00 
freq.    3044.32  E(vib)   ...       0.00 
freq.    3048.81  E(vib)   ...       0.00 
freq.    3050.48  E(vib)   ...       0.00 
freq.    3055.43  E(vib)   ...       0.00 
freq.    3056.24  E(vib)   ...       0.00 
freq.    3057.73  E(vib)   ...       0.00 
freq.    3059.64  E(vib)   ...       0.00 
freq.    3060.70  E(vib)   ...       0.00 
freq.    3327.10  E(vib)   ...       0.00 
freq.    3333.95  E(vib)   ...       0.00 
freq.    3445.04  E(vib)   ...       0.00 
freq.    3493.85  E(vib)   ...       0.00 
freq.    3501.69  E(vib)   ...       0.00 
freq.    3529.32  E(vib)   ...       0.00 

------------
INNER ENERGY
------------

The inner energy is: U= E(el) + E(ZPE) + E(vib) + E(rot) + E(trans)
    E(el)   - is the total energy from the electronic structure calculation
              = E(kin-el) + E(nuc-el) + E(el-el) + E(nuc-nuc)
    E(ZPE)  - the the zero temperature vibrational energy from the frequency calculation
    E(vib)  - the the finite temperature correction to E(ZPE) due to population
              of excited vibrational states
    E(rot)  - is the rotational thermal energy
    E(trans)- is the translational thermal energy

Summary of contributions to the inner energy U:
Electronic energy                ...  -2380.08748426 Eh
Zero point energy                ...      0.97766787 Eh     613.49 kcal/mol
Thermal vibrational correction   ...      0.05453152 Eh      34.22 kcal/mol
Thermal rotational correction    ...      0.00141627 Eh       0.89 kcal/mol
Thermal translational correction ...      0.00141627 Eh       0.89 kcal/mol
-----------------------------------------------------------------------
Total thermal energy                  -2379.05245232 Eh


Summary of corrections to the electronic energy:
(perhaps to be used in another calculation)
Total thermal correction                  0.05736407 Eh      36.00 kcal/mol
Non-thermal (ZPE) correction              0.97766787 Eh     613.49 kcal/mol
-----------------------------------------------------------------------
Total correction                          1.03503194 Eh     649.49 kcal/mol


--------
ENTHALPY
--------

The enthalpy is H = U + kB*T
                kB is Boltzmann's constant
Total free energy                 ...  -2379.05245232 Eh 
Thermal Enthalpy correction       ...      0.00094421 Eh       0.59 kcal/mol
-----------------------------------------------------------------------
Total Enthalpy                    ...  -2379.05150811 Eh


Note: Only C1 symmetry has been detected, increase convergence thresholds 
      if your molecule has a higher symmetry. Symmetry factor of 1.0 is   
      used for the rotational entropy correction. 
 

Note: Rotational entropy computed according to Herzberg 
Infrared and Raman Spectra, Chapter V,1, Van Nostrand Reinhold, 1945 
Point Group:  C1, Symmetry Number:   1  
Rotational constants in cm-1:     0.002457     0.001472     0.001439 

Vibrational entropy computed according to the QRRHO of S. Grimme
Chem.Eur.J. 2012 18 9955


-------
ENTROPY
-------

The entropy contributions are T*S = T*(S(el)+S(vib)+S(rot)+S(trans))
     S(el)   - electronic entropy
     S(vib)  - vibrational entropy
     S(rot)  - rotational entropy
     S(trans)- translational entropy
The entropies will be listed as mutliplied by the temperature to get
units of energy

Electronic entropy                ...      0.00000000 Eh      0.00 kcal/mol
Vibrational entropy               ...      0.09915056 Eh     62.22 kcal/mol
Rotational entropy                ...      0.01851551 Eh     11.62 kcal/mol
Translational entropy             ...      0.02166895 Eh     13.60 kcal/mol
-----------------------------------------------------------------------
Final entropy term                ...      0.13933502 Eh     87.43 kcal/mol

In case the symmetry of your molecule has not been determined correctly
or in case you have a reason to use a different symmetry number we print 
out the resulting rotational entropy values for sn=1,12 :
 --------------------------------------------------------
|  sn= 1 | S(rot)=       0.01851551 Eh     11.62 kcal/mol|
|  sn= 2 | S(rot)=       0.01786106 Eh     11.21 kcal/mol|
|  sn= 3 | S(rot)=       0.01747822 Eh     10.97 kcal/mol|
|  sn= 4 | S(rot)=       0.01720660 Eh     10.80 kcal/mol|
|  sn= 5 | S(rot)=       0.01699591 Eh     10.67 kcal/mol|
|  sn= 6 | S(rot)=       0.01682377 Eh     10.56 kcal/mol|
|  sn= 7 | S(rot)=       0.01667822 Eh     10.47 kcal/mol|
|  sn= 8 | S(rot)=       0.01655214 Eh     10.39 kcal/mol|
|  sn= 9 | S(rot)=       0.01644093 Eh     10.32 kcal/mol|
|  sn=10 | S(rot)=       0.01634145 Eh     10.25 kcal/mol|
|  sn=11 | S(rot)=       0.01625146 Eh     10.20 kcal/mol|
|  sn=12 | S(rot)=       0.01616931 Eh     10.15 kcal/mol|
 --------------------------------------------------------


-------------------
GIBBS FREE ENERGY
-------------------

The Gibbs free energy is G = H - T*S

Total enthalpy                    ...  -2379.05150811 Eh 
Total entropy correction          ...     -0.13933502 Eh    -87.43 kcal/mol
-----------------------------------------------------------------------
Final Gibbs free energy         ...  -2379.19084313 Eh

For completeness - the Gibbs free energy minus the electronic energy
G-E(el)                           ...      0.89664113 Eh    562.65 kcal/mol

--------------------------------------------------------------------------
WARNING: No preset parameters were found for the device that Open MPI
detected:

  Local host:            eu-g1-018-2
  Device name:           mlx5_0
  Device vendor ID:      0x02c9
  Device vendor part ID: 4123

Default device parameters will be used, which may result in lower
performance.  You can edit any of the files specified by the
btl_openib_device_param_files MCA parameter to set values for your
device.

NOTE: You can turn off this warning by setting the MCA parameter
      btl_openib_warn_no_device_params_found to 0.
--------------------------------------------------------------------------
--------------------------------------------------------------------------
WARNING: There was an error initializing an OpenFabrics device.

  Local host:   eu-g1-018-2
  Local device: mlx5_0
--------------------------------------------------------------------------

Timings for individual modules:

Sum of individual times         ...    40397.119 sec (= 673.285 min)
GTO integral calculation        ...       45.038 sec (=   0.751 min)   0.1 %
SCF iterations                  ...     1071.846 sec (=  17.864 min)   2.7 %
SCF Gradient evaluation         ...      442.021 sec (=   7.367 min)   1.1 %
Geometry relaxation             ...       18.849 sec (=   0.314 min)   0.0 %
Analytical frequency calculation...    38819.365 sec (= 646.989 min)  96.1 %
                             ****ORCA TERMINATED NORMALLY****
TOTAL RUN TIME: 0 days 11 hours 13 minutes 45 seconds 671 msec
