
                                 *****************
                                 * O   R   C   A *
                                 *****************

           --- An Ab Initio, DFT and Semiempirical electronic structure package ---

                  #######################################################
                  #                        -***-                        #
                  #          Department of theory and spectroscopy      #
                  #               Directorship: Frank Neese             #
                  #        Max Planck Institute fuer Kohlenforschung    #
                  #                Kaiser Wilhelm Platz 1               #
                  #                 D-45470 Muelheim/Ruhr               #
                  #                      Germany                        #
                  #                                                     #
                  #                  All rights reserved                #
                  #                        -***-                        #
                  #######################################################


                         Program Version 4.2.0 -  RELEASE  -


 With contributions from (in alphabetic order):
   Daniel Aravena         : Magnetic Suceptibility
   Michael Atanasov       : Ab Initio Ligand Field Theory (pilot matlab implementation)
   Alexander A. Auer      : GIAO ZORA, VPT2
   Ute Becker             : Parallelization
   Giovanni Bistoni       : ED, misc. LED, open-shell LED, HFLED
   Martin Brehm           : Molecular dynamics
   Dmytro Bykov           : SCF Hessian
   Vijay G. Chilkuri      : MRCI spin determinant printing, contributions to CSF-ICE
   Dipayan Datta          : RHF DLPNO-CCSD density
   Achintya Kumar Dutta   : EOM-CC, STEOM-CC
   Dmitry Ganyushin       : Spin-Orbit,Spin-Spin,Magnetic field MRCI
   Miquel Garcia          : C-PCM Hessian, Gaussian charge scheme
   Yang Guo               : DLPNO-NEVPT2, CIM, IAO-localization
   Andreas Hansen         : Spin unrestricted coupled pair/coupled cluster methods
   Benjamin Helmich-Paris : CASSCF linear response (MC-RPA)
   Lee Huntington         : MR-EOM, pCC
   Robert Izsak           : Overlap fitted RIJCOSX, COSX-SCS-MP3, EOM
   Christian Kollmar      : KDIIS, OOCD, Brueckner-CCSD(T), CCSD density
   Simone Kossmann        : Meta GGA functionals, TD-DFT gradient, OOMP2, MP2 Hessian
   Martin Krupicka        : AUTO-CI
   Lucas Lang             : DCDCAS
   Dagmar Lenk            : GEPOL surface, SMD
   Dimitrios Liakos       : Extrapolation schemes; Compound Job, initial MDCI parallelization
   Dimitrios Manganas     : Further ROCIS development; embedding schemes
   Dimitrios Pantazis     : SARC Basis sets
   Taras Petrenko         : DFT Hessian,TD-DFT gradient, ASA, ECA, R-Raman, ABS, FL, XAS/XES, NRVS
   Peter Pinski           : DLPNO-MP2, DLPNO-MP2 Gradient
   Christoph Reimann      : Effective Core Potentials
   Marius Retegan         : Local ZFS, SOC
   Christoph Riplinger    : Optimizer, TS searches, QM/MM, DLPNO-CCSD(T), (RO)-DLPNO pert. Triples
   Tobias Risthaus        : Range-separated hybrids, TD-DFT gradient, RPA, STAB
   Michael Roemelt        : Original ROCIS implementation
   Masaaki Saitow         : Open-shell DLPNO-CCSD energy and density
   Barbara Sandhoefer     : DKH picture change effects
   Avijit Sen             : IP-ROCIS
   Kantharuban Sivalingam : CASSCF convergence, NEVPT2, FIC-MRCI
   Bernardo de Souza      : ESD, SOC TD-DFT
   Georgi Stoychev        : AutoAux, RI-MP2 NMR
   Willem Van den Heuvel  : Paramagnetic NMR
   Boris Wezisla          : Elementary symmetry handling
   Frank Wennmohs         : Technical directorship


 We gratefully acknowledge several colleagues who have allowed us to
 interface, adapt or use parts of their codes:
   Stefan Grimme, W. Hujo, H. Kruse,             : VdW corrections, initial TS optimization,
                  C. Bannwarth                     DFT functionals, gCP, sTDA/sTD-DF
   Ed Valeev, F. Pavosevic, A. Kumar             : LibInt (2-el integral package), F12 methods
   Garnet Chan, S. Sharma, J. Yang, R. Olivares  : DMRG
   Ulf Ekstrom                                   : XCFun DFT Library
   Mihaly Kallay                                 : mrcc  (arbitrary order and MRCC methods)
   Andreas Klamt, Michael Diedenhofen            : otool_cosmo (COSMO solvation model)
   Jiri Pittner, Ondrej Demel                    : Mk-CCSD
   Frank Weinhold                                : gennbo (NPA and NBO analysis)
   Christopher J. Cramer and Donald G. Truhlar   : smd solvation model
   Lars Goerigk                                  : TD-DFT with DH, B97 family of functionals
   V. Asgeirsson, H. Jonsson                     : NEB implementation
   FAccTs GmbH                                   : IRC, NEB, NEB-TS, Multilevel, MM, QM/MM, CI optimization
   S Lehtola, MJT Oliveira, MAL Marques          : LibXC Library


 Your calculation uses the libint2 library for the computation of 2-el integrals
 For citations please refer to: http://libint.valeyev.net

 Your ORCA version has been built with support for libXC version: 4.2.3
 For citations please refer to: https://tddft.org/programs/libxc/

 This ORCA versions uses:
   CBLAS   interface :  Fast vector & matrix operations
   LAPACKE interface :  Fast linear algebra routines
   SCALAPACK package :  Parallel linear algebra routines




***************************************
The coordinates will be read from file: 11.xyz
***************************************


Your calculation utilizes the atom-pairwise dispersion correction
with the Becke-Johnson damping scheme (D3BJ)
Cite in your paper:
S.Grimme, S.Ehrlich, L.Goerigk, J Comput Chem, (2011), 32, 1456–1465 
S.Grimme, J.Antony, S.Ehrlich and H.Krieg, J.Chem.Phys., 132, (2010), 154104 
   

----- Orbital basis set information -----
Your calculation utilizes the basis: def2-TZVP
   F. Weigend and R. Ahlrichs, Phys. Chem. Chem. Phys. 7, 3297 (2005).

----- AuxJ basis set information -----
Your calculation utilizes the auxiliary basis: def2/J
   F. Weigend, Phys. Chem. Chem. Phys. 8, 1057 (2006).

================================================================================
                                        WARNINGS
                       Please study these warnings very carefully!
================================================================================


WARNING: Geometry Optimization
  ===> : Switching off AutoStart
         For restart on a previous wavefunction, please use MOREAD

INFO   : the flag for use of LIBINT has been found!

================================================================================
                                       INPUT FILE
================================================================================
NAME = 11.inp
|  1> !RI BP86 def2-tzvp def2/J D3BJ TIGHTSCF TightOpt Grid5 FinalGrid6 freq
|  2> %maxcore 4000
|  3> %pal nprocs 24
|  4> end
|  5> * xyzfile 0 1 11.xyz 
|  6> 
|  7>                          ****END OF INPUT****
================================================================================

                       *****************************
                       * Geometry Optimization Run *
                       *****************************

Geometry optimization settings:
Update method            Update   .... BFGS
Choice of coordinates    CoordSys .... Z-matrix Internals
Initial Hessian          InHess   .... Almoef's Model

Convergence Tolerances:
Energy Change            TolE     ....  1.0000e-06 Eh
Max. Gradient            TolMAXG  ....  1.0000e-04 Eh/bohr
RMS Gradient             TolRMSG  ....  3.0000e-05 Eh/bohr
Max. Displacement        TolMAXD  ....  1.0000e-03 bohr
RMS Displacement         TolRMSD  ....  6.0000e-04 bohr
Strict Convergence                ....  False
------------------------------------------------------------------------------
                        ORCA OPTIMIZATION COORDINATE SETUP
------------------------------------------------------------------------------

The optimization will be done in new redundant internal coordinates
Making redundant internal coordinates   ...  (new redundants) done
Evaluating the initial hessian          ...  (Almloef) done
Evaluating the coordinates              ...  done
Calculating the B-matrix                .... done
Calculating the G-matrix                .... done
Diagonalizing the G-matrix              .... done
Small eigenvalue found = 1.011e-03
Small eigenvalue found = 1.781e-03
Small eigenvalue found = 2.869e-03
Small eigenvalue found = 5.222e-03
Small eigenvalue found = 5.715e-03
Small eigenvalue found = 7.178e-03
Small eigenvalue found = 8.555e-03
Small eigenvalue found = 8.749e-03
Small eigenvalue found = 1.023e-02
Small eigenvalue found = 1.297e-02
Small eigenvalue found = 1.585e-02
Small eigenvalue found = 1.733e-02
Small eigenvalue found = 2.127e-02
Small eigenvalue found = 2.250e-02
Small eigenvalue found = 2.453e-02
Small eigenvalue found = 2.546e-02
Small eigenvalue found = 2.945e-02
The first mode is                       ....  330
The number of degrees of freedom        ....  339

    -----------------------------------------------------------------
                    Redundant Internal Coordinates


    -----------------------------------------------------------------
         Definition                    Initial Value    Approx d2E/dq
    -----------------------------------------------------------------
      1. B(C   1,O   0)                  1.2421         0.963637   
      2. B(C   2,C   1)                  1.5437         0.355210   
      3. B(C   3,C   2)                  1.5398         0.360319   
      4. B(C   4,C   3)                  1.5355         0.366091   
      5. B(C   5,C   4)                  1.5373         0.363671   
      6. B(N   6,C   5)                  1.4711         0.415364   
      7. B(N   6,C   2)                  1.4561         0.438965   
      8. B(C   7,N   6)                  1.3728         0.596160   
      9. B(O   8,C   7)                  1.2283         1.013700   
     10. B(N   9,C   1)                  1.3463         0.657111   
     11. B(C  10,N   9)                  1.4715         0.414750   
     12. B(C  11,C  10)                  1.5543         0.341695   
     13. B(N  12,C  11)                  1.3567         0.632453   
     14. B(C  13,N  12)                  1.4599         0.432848   
     15. B(C  14,C  13)                  1.5479         0.349857   
     16. B(N  15,C  14)                  1.3588         0.627499   
     17. B(C  16,N  15)                  1.4563         0.438657   
     18. B(C  17,C  16)                  1.5248         0.380781   
     19. B(C  18,C  17)                  1.5380         0.362783   
     20. B(C  19,C  18)                  1.5335         0.368851   
     21. B(N  20,C  19)                  1.3567         0.632464   
     22. B(C  21,N  20)                  1.4505         0.448004   
     23. B(C  22,C  21)                  1.5506         0.346399   
     24. B(N  23,C  22)                  1.3701         0.602005   
     25. B(C  24,C   7)                  1.5501         0.346953   
     26. B(C  24,N  23)                  1.4712         0.415295   
     27. B(C  25,C  24)                  1.5240         0.381922   
     28. B(O  26,C  22)                  1.2269         1.018988   
     29. B(C  27,C  21)                  1.5400         0.360053   
     30. B(C  28,C  27)                  1.5393         0.360997   
     31. B(C  29,C  28)                  1.5329         0.369638   
     32. B(C  30,C  28)                  1.5335         0.368778   
     33. B(O  31,C  19)                  1.2315         1.001677   
     34. B(C  32,C  18)                  1.5381         0.362618   
     35. B(C  33,C  32)                  1.5092         0.403186   
     36. B(C  34,C  33)                  1.5452         0.353239   
     37. B(C  35,C  34)                  1.5287         0.375300   
     38. B(C  36,C  35)                  1.5334         0.368943   
     39. B(C  37,C  36)                  1.5337         0.368494   
     40. B(C  38,C  37)                  1.5313         0.371731   
     41. B(C  39,C  38)                  1.5328         0.369698   
     42. B(C  40,C  39)                  1.5324         0.370285   
     43. B(C  41,C  40)                  1.5295         0.374262   
     44. B(O  42,C  32)                  1.2257         1.023475   
     45. B(O  43,C  17)                  1.4315         0.480546   
     46. B(O  44,C  14)                  1.2329         0.996634   
     47. B(C  45,C  13)                  1.5280         0.376394   
     48. B(C  46,C  45)                  1.5282         0.376068   
     49. B(O  47,C  11)                  1.2345         0.990699   
     50. B(C  48,C  10)                  1.5435         0.355520   
     51. B(C  49,C  48)                  1.5346         0.367295   
     52. B(C  50,C  48)                  1.5325         0.370169   
     53. B(H  51,C   2)                  1.0989         0.348529   
     54. B(H  52,C   3)                  1.0993         0.347966   
     55. B(H  53,C   3)                  1.0971         0.350791   
     56. B(H  54,C   4)                  1.0994         0.347928   
     57. B(H  55,C   4)                  1.0966         0.351493   
     58. B(H  56,C   5)                  1.0977         0.350088   
     59. B(H  57,C   5)                  1.1023         0.344247   
     60. B(H  58,N   9)                  1.0166         0.422416   
     61. B(H  59,C  10)                  1.1047         0.341145   
     62. B(H  60,N  12)                  1.0254         0.408938   
     63. B(H  61,C  13)                  1.1013         0.345482   
     64. B(H  62,N  15)                  1.0206         0.416217   
     65. B(H  63,C  16)                  1.0967         0.351325   
     66. B(H  64,C  16)                  1.1011         0.345674   
     67. B(H  65,C  17)                  1.1035         0.342728   
     68. B(H  66,C  18)                  1.1046         0.341248   
     69. B(H  67,H  58)                  4.7690         0.000000   
     70. B(H  67,N  20)                  1.0186         0.419318   
     71. B(H  68,C  21)                  1.1029         0.343403   
     72. B(H  69,N  23)                  1.0135         0.427105   
     73. B(H  70,C  24)                  1.1014         0.345303   
     74. B(H  71,C  25)                  1.0980         0.349727   
     75. B(H  72,C  25)                  1.0980         0.349607   
     76. B(H  73,C  25)                  1.0941         0.354695   
     77. B(H  74,C  27)                  1.1046         0.341322   
     78. B(H  75,C  27)                  1.1006         0.346295   
     79. B(H  76,C  28)                  1.1077         0.337472   
     80. B(H  77,H  56)                  2.7510         0.000154   
     81. B(H  77,C  29)                  1.1017         0.344989   
     82. B(H  78,C  29)                  1.0995         0.347717   
     83. B(H  79,C  29)                  1.1008         0.346151   
     84. B(H  80,C  30)                  1.0987         0.348811   
     85. B(H  81,C  30)                  1.1003         0.346710   
     86. B(H  82,C  30)                  1.0995         0.347725   
     87. B(H  83,H  73)                  4.5267         0.000000   
     88. B(H  83,C  33)                  1.1001         0.347001   
     89. B(H  84,C  33)                  1.0987         0.348763   
     90. B(H  85,C  34)                  1.1018         0.344806   
     91. B(H  86,H  59)                  2.0054         0.002388   
     92. B(H  86,C  34)                  1.1046         0.341250   
     93. B(H  87,C  35)                  1.1016         0.345074   
     94. B(H  88,C  35)                  1.1027         0.343663   
     95. B(H  89,C  36)                  1.1026         0.343781   
     96. B(H  90,C  36)                  1.1050         0.340808   
     97. B(H  91,C  37)                  1.1021         0.344463   
     98. B(H  92,C  37)                  1.1036         0.342535   
     99. B(H  93,C  38)                  1.1054         0.340274   
    100. B(H  94,O   8)                  2.3633         0.003000   
    101. B(H  94,C  38)                  1.1009         0.346022   
    102. B(H  95,C  39)                  1.1052         0.340502   
    103. B(H  96,C  39)                  1.1060         0.339588   
    104. B(H  97,C  40)                  1.1012         0.345617   
    105. B(H  98,C  40)                  1.1018         0.344878   
    106. B(H  99,C  41)                  1.0995         0.347713   
    107. B(H 100,C  41)                  1.1014         0.345311   
    108. B(H 101,C  41)                  1.1012         0.345556   
    109. B(H 102,O  43)                  0.9795         0.484019   
    110. B(H 103,C  45)                  1.0989         0.348573   
    111. B(H 104,H  74)                  2.7964         0.000131   
    112. B(H 104,C  45)                  1.1020         0.344554   
    113. B(H 105,C  46)                  1.0988         0.348678   
    114. B(H 106,C  46)                  1.1001         0.346967   
    115. B(H 107,H  54)                  2.5385         0.000337   
    116. B(H 107,C  46)                  1.1001         0.347047   
    117. B(H 108,C  48)                  1.1049         0.340875   
    118. B(H 109,H  93)                  3.9028         0.000002   
    119. B(H 109,C  49)                  1.1021         0.344487   
    120. B(H 110,C  49)                  1.0972         0.350653   
    121. B(H 111,C  49)                  1.0986         0.348871   
    122. B(H 112,H 102)                  4.3735         0.000000   
    123. B(H 112,C  50)                  1.0992         0.348112   
    124. B(H 113,C  50)                  1.0992         0.348104   
    125. B(H 114,C  50)                  1.0953         0.353107   
    126. A(O   0,C   1,N   9)          122.1307         0.469004   
    127. A(C   2,C   1,N   9)          117.0810         0.394686   
    128. A(O   0,C   1,C   2)          120.6529         0.422357   
    129. A(C   1,C   2,H  51)          109.2611         0.319936   
    130. A(N   6,C   2,H  51)          110.5888         0.329278   
    131. A(C   1,C   2,N   6)          108.7781         0.368010   
    132. A(C   1,C   2,C   3)          111.4412         0.358030   
    133. A(C   3,C   2,H  51)          113.6071         0.320683   
    134. A(C   3,C   2,N   6)          102.9479         0.368913   
    135. A(C   4,C   3,H  53)          112.8916         0.321859   
    136. A(C   4,C   3,H  52)          111.1264         0.321433   
    137. A(C   2,C   3,C   4)          102.4587         0.359874   
    138. A(C   2,C   3,H  53)          112.9971         0.321023   
    139. A(C   2,C   3,H  52)          109.0364         0.320599   
    140. A(H  52,C   3,H  53)          108.2410         0.288096   
    141. A(H  54,C   4,H  55)          107.6236         0.288181   
    142. A(C   3,C   4,H  55)          113.1488         0.321964   
    143. A(C   3,C   4,C   5)          103.9470         0.360442   
    144. A(C   3,C   4,H  54)          109.8990         0.321427   
    145. A(C   5,C   4,H  55)          112.4045         0.321615   
    146. A(C   5,C   4,H  54)          109.7893         0.321079   
    147. A(H  56,C   5,H  57)          108.4032         0.287522   
    148. A(C   4,C   5,N   6)          104.1153         0.366014   
    149. A(C   4,C   5,H  56)          110.8240         0.321404   
    150. A(N   6,C   5,H  57)          110.1643         0.325628   
    151. A(N   6,C   5,H  56)          111.6557         0.326531   
    152. A(C   4,C   5,H  57)          111.6754         0.320521   
    153. A(C   5,N   6,C   7)          127.6686         0.396254   
    154. A(C   2,N   6,C   7)          119.5069         0.400121   
    155. A(C   2,N   6,C   5)          112.0815         0.375688   
    156. A(O   8,C   7,C  24)          122.3907         0.424410   
    157. A(N   6,C   7,O   8)          121.2191         0.465009   
    158. A(N   6,C   7,C  24)          116.3688         0.386437   
    159. A(C   1,N   9,C  10)          124.2488         0.402993   
    160. A(C  10,N   9,H  58)          116.5060         0.333875   
    161. A(C   1,N   9,H  58)          118.4024         0.360756   
    162. A(C  48,C  10,H  59)          108.3593         0.318865   
    163. A(C  11,C  10,H  59)          105.3060         0.316810   
    164. A(N   9,C  10,C  11)          113.7775         0.362041   
    165. A(N   9,C  10,C  48)          108.6753         0.364504   
    166. A(N   9,C  10,H  59)          106.1023         0.325064   
    167. A(C  11,C  10,C  48)          114.1369         0.354870   
    168. A(N  12,C  11,O  47)          123.0420         0.468098   
    169. A(C  10,C  11,O  47)          122.0702         0.421521   
    170. A(C  10,C  11,N  12)          114.8352         0.389402   
    171. A(C  13,N  12,H  60)          117.6946         0.334446   
    172. A(C  11,N  12,C  13)          122.8434         0.403310   
    173. A(C  11,N  12,H  60)          117.3230         0.356443   
    174. A(C  14,C  13,C  45)          111.6296         0.359769   
    175. A(N  12,C  13,H  61)          106.0334         0.328040   
    176. A(C  14,C  13,H  61)          108.6261         0.318686   
    177. A(N  12,C  13,C  14)          109.5223         0.366171   
    178. A(C  45,C  13,H  61)          110.6138         0.322519   
    179. A(N  12,C  13,C  45)          110.2465         0.370795   
    180. A(C  13,C  14,N  15)          114.0341         0.390474   
    181. A(N  15,C  14,O  44)          124.0579         0.467936   
    182. A(C  13,C  14,O  44)          121.8823         0.423755   
    183. A(C  14,N  15,H  62)          118.8307         0.357036   
    184. A(C  16,N  15,H  62)          119.0006         0.336172   
    185. A(C  14,N  15,C  16)          122.1300         0.403700   
    186. A(H  63,C  16,H  64)          108.4454         0.287867   
    187. A(C  17,C  16,H  64)          107.8593         0.323162   
    188. A(N  15,C  16,H  63)          106.8871         0.329674   
    189. A(C  17,C  16,H  63)          110.3816         0.324023   
    190. A(N  15,C  16,C  17)          112.9771         0.372389   
    191. A(N  15,C  16,H  64)          110.2177         0.328793   
    192. A(O  43,C  17,H  65)          110.7301         0.333320   
    193. A(C  18,C  17,H  65)          108.0189         0.320161   
    194. A(C  16,C  17,H  65)          107.5036         0.322708   
    195. A(C  16,C  17,C  18)          113.2019         0.362718   
    196. A(C  18,C  17,O  43)          110.0115         0.375147   
    197. A(C  16,C  17,O  43)          107.3647         0.378300   
    198. A(C  19,C  18,H  66)          108.5176         0.320804   
    199. A(C  17,C  18,H  66)          108.1748         0.319935   
    200. A(C  17,C  18,C  32)          111.7534         0.359707   
    201. A(C  17,C  18,C  19)          112.3397         0.360753   
    202. A(C  19,C  18,C  32)          109.6909         0.360725   
    203. A(C  32,C  18,H  66)          106.1093         0.319911   
    204. A(C  18,C  19,N  20)          113.7256         0.394648   
    205. A(N  20,C  19,O  31)          124.2996         0.469046   
    206. A(C  18,C  19,O  31)          121.9747         0.428172   
    207. A(C  19,N  20,H  67)          119.9260         0.357966   
    208. A(C  19,N  20,C  21)          123.2045         0.405770   
    209. A(C  21,N  20,H  67)          115.8449         0.337772   
    210. A(C  27,C  21,H  68)          109.8000         0.319869   
    211. A(C  22,C  21,H  68)          107.7371         0.317858   
    212. A(N  20,C  21,H  68)          105.5287         0.329581   
    213. A(N  20,C  21,C  22)          106.1361         0.367711   
    214. A(C  22,C  21,C  27)          116.4156         0.356460   
    215. A(N  20,C  21,C  27)          110.6125         0.370160   
    216. A(C  21,C  22,N  23)          116.2588         0.386987   
    217. A(C  21,C  22,O  26)          121.0933         0.424684   
    218. A(N  23,C  22,O  26)          122.6378         0.466284   
    219. A(C  22,N  23,C  24)          123.1738         0.396921   
    220. A(C  24,N  23,H  69)          117.4180         0.334561   
    221. A(C  22,N  23,H  69)          116.9706         0.356088   
    222. A(C  25,C  24,H  70)          109.3319         0.323263   
    223. A(N  23,C  24,H  70)          105.3536         0.325783   
    224. A(C   7,C  24,H  70)          108.1848         0.318227   
    225. A(N  23,C  24,C  25)          113.4219         0.369090   
    226. A(C   7,C  24,N  23)          108.9285         0.363068   
    227. A(C   7,C  24,C  25)          111.3345         0.360152   
    228. A(H  71,C  25,H  73)          109.5377         0.288823   
    229. A(C  24,C  25,H  73)          109.9914         0.324691   
    230. A(H  71,C  25,H  72)          108.9888         0.288171   
    231. A(C  24,C  25,H  72)          110.0090         0.323921   
    232. A(C  24,C  25,H  71)          109.6439         0.323939   
    233. A(H  72,C  25,H  73)          108.6476         0.288808   
    234. A(C  28,C  27,H  75)          107.8701         0.320445   
    235. A(C  21,C  27,C  28)          116.2527         0.358971   
    236. A(H  74,C  27,H  75)          105.4970         0.286651   
    237. A(C  21,C  27,H  75)          107.2396         0.320308   
    238. A(C  28,C  27,H  74)          110.6869         0.319688   
    239. A(C  21,C  27,H  74)          108.7011         0.319552   
    240. A(C  29,C  28,C  30)          110.8875         0.361895   
    241. A(C  27,C  28,C  30)          110.7840         0.360438   
    242. A(C  27,C  28,C  29)          109.6275         0.360581   
    243. A(C  30,C  28,H  76)          107.2415         0.320210   
    244. A(C  29,C  28,H  76)          107.9709         0.320332   
    245. A(C  27,C  28,H  76)          110.2643         0.319097   
    246. A(C  28,C  29,H  79)          110.1990         0.321665   
    247. A(H  78,C  29,H  79)          107.9376         0.287465   
    248. A(H  77,C  29,H  79)          107.5854         0.287111   
    249. A(H  77,C  29,H  78)          107.9231         0.287314   
    250. A(C  28,C  29,H  78)          111.4833         0.321903   
    251. A(C  28,C  29,H  77)          111.5525         0.321488   
    252. A(H  81,C  30,H  82)          108.2694         0.287538   
    253. A(H  80,C  30,H  82)          107.8570         0.287810   
    254. A(C  28,C  30,H  82)          111.0174         0.321782   
    255. A(H  80,C  30,H  81)          107.3339         0.287678   
    256. A(C  28,C  30,H  81)          110.0292         0.321628   
    257. A(C  28,C  30,H  80)          112.1776         0.321946   
    258. A(C  33,C  32,O  42)          121.9855         0.436764   
    259. A(C  18,C  32,O  42)          120.9708         0.428516   
    260. A(C  18,C  32,C  33)          116.8646         0.366255   
    261. A(C  32,C  33,C  34)          108.2867         0.364615   
    262. A(C  34,C  33,H  84)          109.6599         0.319680   
    263. A(H  83,C  33,H  84)          108.6816         0.287710   
    264. A(C  32,C  33,H  84)          108.6848         0.326690   
    265. A(C  34,C  33,H  83)          109.7694         0.319416   
    266. A(C  32,C  33,H  83)          111.7348         0.326417   
    267. A(C  33,C  34,C  35)          113.6423         0.360180   
    268. A(H  85,C  34,H  86)          105.4383         0.286449   
    269. A(C  35,C  34,H  86)          108.6462         0.321715   
    270. A(C  33,C  34,H  86)          109.2575         0.318546   
    271. A(C  35,C  34,H  85)          110.6993         0.322262   
    272. A(C  33,C  34,H  85)          108.8269         0.319085   
    273. A(C  34,C  35,C  36)          111.7441         0.362863   
    274. A(H  87,C  35,H  88)          105.5048         0.286799   
    275. A(C  36,C  35,H  88)          109.3137         0.321187   
    276. A(C  34,C  35,H  88)          109.7118         0.322086   
    277. A(C  36,C  35,H  87)          111.2046         0.321402   
    278. A(C  34,C  35,H  87)          109.1687         0.322303   
    279. A(C  35,C  36,C  37)          114.4679         0.361731   
    280. A(H  89,C  36,H  90)          105.5996         0.286258   
    281. A(C  37,C  36,H  90)          108.7406         0.320685   
    282. A(C  35,C  36,H  90)          109.3327         0.320749   
    283. A(C  37,C  36,H  89)          109.6955         0.321141   
    284. A(C  35,C  36,H  89)          108.6323         0.321205   
    285. A(C  36,C  37,C  38)          112.8771         0.362196   
    286. A(H  91,C  37,H  92)          106.3127         0.286573   
    287. A(C  38,C  37,H  92)          109.0467         0.321410   
    288. A(C  36,C  37,H  92)          109.3936         0.320950   
    289. A(C  38,C  37,H  91)          109.8722         0.321705   
    290. A(C  36,C  37,H  91)          109.1257         0.321245   
    291. A(C  37,C  38,C  39)          114.8157         0.362398   
    292. A(H  93,C  38,H  94)          107.0827         0.286478   
    293. A(C  39,C  38,H  94)          108.4112         0.321654   
    294. A(C  37,C  38,H  94)          109.3941         0.321943   
    295. A(C  39,C  38,H  93)          108.9400         0.320774   
    296. A(C  37,C  38,H  93)          107.9291         0.321062   
    297. A(C  38,C  39,C  40)          114.1812         0.362157   
    298. A(H  95,C  39,H  96)          105.6974         0.285671   
    299. A(C  40,C  39,H  96)          108.3257         0.320751   
    300. A(C  38,C  39,H  96)          108.8506         0.320668   
    301. A(C  40,C  39,H  95)          109.6117         0.320892   
    302. A(C  38,C  39,H  95)          109.8150         0.320809   
    303. A(C  39,C  40,C  41)          112.6210         0.362917   
    304. A(H  97,C  40,H  98)          106.3963         0.287028   
    305. A(C  41,C  40,H  98)          109.3000         0.322127   
    306. A(C  39,C  40,H  98)          109.5607         0.321564   
    307. A(C  41,C  40,H  97)          110.1374         0.322240   
    308. A(C  39,C  40,H  97)          108.6321         0.321676   
    309. A(H 100,C  41,H 101)          107.4071         0.287076   
    310. A(H  99,C  41,H 101)          107.6445         0.287387   
    311. A(C  40,C  41,H 101)          111.3813         0.322230   
    312. A(H  99,C  41,H 100)          107.5944         0.287355   
    313. A(C  40,C  41,H 100)          111.0257         0.322193   
    314. A(C  40,C  41,H  99)          111.5859         0.322559   
    315. A(C  17,O  43,H 102)          104.4803         0.350096   
    316. A(C  13,C  45,C  46)          112.6781         0.364233   
    317. A(C  46,C  45,H 104)          110.9868         0.322331   
    318. A(C  13,C  45,H 104)          108.5834         0.322377   
    319. A(C  46,C  45,H 103)          110.8622         0.322944   
    320. A(C  13,C  45,H 103)          108.0861         0.322990   
    321. A(H 103,C  45,H 104)          105.3298         0.287367   
    322. A(H 106,C  46,H 107)          107.3077         0.287484   
    323. A(H 105,C  46,H 107)          107.9532         0.287705   
    324. A(C  45,C  46,H 107)          111.2999         0.322712   
    325. A(H 105,C  46,H 106)          107.7789         0.287694   
    326. A(C  45,C  46,H 106)          111.2468         0.322700   
    327. A(C  45,C  46,H 105)          111.0773         0.322960   
    328. A(C  50,C  48,H 108)          107.1159         0.320933   
    329. A(C  49,C  48,H 108)          108.1960         0.320525   
    330. A(C  10,C  48,H 108)          104.2704         0.318823   
    331. A(C  49,C  48,C  50)          111.6648         0.361735   
    332. A(C  10,C  48,C  50)          112.4072         0.359731   
    333. A(C  10,C  48,C  49)          112.6698         0.359254   
    334. A(H 110,C  49,H 111)          108.4275         0.288195   
    335. A(H 109,C  49,H 111)          107.0058         0.287397   
    336. A(C  48,C  49,H 111)          110.0230         0.321743   
    337. A(H 109,C  49,H 110)          107.9678         0.287626   
    338. A(C  48,C  49,H 110)          110.4883         0.322011   
    339. A(C  48,C  49,H 109)          112.7712         0.321078   
    340. A(H 113,C  50,H 114)          108.8527         0.288410   
    341. A(H 112,C  50,H 114)          108.3108         0.288411   
    342. A(C  48,C  50,H 114)          110.9766         0.322791   
    343. A(H 112,C  50,H 113)          107.6126         0.287768   
    344. A(C  48,C  50,H 113)          109.6955         0.322038   
    345. A(C  48,C  50,H 112)          111.2966         0.322039   
    346. D(H  51,C   2,C   1,N   9)     57.5545         0.009509   
    347. D(C   3,C   2,C   1,N   9)    -68.8143         0.009509   
    348. D(N   6,C   2,C   1,N   9)    178.3690         0.009509   
    349. D(N   6,C   2,C   1,O   0)     -5.7723         0.009509   
    350. D(C   3,C   2,C   1,O   0)    107.0444         0.009509   
    351. D(H  51,C   2,C   1,O   0)   -126.5868         0.009509   
    352. D(C   4,C   3,C   2,N   6)     35.6118         0.010415   
    353. D(H  53,C   3,C   2,H  51)    -82.9952         0.010415   
    354. D(H  53,C   3,C   2,C   1)     40.9502         0.010415   
    355. D(C   4,C   3,C   2,H  51)    155.2333         0.010415   
    356. D(H  53,C   3,C   2,N   6)    157.3833         0.010415   
    357. D(H  52,C   3,C   2,H  51)     37.4126         0.010415   
    358. D(C   4,C   3,C   2,C   1)    -80.8213         0.010415   
    359. D(H  52,C   3,C   2,C   1)    161.3581         0.010415   
    360. D(H  52,C   3,C   2,N   6)    -82.2089         0.010415   
    361. D(H  55,C   4,C   3,H  53)     79.3186         0.010728   
    362. D(H  55,C   4,C   3,H  52)    -42.5121         0.010728   
    363. D(H  54,C   4,C   3,H  52)   -162.8396         0.010728   
    364. D(H  55,C   4,C   3,C   2)   -158.8379         0.010728   
    365. D(H  54,C   4,C   3,H  53)    -41.0089         0.010728   
    366. D(C   5,C   4,C   3,C   2)    -36.6100         0.010728   
    367. D(H  54,C   4,C   3,C   2)     80.8346         0.010728   
    368. D(C   5,C   4,C   3,H  53)   -158.4535         0.010728   
    369. D(C   5,C   4,C   3,H  52)     79.7158         0.010728   
    370. D(N   6,C   5,C   4,C   3)     23.6272         0.010596   
    371. D(H  57,C   5,C   4,C   3)    -95.2174         0.010596   
    372. D(H  56,C   5,C   4,H  55)    -93.4714         0.010596   
    373. D(H  56,C   5,C   4,C   3)    143.8096         0.010596   
    374. D(H  57,C   5,C   4,H  54)    147.2618         0.010596   
    375. D(H  56,C   5,C   4,H  54)     26.2888         0.010596   
    376. D(H  57,C   5,C   4,H  55)     27.5015         0.010596   
    377. D(N   6,C   5,C   4,H  54)    -93.8936         0.010596   
    378. D(N   6,C   5,C   4,H  55)    146.3462         0.010596   
    379. D(C   5,N   6,C   2,C   3)    -22.0063         0.016430   
    380. D(C   7,N   6,C   5,H  57)    -71.0883         0.014714   
    381. D(C   7,N   6,C   5,H  56)     49.4200         0.014714   
    382. D(C   7,N   6,C   5,C   4)    169.0402         0.014714   
    383. D(C   2,N   6,C   5,H  57)    118.9561         0.014714   
    384. D(C   2,N   6,C   5,H  56)   -120.5356         0.014714   
    385. D(C   7,N   6,C   2,H  51)     45.4319         0.016430   
    386. D(C   2,N   6,C   5,C   4)     -0.9154         0.014714   
    387. D(C   7,N   6,C   2,C   3)    167.1213         0.016430   
    388. D(C   5,N   6,C   2,C   1)     96.3101         0.016430   
    389. D(C   7,N   6,C   2,C   1)    -74.5623         0.016430   
    390. D(C   5,N   6,C   2,H  51)   -143.6956         0.016430   
    391. D(C  24,C   7,N   6,C   5)     -6.1706         0.028612   
    392. D(C  24,C   7,N   6,C   2)    163.1271         0.028612   
    393. D(O   8,C   7,N   6,C   5)    175.4777         0.028612   
    394. D(O   8,C   7,N   6,C   2)    -15.2245         0.028612   
    395. D(H  58,N   9,C   1,O   0)    177.7504         0.035306   
    396. D(C  10,N   9,C   1,C   2)   -175.5583         0.035306   
    397. D(H  58,N   9,C   1,C   2)     -6.4568         0.035306   
    398. D(C  10,N   9,C   1,O   0)      8.6488         0.035306   
    399. D(H  59,C  10,N   9,C   1)     37.7646         0.014671   
    400. D(C  48,C  10,N   9,H  58)    -15.1892         0.014671   
    401. D(C  48,C  10,N   9,C   1)    154.1004         0.014671   
    402. D(C  11,C  10,N   9,C   1)    -77.5396         0.014671   
    403. D(H  59,C  10,N   9,H  58)   -131.5250         0.014671   
    404. D(C  11,C  10,N   9,H  58)    113.1707         0.014671   
    405. D(O  47,C  11,C  10,N   9)   -145.8643         0.008863   
    406. D(N  12,C  11,C  10,H  59)    -79.0725         0.008863   
    407. D(N  12,C  11,C  10,C  48)    162.2108         0.008863   
    408. D(N  12,C  11,C  10,N   9)     36.7004         0.008863   
    409. D(O  47,C  11,C  10,H  59)     98.3629         0.008863   
    410. D(O  47,C  11,C  10,C  48)    -20.3539         0.008863   
    411. D(H  60,N  12,C  11,O  47)   -163.6615         0.032493   
    412. D(H  60,N  12,C  11,C  10)     13.7459         0.032493   
    413. D(C  13,N  12,C  11,O  47)     -0.6903         0.032493   
    414. D(C  13,N  12,C  11,C  10)    176.7171         0.032493   
    415. D(H  61,C  13,N  12,C  11)     21.5950         0.015974   
    416. D(H  61,C  13,N  12,H  60)   -175.4932         0.015974   
    417. D(C  45,C  13,N  12,H  60)    -55.7285         0.015974   
    418. D(C  45,C  13,N  12,C  11)    141.3596         0.015974   
    419. D(C  14,C  13,N  12,C  11)    -95.4364         0.015974   
    420. D(C  14,C  13,N  12,H  60)     67.4754         0.015974   
    421. D(O  44,C  14,C  13,C  45)      8.6541         0.009249   
    422. D(O  44,C  14,C  13,N  12)   -113.7284         0.009249   
    423. D(N  15,C  14,C  13,H  61)    -50.8918         0.009249   
    424. D(N  15,C  14,C  13,C  45)   -173.1215         0.009249   
    425. D(O  44,C  14,C  13,H  61)    130.8838         0.009249   
    426. D(N  15,C  14,C  13,N  12)     64.4960         0.009249   
    427. D(H  62,N  15,C  14,O  44)   -177.4212         0.031945   
    428. D(H  62,N  15,C  14,C  13)      4.3987         0.031945   
    429. D(C  16,N  15,C  14,O  44)      4.8679         0.031945   
    430. D(C  16,N  15,C  14,C  13)   -173.3122         0.031945   
    431. D(H  64,C  16,N  15,H  62)     69.7842         0.016407   
    432. D(H  64,C  16,N  15,C  14)   -112.5087         0.016407   
    433. D(H  63,C  16,N  15,H  62)   -172.5593         0.016407   
    434. D(H  63,C  16,N  15,C  14)      5.1479         0.016407   
    435. D(C  17,C  16,N  15,C  14)    126.7520         0.016407   
    436. D(C  17,C  16,N  15,H  62)    -50.9552         0.016407   
    437. D(H  65,C  17,C  16,H  64)     65.7019         0.011554   
    438. D(H  65,C  17,C  16,H  63)    -52.6139         0.011554   
    439. D(H  65,C  17,C  16,N  15)   -172.2257         0.011554   
    440. D(O  43,C  17,C  16,H  64)    -53.4740         0.011554   
    441. D(O  43,C  17,C  16,H  63)   -171.7898         0.011554   
    442. D(O  43,C  17,C  16,N  15)     68.5984         0.011554   
    443. D(C  18,C  17,C  16,H  64)   -175.0843         0.011554   
    444. D(C  18,C  17,C  16,H  63)     66.6000         0.011554   
    445. D(C  18,C  17,C  16,N  15)    -53.0119         0.011554   
    446. D(H  66,C  18,C  17,H  65)   -176.7667         0.010548   
    447. D(H  66,C  18,C  17,O  43)    -55.7955         0.010548   
    448. D(H  66,C  18,C  17,C  16)     64.3164         0.010548   
    449. D(C  32,C  18,C  17,O  43)     60.6555         0.010548   
    450. D(C  32,C  18,C  17,C  16)   -179.2326         0.010548   
    451. D(C  32,C  18,C  17,H  65)    -60.3157         0.010548   
    452. D(C  19,C  18,C  17,H  65)     63.4773         0.010548   
    453. D(C  19,C  18,C  17,O  43)   -175.5515         0.010548   
    454. D(C  19,C  18,C  17,C  16)    -55.4396         0.010548   
    455. D(O  31,C  19,C  18,H  66)   -167.4439         0.010193   
    456. D(O  31,C  19,C  18,C  32)     77.0466         0.010193   
    457. D(O  31,C  19,C  18,C  17)    -47.8876         0.010193   
    458. D(N  20,C  19,C  18,H  66)     12.6424         0.010193   
    459. D(N  20,C  19,C  18,C  17)    132.1987         0.010193   
    460. D(N  20,C  19,C  18,C  32)   -102.8671         0.010193   
    461. D(H  67,N  20,C  19,O  31)   -174.1407         0.032494   
    462. D(H  67,N  20,C  19,C  18)      5.7707         0.032494   
    463. D(C  21,N  20,C  19,O  31)     -6.2082         0.032494   
    464. D(C  21,N  20,C  19,C  18)    173.7032         0.032494   
    465. D(H  68,C  21,N  20,H  67)    159.7768         0.017120   
    466. D(H  68,C  21,N  20,C  19)     -8.6086         0.017120   
    467. D(C  27,C  21,N  20,H  67)    -81.5294         0.017120   
    468. D(C  27,C  21,N  20,C  19)    110.0852         0.017120   
    469. D(C  22,C  21,N  20,H  67)     45.6002         0.017120   
    470. D(C  22,C  21,N  20,C  19)   -122.7852         0.017120   
    471. D(N  23,C  22,C  21,C  27)    -21.3761         0.009084   
    472. D(N  23,C  22,C  21,N  20)   -144.9441         0.009084   
    473. D(O  26,C  22,C  21,H  68)    -78.7229         0.009084   
    474. D(O  26,C  22,C  21,C  27)    157.4981         0.009084   
    475. D(O  26,C  22,C  21,N  20)     33.9301         0.009084   
    476. D(N  23,C  22,C  21,H  68)    102.4029         0.009084   
    477. D(H  69,N  23,C  22,O  26)   -178.0201         0.029216   
    478. D(H  69,N  23,C  22,C  21)      0.8351         0.029216   
    479. D(C  24,N  23,C  22,O  26)    -16.2246         0.029216   
    480. D(C  24,N  23,C  22,C  21)    162.6306         0.029216   
    481. D(H  70,C  24,N  23,H  69)     -9.6969         0.014709   
    482. D(H  70,C  24,N  23,C  22)   -171.4166         0.014709   
    483. D(C  25,C  24,N  23,H  69)   -129.2390         0.014709   
    484. D(C  25,C  24,N  23,C  22)     69.0413         0.014709   
    485. D(C   7,C  24,N  23,H  69)    106.1709         0.014709   
    486. D(C   7,C  24,N  23,C  22)    -55.5488         0.014709   
    487. D(H  70,C  24,C   7,O   8)   -135.4223         0.009110   
    488. D(H  70,C  24,C   7,N   6)     46.2471         0.009110   
    489. D(C  25,C  24,C   7,O   8)    -15.2648         0.009110   
    490. D(C  25,C  24,C   7,N   6)    166.4046         0.009110   
    491. D(N  23,C  24,C   7,O   8)    110.5438         0.009110   
    492. D(N  23,C  24,C   7,N   6)    -67.7868         0.009110   
    493. D(H  73,C  25,C  24,H  70)    177.8656         0.011619   
    494. D(H  73,C  25,C  24,N  23)    -64.8913         0.011619   
    495. D(H  73,C  25,C  24,C   7)     58.3879         0.011619   
    496. D(H  72,C  25,C  24,H  70)     58.2234         0.011619   
    497. D(H  72,C  25,C  24,N  23)    175.4665         0.011619   
    498. D(H  72,C  25,C  24,C   7)    -61.2543         0.011619   
    499. D(H  71,C  25,C  24,H  70)    -61.6224         0.011619   
    500. D(H  71,C  25,C  24,N  23)     55.6207         0.011619   
    501. D(H  71,C  25,C  24,C   7)    178.8999         0.011619   
    502. D(H  75,C  27,C  21,H  68)     83.0784         0.010400   
    503. D(H  75,C  27,C  21,C  22)   -154.2121         0.010400   
    504. D(H  75,C  27,C  21,N  20)    -32.9883         0.010400   
    505. D(H  74,C  27,C  21,H  68)   -163.3190         0.010400   
    506. D(H  74,C  27,C  21,C  22)    -40.6096         0.010400   
    507. D(H  74,C  27,C  21,N  20)     80.6142         0.010400   
    508. D(C  28,C  27,C  21,H  68)    -37.6716         0.010400   
    509. D(C  28,C  27,C  21,C  22)     85.0379         0.010400   
    510. D(C  28,C  27,C  21,N  20)   -153.7383         0.010400   
    511. D(H  76,C  28,C  27,H  75)   -168.9420         0.010451   
    512. D(H  76,C  28,C  27,H  74)     76.1081         0.010451   
    513. D(H  76,C  28,C  27,C  21)    -48.5295         0.010451   
    514. D(C  30,C  28,C  27,H  75)    -50.3820         0.010451   
    515. D(C  30,C  28,C  27,H  74)   -165.3319         0.010451   
    516. D(C  30,C  28,C  27,C  21)     70.0304         0.010451   
    517. D(C  29,C  28,C  27,H  75)     72.3173         0.010451   
    518. D(C  29,C  28,C  27,H  74)    -42.6326         0.010451   
    519. D(C  29,C  28,C  27,C  21)   -167.2702         0.010451   
    520. D(H  79,C  29,C  28,C  30)     63.6019         0.010924   
    521. D(H  79,C  29,C  28,C  27)    -59.0360         0.010924   
    522. D(H  78,C  29,C  28,H  76)     60.9825         0.010924   
    523. D(H  78,C  29,C  28,C  30)    -56.2305         0.010924   
    524. D(H  78,C  29,C  28,C  27)   -178.8684         0.010924   
    525. D(H  77,C  29,C  28,H  76)    -59.7498         0.010924   
    526. D(H  77,C  29,C  28,C  30)   -176.9628         0.010924   
    527. D(H  79,C  29,C  28,H  76)   -179.1851         0.010924   
    528. D(H  77,C  29,C  28,C  27)     60.3992         0.010924   
    529. D(H  82,C  30,C  28,H  76)    -57.6356         0.010876   
    530. D(H  82,C  30,C  28,C  29)     60.0233         0.010876   
    531. D(H  82,C  30,C  28,C  27)   -178.0121         0.010876   
    532. D(H  81,C  30,C  28,H  76)   -177.4709         0.010876   
    533. D(H  81,C  30,C  28,C  29)    -59.8121         0.010876   
    534. D(H  81,C  30,C  28,C  27)     62.1526         0.010876   
    535. D(H  80,C  30,C  28,H  76)     63.1189         0.010876   
    536. D(H  80,C  30,C  28,C  29)   -179.2222         0.010876   
    537. D(H  80,C  30,C  28,C  27)    -57.2575         0.010876   
    538. D(O  42,C  32,C  18,H  66)    116.8154         0.009876   
    539. D(O  42,C  32,C  18,C  19)   -126.1540         0.009876   
    540. D(O  42,C  32,C  18,C  17)     -0.8820         0.009876   
    541. D(C  33,C  32,C  18,H  66)    -58.4134         0.009876   
    542. D(C  33,C  32,C  18,C  19)     58.6171         0.009876   
    543. D(C  33,C  32,C  18,C  17)   -176.1109         0.009876   
    544. D(H  84,C  33,C  32,O  42)     35.6381         0.012056   
    545. D(H  84,C  33,C  32,C  18)   -149.1851         0.012056   
    546. D(H  83,C  33,C  32,O  42)    155.5604         0.012056   
    547. D(H  83,C  33,C  32,C  18)    -29.2628         0.012056   
    548. D(C  34,C  33,C  32,O  42)    -83.4269         0.012056   
    549. D(C  34,C  33,C  32,C  18)     91.7499         0.012056   
    550. D(H  86,C  34,C  33,H  84)   -161.9077         0.010039   
    551. D(H  86,C  34,C  33,H  83)     78.7618         0.010039   
    552. D(H  86,C  34,C  33,C  32)    -43.4606         0.010039   
    553. D(H  85,C  34,C  33,H  84)    -47.2602         0.010039   
    554. D(H  85,C  34,C  33,H  83)   -166.5907         0.010039   
    555. D(H  85,C  34,C  33,C  32)     71.1869         0.010039   
    556. D(C  35,C  34,C  33,H  84)     76.5826         0.010039   
    557. D(C  35,C  34,C  33,H  83)    -42.7479         0.010039   
    558. D(C  35,C  34,C  33,C  32)   -164.9703         0.010039   
    559. D(H  88,C  35,C  34,H  86)   -172.6850         0.011241   
    560. D(H  88,C  35,C  34,H  85)     71.9847         0.011241   
    561. D(H  88,C  35,C  34,C  33)    -50.8351         0.011241   
    562. D(H  87,C  35,C  34,H  86)    -57.5233         0.011241   
    563. D(H  87,C  35,C  34,H  85)   -172.8536         0.011241   
    564. D(H  87,C  35,C  34,C  33)     64.3266         0.011241   
    565. D(C  36,C  35,C  34,H  86)     65.9063         0.011241   
    566. D(C  36,C  35,C  34,H  85)    -49.4240         0.011241   
    567. D(C  36,C  35,C  34,C  33)   -172.2438         0.011241   
    568. D(H  90,C  36,C  35,H  87)     73.7708         0.010885   
    569. D(H  90,C  36,C  35,C  34)    -48.4994         0.010885   
    570. D(H  89,C  36,C  35,H  88)    -55.3644         0.010885   
    571. D(H  89,C  36,C  35,H  87)   -171.4555         0.010885   
    572. D(H  89,C  36,C  35,C  34)     66.2743         0.010885   
    573. D(C  37,C  36,C  35,H  88)     67.6044         0.010885   
    574. D(C  37,C  36,C  35,H  87)    -48.4867         0.010885   
    575. D(H  90,C  36,C  35,H  88)   -170.1380         0.010885   
    576. D(C  37,C  36,C  35,C  34)   -170.7570         0.010885   
    577. D(H  92,C  37,C  36,H  90)     71.3783         0.010860   
    578. D(H  92,C  37,C  36,H  89)    -43.6496         0.010860   
    579. D(H  92,C  37,C  36,C  35)   -166.0424         0.010860   
    580. D(H  91,C  37,C  36,H  90)   -172.6931         0.010860   
    581. D(H  91,C  37,C  36,H  89)     72.2789         0.010860   
    582. D(H  91,C  37,C  36,C  35)    -50.1138         0.010860   
    583. D(C  38,C  37,C  36,H  90)    -50.2255         0.010860   
    584. D(C  38,C  37,C  36,H  89)   -165.2535         0.010860   
    585. D(C  38,C  37,C  36,C  35)     72.3537         0.010860   
    586. D(H  94,C  38,C  37,H  92)    178.1319         0.011040   
    587. D(H  94,C  38,C  37,H  91)     61.9803         0.011040   
    588. D(H  94,C  38,C  37,C  36)    -60.0684         0.011040   
    589. D(H  93,C  38,C  37,H  92)    -65.6863         0.011040   
    590. D(H  93,C  38,C  37,H  91)    178.1622         0.011040   
    591. D(H  93,C  38,C  37,C  36)     56.1134         0.011040   
    592. D(C  39,C  38,C  37,H  92)     56.0128         0.011040   
    593. D(C  39,C  38,C  37,H  91)    -60.1387         0.011040   
    594. D(C  39,C  38,C  37,C  36)    177.8125         0.011040   
    595. D(H  95,C  39,C  38,H  94)    177.9466         0.010927   
    596. D(H  95,C  39,C  38,H  93)     61.7439         0.010927   
    597. D(H  95,C  39,C  38,C  37)    -59.4037         0.010927   
    598. D(C  40,C  39,C  38,H  94)    -58.4889         0.010927   
    599. D(C  40,C  39,C  38,H  93)   -174.6916         0.010927   
    600. D(C  40,C  39,C  38,C  37)     64.1608         0.010927   
    601. D(H  96,C  39,C  38,H  94)     62.6756         0.010927   
    602. D(H  96,C  39,C  38,H  93)    -53.5271         0.010927   
    603. D(H  96,C  39,C  38,C  37)   -174.6747         0.010927   
    604. D(H  98,C  40,C  39,H  95)     59.3365         0.010960   
    605. D(H  98,C  40,C  39,C  38)    -64.3376         0.010960   
    606. D(H  97,C  40,C  39,H  96)    -69.9476         0.010960   
    607. D(H  97,C  40,C  39,H  95)    175.1812         0.010960   
    608. D(H  97,C  40,C  39,C  38)     51.5071         0.010960   
    609. D(C  41,C  40,C  39,H  96)     52.3343         0.010960   
    610. D(C  41,C  40,C  39,H  95)    -62.5369         0.010960   
    611. D(H  98,C  40,C  39,H  96)    174.2077         0.010960   
    612. D(C  41,C  40,C  39,C  38)    173.7890         0.010960   
    613. D(H 101,C  41,C  40,H  98)    -62.8248         0.011182   
    614. D(H 101,C  41,C  40,H  97)   -179.3745         0.011182   
    615. D(H 101,C  41,C  40,C  39)     59.1961         0.011182   
    616. D(H 100,C  41,C  40,H  98)    177.5267         0.011182   
    617. D(H 100,C  41,C  40,H  97)     60.9771         0.011182   
    618. D(H 100,C  41,C  40,C  39)    -60.4524         0.011182   
    619. D(H  99,C  41,C  40,H  98)     57.5043         0.011182   
    620. D(H  99,C  41,C  40,H  97)    -59.0454         0.011182   
    621. D(H  99,C  41,C  40,C  39)    179.5252         0.011182   
    622. D(H 102,O  43,C  17,H  65)     55.4758         0.018218   
    623. D(H 102,O  43,C  17,C  18)    -63.8539         0.018218   
    624. D(H 102,O  43,C  17,C  16)    172.5595         0.018218   
    625. D(H 104,C  45,C  13,H  61)    178.0015         0.011303   
    626. D(H 104,C  45,C  13,C  14)    -60.9182         0.011303   
    627. D(H 104,C  45,C  13,N  12)     61.0480         0.011303   
    628. D(H 103,C  45,C  13,H  61)    -68.2191         0.011303   
    629. D(H 103,C  45,C  13,C  14)     52.8612         0.011303   
    630. D(H 103,C  45,C  13,N  12)    174.8274         0.011303   
    631. D(C  46,C  45,C  13,H  61)     54.6341         0.011303   
    632. D(C  46,C  45,C  13,C  14)    175.7144         0.011303   
    633. D(C  46,C  45,C  13,N  12)    -62.3194         0.011303   
    634. D(H 107,C  46,C  45,H 104)    -64.3930         0.011284   
    635. D(H 107,C  46,C  45,H 103)    178.9134         0.011284   
    636. D(H 107,C  46,C  45,C  13)     57.6272         0.011284   
    637. D(H 106,C  46,C  45,H 104)    175.9903         0.011284   
    638. D(H 106,C  46,C  45,H 103)     59.2968         0.011284   
    639. D(H 106,C  46,C  45,C  13)    -61.9895         0.011284   
    640. D(H 105,C  46,C  45,H 104)     55.9269         0.011284   
    641. D(H 105,C  46,C  45,H 103)    -60.7666         0.011284   
    642. D(H 105,C  46,C  45,C  13)    177.9471         0.011284   
    643. D(H 108,C  48,C  10,H  59)     68.0286         0.010159   
    644. D(H 108,C  48,C  10,C  11)   -175.0038         0.010159   
    645. D(H 108,C  48,C  10,N   9)    -46.8463         0.010159   
    646. D(C  50,C  48,C  10,H  59)    -47.6516         0.010159   
    647. D(C  50,C  48,C  10,C  11)     69.3160         0.010159   
    648. D(C  50,C  48,C  10,N   9)   -162.5266         0.010159   
    649. D(C  49,C  48,C  10,H  59)   -174.8790         0.010159   
    650. D(C  49,C  48,C  10,C  11)    -57.9115         0.010159   
    651. D(C  49,C  48,C  10,N   9)     70.2460         0.010159   
    652. D(H 111,C  49,C  48,C  50)     59.4398         0.010794   
    653. D(H 111,C  49,C  48,C  10)   -172.9401         0.010794   
    654. D(H 110,C  49,C  48,H 108)   -177.8918         0.010794   
    655. D(H 110,C  49,C  48,C  50)    -60.2515         0.010794   
    656. D(H 110,C  49,C  48,C  10)     67.3686         0.010794   
    657. D(H 109,C  49,C  48,H 108)     61.1776         0.010794   
    658. D(H 109,C  49,C  48,C  50)    178.8179         0.010794   
    659. D(H 111,C  49,C  48,H 108)    -58.2004         0.010794   
    660. D(H 109,C  49,C  48,C  10)    -53.5620         0.010794   
    661. D(H 114,C  50,C  48,H 108)    178.4705         0.010953   
    662. D(H 114,C  50,C  48,C  49)     60.1827         0.010953   
    663. D(H 114,C  50,C  48,C  10)    -67.5785         0.010953   
    664. D(H 113,C  50,C  48,H 108)     58.1512         0.010953   
    665. D(H 113,C  50,C  48,C  49)    -60.1365         0.010953   
    666. D(H 113,C  50,C  48,C  10)    172.1023         0.010953   
    667. D(H 112,C  50,C  48,H 108)    -60.8268         0.010953   
    668. D(H 112,C  50,C  48,C  49)   -179.1146         0.010953   
    669. D(H 112,C  50,C  48,C  10)     53.1243         0.010953   
    -----------------------------------------------------------------

Number of atoms                         .... 115
Number of degrees of freedom            .... 669

         *************************************************************
         *                GEOMETRY OPTIMIZATION CYCLE   1            *
         *************************************************************
---------------------------------
CARTESIAN COORDINATES (ANGSTROEM)
---------------------------------
  O      0.321241    0.683808   -0.082698
  C     -0.518309    1.540078   -0.406205
  C     -0.354014    3.009919    0.036122
  C      0.058984    3.909817   -1.143161
  C      1.571536    3.661829   -1.235230
  C      2.012847    3.515236    0.230064
  N      0.788272    3.104266    0.934166
  C      0.676061    2.641683    2.221771
  O     -0.421603    2.407611    2.720754
  N     -1.553480    1.256673   -1.218949
  C     -1.912877   -0.100510   -1.659756
  C     -1.001932   -0.653757   -2.791077
  N      0.304436   -0.300610   -2.694738
  C      1.324666   -0.779791   -3.622563
  C      2.027873   -2.021094   -3.022127
  N      1.212167   -3.096051   -2.862445
  C      1.650966   -4.307156   -2.183152
  C      0.715608   -4.729184   -1.055318
  C      0.440438   -3.604184   -0.043371
  C      1.730477   -3.028019    0.552738
  N      1.776845   -1.672149    0.546114
  C      2.837684   -0.910509    1.177463
  C      2.144900    0.029546    2.197552
  N      2.709930    1.266778    2.362525
  C      2.003690    2.397915    2.983916
  C      1.760089    2.213508    4.476960
  O      1.135278   -0.322337    2.799219
  C      3.725411   -0.234533    0.116000
  C      5.177711    0.061751    0.531399
  C      5.824270    1.002291   -0.491871
  C      5.981543   -1.237439    0.664202
  O      2.625677   -3.750887    0.991725
  C     -0.490305   -4.070883    1.088738
  C     -0.909975   -3.031087    2.098933
  C     -2.236392   -2.398533    1.621177
  C     -2.588804   -1.096507    2.340618
  C     -3.995422   -0.607948    1.974502
  C     -4.330710    0.800272    2.481274
  C     -3.593015    1.900689    1.713215
  C     -3.935804    3.329794    2.148818
  C     -3.531286    3.661033    3.589276
  C     -3.749964    5.134155    3.937786
  O     -0.936132   -5.212407    1.108540
  O     -0.510802   -5.158863   -1.655619
  O      3.215928   -2.000987   -2.693287
  C      2.320954    0.335708   -3.935155
  C      1.667901    1.532639   -4.625257
  O     -1.434691   -1.397293   -3.676460
  C     -3.419908   -0.129404   -1.991968
  C     -3.760598    0.659945   -3.263149
  C     -3.979313   -1.555186   -2.044386
  H     -1.271655    3.340973    0.541987
  H     -0.155976    4.957157   -0.887425
  H     -0.470558    3.667719   -2.073035
  H      1.764839    2.725333   -1.777635
  H      2.108989    4.463765   -1.755368
  H      2.806596    2.763031    0.325153
  H      2.385422    4.468053    0.640301
  H     -2.226499    1.991787   -1.419032
  H     -1.734976   -0.761470   -0.792640
  H      0.619675    0.098477   -1.804368
  H      0.787352   -1.086307   -4.533695
  H      0.250623   -3.038605   -3.199654
  H      2.655486   -4.106544   -1.791386
  H      1.716159   -5.142099   -2.898070
  H      1.199625   -5.561848   -0.516783
  H     -0.096685   -2.793389   -0.567139
  H      0.962488   -1.137310    0.249080
  H      3.430453   -1.645860    1.746957
  H      3.525600    1.478413    1.799345
  H      2.656013    3.271231    2.826040
  H      2.714234    2.023605    4.985933
  H      1.304654    3.119578    4.898065
  H      1.082207    1.371116    4.644122
  H      3.223410    0.685992   -0.231454
  H      3.753788   -0.902070   -0.758642
  H      5.199580    0.563718    1.518554
  H      5.285986    1.961308   -0.556763
  H      6.871195    1.218615   -0.234755
  H      5.808701    0.543809   -1.492476
  H      5.528595   -1.933704    1.383319
  H      6.027663   -1.752984   -0.306766
  H      7.009959   -1.032796    0.994993
  H     -0.146439   -2.248281    2.219007
  H     -1.063821   -3.524325    3.068575
  H     -3.044838   -3.138232    1.736307
  H     -2.174245   -2.197221    0.536819
  H     -1.828472   -0.335290    2.104034
  H     -2.526995   -1.245813    3.431431
  H     -4.731872   -1.329008    2.366285
  H     -4.115269   -0.627902    0.876213
  H     -4.087970    0.865180    3.554333
  H     -5.418011    0.970272    2.398586
  H     -3.832157    1.785575    0.640134
  H     -2.506963    1.755761    1.819852
  H     -5.017676    3.512648    2.015942
  H     -3.426757    4.041380    1.472301
  H     -2.472629    3.391710    3.728181
  H     -4.106368    3.032335    4.287766
  H     -3.462371    5.351070    4.976632
  H     -3.152172    5.788007    3.283387
  H     -4.805685    5.422983    3.816452
  H     -1.029605   -5.531464   -0.913040
  H      3.121377   -0.086568   -4.558444
  H      2.812355    0.640734   -2.997116
  H      2.399318    2.332702   -4.804793
  H      1.237502    1.246829   -5.596504
  H      0.852384    1.949271   -4.015781
  H     -3.897800    0.376061   -1.133477
  H     -3.384441    1.695470   -3.235901
  H     -3.334267    0.168094   -4.146469
  H     -4.850412    0.717193   -3.389639
  H     -3.745361   -2.109899   -1.124693
  H     -5.073589   -1.520425   -2.142583
  H     -3.565045   -2.107935   -2.894455

----------------------------
CARTESIAN COORDINATES (A.U.)
----------------------------
  NO LB      ZA    FRAG     MASS         X           Y           Z
   0 O     8.0000    0    15.999    0.607057    1.292210   -0.156276
   1 C     6.0000    0    12.011   -0.979461    2.910327   -0.767616
   2 C     6.0000    0    12.011   -0.668990    5.687923    0.068260
   3 C     6.0000    0    12.011    0.111464    7.388484   -2.160261
   4 C     6.0000    0    12.011    2.969772    6.919855   -2.334247
   5 C     6.0000    0    12.011    3.803730    6.642833    0.434758
   6 N     7.0000    0    14.007    1.489619    5.866212    1.765318
   7 C     6.0000    0    12.011    1.277571    4.992057    4.198539
   8 O     8.0000    0    15.999   -0.796714    4.549725    5.141480
   9 N     7.0000    0    14.007   -2.935652    2.374768   -2.303479
  10 C     6.0000    0    12.011   -3.614813   -0.189937   -3.136485
  11 C     6.0000    0    12.011   -1.893378   -1.235422   -5.274372
  12 N     7.0000    0    14.007    0.575301   -0.568070   -5.092317
  13 C     6.0000    0    12.011    2.503257   -1.473592   -6.845652
  14 C     6.0000    0    12.011    3.832124   -3.819315   -5.710992
  15 N     7.0000    0    14.007    2.290664   -5.850688   -5.409237
  16 C     6.0000    0    12.011    3.119874   -8.139346   -4.125559
  17 C     6.0000    0    12.011    1.352303   -8.936863   -1.994261
  18 C     6.0000    0    12.011    0.832307   -6.810921   -0.081959
  19 C     6.0000    0    12.011    3.270128   -5.722128    1.044524
  20 N     7.0000    0    14.007    3.357750   -3.159903    1.032006
  21 C     6.0000    0    12.011    5.362445   -1.720613    2.225083
  22 C     6.0000    0    12.011    4.053274    0.055834    4.152771
  23 N     7.0000    0    14.007    5.121026    2.393863    4.464525
  24 C     6.0000    0    12.011    3.786426    4.531402    5.638784
  25 C     6.0000    0    12.011    3.326087    4.182924    8.460229
  26 O     8.0000    0    15.999    2.145364   -0.609130    5.289758
  27 C     6.0000    0    12.011    7.040007   -0.443202    0.219208
  28 C     6.0000    0    12.011    9.784455    0.116693    1.004198
  29 C     6.0000    0    12.011   11.006276    1.894055   -0.929501
  30 C     6.0000    0    12.011   11.303478   -2.338420    1.255160
  31 O     8.0000    0    15.999    4.961811   -7.088149    1.874088
  32 C     6.0000    0    12.011   -0.926542   -7.692855    2.057417
  33 C     6.0000    0    12.011   -1.719604   -5.727925    3.966409
  34 C     6.0000    0    12.011   -4.226168   -4.532571    3.063580
  35 C     6.0000    0    12.011   -4.892131   -2.072097    4.423126
  36 C     6.0000    0    12.011   -7.550253   -1.148856    3.731269
  37 C     6.0000    0    12.011   -8.183855    1.512296    4.688928
  38 C     6.0000    0    12.011   -6.789814    3.591781    3.237507
  39 C     6.0000    0    12.011   -7.437591    6.292399    4.060678
  40 C     6.0000    0    12.011   -6.673163    6.918349    6.782749
  41 C     6.0000    0    12.011   -7.086405    9.702147    7.441337
  42 O     8.0000    0    15.999   -1.769033   -9.850022    2.094837
  43 O     8.0000    0    15.999   -0.965276   -9.748838   -3.128666
  44 O     8.0000    0    15.999    6.077224   -3.781317   -5.089575
  45 C     6.0000    0    12.011    4.385967    0.634397   -7.436365
  46 C     6.0000    0    12.011    3.151875    2.896268   -8.740469
  47 O     8.0000    0    15.999   -2.711173   -2.640502   -6.947502
  48 C     6.0000    0    12.011   -6.462690   -0.244538   -3.764274
  49 C     6.0000    0    12.011   -7.106499    1.247115   -6.166459
  50 C     6.0000    0    12.011   -7.519812   -2.938875   -3.863330
  51 H     1.0000    0     1.008   -2.403079    6.313524    1.024207
  52 H     1.0000    0     1.008   -0.294752    9.367669   -1.676990
  53 H     1.0000    0     1.008   -0.889227    6.930985   -3.917469
  54 H     1.0000    0     1.008    3.335062    5.150134   -3.359243
  55 H     1.0000    0     1.008    3.985411    8.435293   -3.317165
  56 H     1.0000    0     1.008    5.303698    5.221371    0.614451
  57 H     1.0000    0     1.008    4.507794    8.443397    1.209994
  58 H     1.0000    0     1.008   -4.207473    3.763932   -2.681581
  59 H     1.0000    0     1.008   -3.278630   -1.438969   -1.497873
  60 H     1.0000    0     1.008    1.171015    0.186095   -3.409762
  61 H     1.0000    0     1.008    1.487880   -2.052822   -8.567442
  62 H     1.0000    0     1.008    0.473608   -5.742131   -6.046469
  63 H     1.0000    0     1.008    5.018141   -7.760244   -3.385229
  64 H     1.0000    0     1.008    3.243070   -9.717158   -5.476558
  65 H     1.0000    0     1.008    2.266963  -10.510370   -0.976578
  66 H     1.0000    0     1.008   -0.182709   -5.278740   -1.071737
  67 H     1.0000    0     1.008    1.818840   -2.149204    0.470693
  68 H     1.0000    0     1.008    6.482617   -3.110225    3.301271
  69 H     1.0000    0     1.008    6.662418    2.793796    3.400268
  70 H     1.0000    0     1.008    5.019138    6.181730    5.340441
  71 H     1.0000    0     1.008    5.129159    3.824059    9.422049
  72 H     1.0000    0     1.008    2.465439    5.895148    9.256001
  73 H     1.0000    0     1.008    2.045075    2.591033    8.776118
  74 H     1.0000    0     1.008    6.091363    1.296336   -0.437384
  75 H     1.0000    0     1.008    7.093631   -1.704665   -1.433626
  76 H     1.0000    0     1.008    9.825782    1.065273    2.869651
  77 H     1.0000    0     1.008    9.989065    3.706335   -1.052130
  78 H     1.0000    0     1.008   12.984677    2.302848   -0.443622
  79 H     1.0000    0     1.008   10.976855    1.027650   -2.820372
  80 H     1.0000    0     1.008   10.447531   -3.654171    2.614095
  81 H     1.0000    0     1.008   11.390633   -3.312660   -0.579704
  82 H     1.0000    0     1.008   13.246903   -1.951701    1.880265
  83 H     1.0000    0     1.008   -0.276730   -4.248635    4.193315
  84 H     1.0000    0     1.008   -2.010330   -6.660010    5.798767
  85 H     1.0000    0     1.008   -5.753911   -5.930399    3.281144
  86 H     1.0000    0     1.008   -4.108728   -4.152146    1.014440
  87 H     1.0000    0     1.008   -3.455311   -0.633606    3.976047
  88 H     1.0000    0     1.008   -4.775328   -2.354245    6.484465
  89 H     1.0000    0     1.008   -8.941943   -2.511462    4.471630
  90 H     1.0000    0     1.008   -7.776731   -1.186562    1.655803
  91 H     1.0000    0     1.008   -7.725144    1.634953    6.716715
  92 H     1.0000    0     1.008  -10.238556    1.833549    4.532670
  93 H     1.0000    0     1.008   -7.241727    3.374247    1.209677
  94 H     1.0000    0     1.008   -4.737474    3.317908    3.439022
  95 H     1.0000    0     1.008   -9.482034    6.637942    3.809579
  96 H     1.0000    0     1.008   -6.475632    7.637101    2.782245
  97 H     1.0000    0     1.008   -4.672591    6.409403    7.045241
  98 H     1.0000    0     1.008   -7.759910    5.730283    8.102703
  99 H     1.0000    0     1.008   -6.542933   10.112057    9.404472
 100 H     1.0000    0     1.008   -5.956741   10.937749    6.204703
 101 H     1.0000    0     1.008   -9.081429   10.247954    7.212049
 102 H     1.0000    0     1.008   -1.945672  -10.452953   -1.725396
 103 H     1.0000    0     1.008    5.898549   -0.163590   -8.614211
 104 H     1.0000    0     1.008    5.314580    1.210811   -5.663729
 105 H     1.0000    0     1.008    4.534053    4.408168   -9.079742
 106 H     1.0000    0     1.008    2.338540    2.356166  -10.575859
 107 H     1.0000    0     1.008    1.610773    3.683589   -7.588726
 108 H     1.0000    0     1.008   -7.365774    0.710652   -2.141962
 109 H     1.0000    0     1.008   -6.395666    3.203974   -6.114967
 110 H     1.0000    0     1.008   -6.300852    0.317652   -7.835690
 111 H     1.0000    0     1.008   -9.165951    1.355298   -6.405490
 112 H     1.0000    0     1.008   -7.077706   -3.987132   -2.125361
 113 H     1.0000    0     1.008   -9.587693   -2.873186   -4.048894
 114 H     1.0000    0     1.008   -6.736959   -3.983420   -5.469727

--------------------------------
INTERNAL COORDINATES (ANGSTROEM)
--------------------------------
 O      0   0   0     0.000000000000     0.00000000     0.00000000
 C      1   0   0     1.242054183886     0.00000000     0.00000000
 C      2   1   0     1.543721823019   120.65290367     0.00000000
 C      3   2   1     1.539834741743   111.44123805   107.04442933
 C      4   3   2     1.535508763406   102.45872778   279.17873053
 C      5   4   3     1.537313512961   103.94697854   323.38996867
 N      3   2   1     1.456092113965   108.77805971   354.22771040
 C      7   3   2     1.372771216455   119.50692232   285.43766205
 O      8   7   3     1.228267385983   121.21906072   344.77545384
 N      2   1   3     1.346273062412   122.13070765   175.64543318
 C     10   2   1     1.471538203161   124.24879409     8.64879494
 C     11  10   2     1.554281100385   113.77754847   282.46035214
 N     12  11  10     1.356684512477   114.83517327    36.70036336
 C     13  12  11     1.459911972574   122.84337692   176.71711196
 C     14  13  12     1.547855406370   109.52227085   264.56363244
 N     15  14  13     1.358824894120   114.03405273    64.49596322
 C     16  15  14     1.456282951609   122.12995362   186.68775701
 C     17  16  15     1.524799221894   112.97706078   126.75196758
 C     18  17  16     1.537979311755   113.20192623   306.98812817
 C     19  18  17     1.533464032974   112.33973851   304.56044429
 N     20  19  18     1.356679727744   113.72562044   132.19873347
 C     21  20  19     1.450543444784   123.20448057   173.70316785
 C     22  21  20     1.550558928135   106.13607889   237.21480115
 N     23  22  21     1.370115484323   116.25877708   215.05589108
 C     24  23  22     1.471180839323   123.17378163   162.63055060
 C     25  24  23     1.523984688822   113.42192269    69.04129580
 O     23  22  21     1.226851034968   121.09330689    33.93011656
 C     22  21  20     1.540035620704   110.61251921   110.08523195
 C     28  22  21     1.539322644216   116.25274620   206.26168954
 C     29  28  22     1.532884039181   109.62751886   192.72981889
 C     29  28  22     1.533518153712   110.78400379    70.03044444
 O     20  19  18     1.231515262284   121.97469107   312.11241859
 C     19  18  17     1.538103305741   111.75337614   180.76741466
 C     33  19  18     1.509235806893   116.86456799   183.88912137
 C     34  33  19     1.545236544950   108.28674631    91.74986386
 C     35  34  33     1.528745853937   113.64226056   195.02970973
 C     36  35  34     1.533395952391   111.74413280   187.75621263
 C     37  36  35     1.533727596459   114.46794210   189.24304449
 C     38  37  36     1.531346958659   112.87709557    72.35373577
 C     39  38  37     1.532839589120   114.81573235   177.81251575
 C     40  39  38     1.532407503128   114.18117935    64.16082272
 C     41  40  39     1.529499531308   112.62096171   173.78899139
 O     33  19  18     1.225655065786   120.97075044   359.11799581
 O     18  17  16     1.431456328897   107.36473094    68.59842118
 O     15  14  13     1.232889285273   121.88226866   246.27156920
 C     14  13  12     1.527953495748   110.24648244   141.35964658
 C     46  14  13     1.528189231471   112.67807513   297.68064047
 O     12  11  10     1.234515213492   122.07015555   214.13572449
 C     11  10   2     1.543484252491   108.67525196   154.10039576
 C     49  11  10     1.534614964295   112.66975025    70.24600560
 C     49  11  10     1.532492927028   112.40719571   197.47344257
 H      3   2   1     1.098890526445   109.26106886   233.41321493
 H      4   3   2     1.099330928477   109.03644718   161.35806963
 H      4   3   2     1.097129612702   112.99706259    40.95021863
 H      5   4   3     1.099360459911   109.89901978    80.83464508
 H      5   4   3     1.096585460490   113.14884576   201.16213093
 H      6   5   4     1.097675443346   110.82396601   143.80963718
 H      6   5   4     1.102255607074   111.67535690   264.78261369
 H     10   2   1     1.016552965590   118.40244497   177.75035759
 H     11  10   2     1.104719574632   106.10227182    37.76461701
 H     13  12  11     1.025379956314   117.32301541    13.74593479
 H     14  13  12     1.101280995316   106.03339250    21.59497467
 H     16  15  14     1.020576956421   118.83065926     4.39867758
 H     17  16  15     1.096715699367   106.88705710     5.14786309
 H     17  16  15     1.101129608353   110.21774091   247.49131758
 H     18  17  16     1.103459390692   107.50364929   187.77429773
 H     19  18  17     1.104637158735   108.17481667    64.31642225
 H     21  20  19     1.018556630488   119.92595301     5.77069643
 H     22  21  20     1.102923517615   105.52869601   351.39143264
 H     24  23  22     1.013547667294   116.97056257     0.83507984
 H     25  24  23     1.101422044003   105.35363943   188.58340161
 H     26  25  24     1.097956452896   109.64391042    55.62072990
 H     26  25  24     1.098049627810   110.00896620   175.46645757
 H     26  25  24     1.094116763464   109.99139683   295.10871420
 H     28  22  21     1.104578384241   108.70107299    80.61423757
 H     28  22  21     1.100640674509   107.23960535   327.01169653
 H     29  28  22     1.107666232223   110.26431482   311.47051509
 H     30  29  28     1.101669526440   111.55251069    60.39922011
 H     30  29  28     1.099525540526   111.48332922   181.13159347
 H     30  29  28     1.100754014582   110.19897128   300.96399991
 H     31  29  28     1.098670297277   112.17763358   302.74246646
 H     31  29  28     1.100315133874   110.02918678    62.15258032
 H     31  29  28     1.099518868342   111.01742205   181.98794614
 H     34  33  19     1.100086846503   111.73477299   330.73715794
 H     34  33  19     1.098707501821   108.68475384   210.81487713
 H     35  34  33     1.101814171887   108.82687178    71.18689175
 H     35  34  33     1.104636054061   109.25750317   316.53942423
 H     36  35  34     1.101602479212   109.16869834    64.32662802
 H     36  35  34     1.102718120379   109.71177757   309.16491577
 H     37  36  35     1.102624291947   108.63230180    66.27429272
 H     37  36  35     1.104988819205   109.33267820   311.50061394
 H     38  37  36     1.102084567145   109.12569248   309.88615252
 H     38  37  36     1.103612710428   109.39361187   193.95759419
 H     39  38  37     1.105415652194   107.92907624    56.11338401
 H     39  38  37     1.100855799263   109.39408580   299.93157388
 H     40  39  38     1.105233038895   109.81504916   300.59631521
 H     40  39  38     1.105964872267   108.85056504   185.32526361
 H     41  40  39     1.101174096519   108.63206726    51.50710122
 H     41  40  39     1.101756743129   109.56070548   295.66238111
 H     42  41  40     1.099528724369   111.58586232   179.52521097
 H     42  41  40     1.101415168454   111.02567132   299.54762812
 H     42  41  40     1.101222808341   111.38127291    59.19611125
 H     44  18  17     0.979495668344   104.48034604   172.55950117
 H     46  14  13     1.098855930290   108.08608579   174.82741482
 H     46  14  13     1.102012845569   108.58337738    61.04800942
 H     47  46  14     1.098774313511   111.07734335   177.94710032
 H     47  46  14     1.100113519111   111.24684587   298.01050727
 H     47  46  14     1.100050398024   111.29994519    57.62719054
 H     49  11  10     1.104935026414   104.27043919   313.15365419
 H     50  49  11     1.102065666236   112.77120374   306.43798449
 H     50  49  11     1.097236420266   110.48833824    67.36857794
 H     50  49  11     1.098623381361   110.02295210   187.05991448
 H     51  49  11     1.099216429821   111.29657383    53.12427062
 H     51  49  11     1.099222617415   109.69546121   172.10230359
 H     51  49  11     1.095338397574   110.97659192   292.42154558

---------------------------
INTERNAL COORDINATES (A.U.)
---------------------------
 O      0   0   0     0.000000000000     0.00000000     0.00000000
 C      1   0   0     2.347142251036     0.00000000     0.00000000
 C      2   1   0     2.917211472464   120.65290367     0.00000000
 C      3   2   1     2.909865953392   111.44123805   107.04442933
 C      4   3   2     2.901691039074   102.45872778   279.17873053
 C      5   4   3     2.905101521472   103.94697854   323.38996867
 N      3   2   1     2.751615321157   108.77805971   354.22771040
 C      7   3   2     2.594161643630   119.50692232   285.43766205
 O      8   7   3     2.321088978735   121.21906072   344.77545384
 N      2   1   3     2.544087389434   122.13070765   175.64543318
 C     10   2   1     2.780804199576   124.24879409     8.64879494
 C     11  10   2     2.937165614858   113.77754847   282.46035214
 N     12  11  10     2.563762178714   114.83517327    36.70036336
 C     13  12  11     2.758833807797   122.84337692   176.71711196
 C     14  13  12     2.925022812949   109.52227085   264.56363244
 N     15  14  13     2.567806913842   114.03405273    64.49596322
 C     16  15  14     2.751975952040   122.12995362   186.68775701
 C     17  16  15     2.881452938596   112.97706078   126.75196758
 C     18  17  16     2.906359698854   113.20192623   306.98812817
 C     19  18  17     2.897827058539   112.33973851   304.56044429
 N     20  19  18     2.563753136879   113.72562044   132.19873347
 C     21  20  19     2.741129855996   123.20448057   173.70316785
 C     22  21  20     2.930131728682   106.13607889   237.21480115
 N     23  22  21     2.589143037215   116.25877708   215.05589108
 C     24  23  22     2.780128879793   123.17378163   162.63055060
 C     25  24  23     2.879913694162   113.42192269    69.04129580
 O     23  22  21     2.318412463207   121.09330689    33.93011656
 C     22  21  20     2.910245559614   110.61251921   110.08523195
 C     28  22  21     2.908898229312   116.25274620   206.26168954
 C     29  28  22     2.896731029110   109.62751886   192.72981889
 C     29  28  22     2.897929331912   110.78400379    70.03044444
 O     20  19  18     2.327226575461   121.97469107   312.11241859
 C     19  18  17     2.906594013530   111.75337614   180.76741466
 C     33  19  18     2.852042346535   116.86456799   183.88912137
 C     34  33  19     2.920073882082   108.28674631    91.74986386
 C     35  34  33     2.888910992309   113.64226056   195.02970973
 C     36  35  34     2.897698404882   111.74413280   187.75621263
 C     37  36  35     2.898325121344   114.46794210   189.24304449
 C     38  37  36     2.893826367879   112.87709557    72.35373577
 C     39  38  37     2.896647030670   114.81573235   177.81251575
 C     40  39  38     2.895830506477   114.18117935    64.16082272
 C     41  40  39     2.890335236132   112.62096171   173.78899139
 O     33  19  18     2.316152408989   120.97075044   359.11799581
 O     18  17  16     2.705060434284   107.36473094    68.59842118
 O     15  14  13     2.329823102612   121.88226866   246.27156920
 C     14  13  12     2.887413652331   110.24648244   141.35964658
 C     46  14  13     2.887859128288   112.67807513   297.68064047
 O     12  11  10     2.332895661660   122.07015555   214.13572449
 C     11  10   2     2.916762529228   108.67525196   154.10039576
 C     49  11  10     2.900002003535   112.66975025    70.24600560
 C     49  11  10     2.895991934255   112.40719571   197.47344257
 H      3   2   1     2.076602146141   109.26106886   233.41321493
 H      4   3   2     2.077434385371   109.03644718   161.35806963
 H      4   3   2     2.073274501421   112.99706259    40.95021863
 H      5   4   3     2.077490191694   109.89901978    80.83464508
[...]
freq.      89.74  E(vib)   ...       0.47 
freq.      92.83  E(vib)   ...       0.47 
freq.      97.64  E(vib)   ...       0.46 
freq.     106.95  E(vib)   ...       0.45 
freq.     107.43  E(vib)   ...       0.45 
freq.     112.07  E(vib)   ...       0.45 
freq.     115.55  E(vib)   ...       0.44 
freq.     119.01  E(vib)   ...       0.44 
freq.     123.83  E(vib)   ...       0.43 
freq.     128.12  E(vib)   ...       0.43 
freq.     131.47  E(vib)   ...       0.42 
freq.     133.11  E(vib)   ...       0.42 
freq.     142.23  E(vib)   ...       0.41 
freq.     145.72  E(vib)   ...       0.41 
freq.     151.27  E(vib)   ...       0.40 
freq.     160.35  E(vib)   ...       0.39 
freq.     163.34  E(vib)   ...       0.39 
freq.     173.45  E(vib)   ...       0.38 
freq.     181.97  E(vib)   ...       0.37 
freq.     188.90  E(vib)   ...       0.36 
freq.     198.70  E(vib)   ...       0.35 
freq.     205.87  E(vib)   ...       0.35 
freq.     209.08  E(vib)   ...       0.34 
freq.     210.37  E(vib)   ...       0.34 
freq.     216.85  E(vib)   ...       0.34 
freq.     218.57  E(vib)   ...       0.33 
freq.     224.93  E(vib)   ...       0.33 
freq.     227.70  E(vib)   ...       0.33 
freq.     229.67  E(vib)   ...       0.32 
freq.     229.85  E(vib)   ...       0.32 
freq.     241.99  E(vib)   ...       0.31 
freq.     247.72  E(vib)   ...       0.31 
freq.     250.03  E(vib)   ...       0.31 
freq.     253.32  E(vib)   ...       0.30 
freq.     261.00  E(vib)   ...       0.30 
freq.     263.96  E(vib)   ...       0.29 
freq.     268.06  E(vib)   ...       0.29 
freq.     278.34  E(vib)   ...       0.28 
freq.     279.80  E(vib)   ...       0.28 
freq.     292.20  E(vib)   ...       0.27 
freq.     305.83  E(vib)   ...       0.26 
freq.     312.39  E(vib)   ...       0.25 
freq.     313.50  E(vib)   ...       0.25 
freq.     321.84  E(vib)   ...       0.25 
freq.     327.43  E(vib)   ...       0.24 
freq.     334.84  E(vib)   ...       0.24 
freq.     339.65  E(vib)   ...       0.23 
freq.     353.97  E(vib)   ...       0.22 
freq.     358.55  E(vib)   ...       0.22 
freq.     372.17  E(vib)   ...       0.21 
freq.     376.72  E(vib)   ...       0.21 
freq.     383.58  E(vib)   ...       0.20 
freq.     385.55  E(vib)   ...       0.20 
freq.     394.13  E(vib)   ...       0.20 
freq.     410.04  E(vib)   ...       0.19 
freq.     414.08  E(vib)   ...       0.19 
freq.     420.80  E(vib)   ...       0.18 
freq.     427.95  E(vib)   ...       0.18 
freq.     448.62  E(vib)   ...       0.17 
freq.     454.35  E(vib)   ...       0.16 
freq.     470.17  E(vib)   ...       0.16 
freq.     478.56  E(vib)   ...       0.15 
freq.     488.40  E(vib)   ...       0.15 
freq.     495.69  E(vib)   ...       0.14 
freq.     506.17  E(vib)   ...       0.14 
freq.     528.29  E(vib)   ...       0.13 
freq.     534.24  E(vib)   ...       0.13 
freq.     543.97  E(vib)   ...       0.12 
freq.     558.73  E(vib)   ...       0.12 
freq.     571.69  E(vib)   ...       0.11 
freq.     579.14  E(vib)   ...       0.11 
freq.     583.28  E(vib)   ...       0.11 
freq.     605.79  E(vib)   ...       0.10 
freq.     612.20  E(vib)   ...       0.10 
freq.     616.95  E(vib)   ...       0.09 
freq.     629.43  E(vib)   ...       0.09 
freq.     641.39  E(vib)   ...       0.09 
freq.     647.11  E(vib)   ...       0.09 
freq.     662.44  E(vib)   ...       0.08 
freq.     678.74  E(vib)   ...       0.08 
freq.     691.81  E(vib)   ...       0.07 
freq.     706.76  E(vib)   ...       0.07 
freq.     717.44  E(vib)   ...       0.07 
freq.     720.17  E(vib)   ...       0.07 
freq.     722.75  E(vib)   ...       0.07 
freq.     725.72  E(vib)   ...       0.06 
freq.     747.23  E(vib)   ...       0.06 
freq.     750.12  E(vib)   ...       0.06 
freq.     755.21  E(vib)   ...       0.06 
freq.     766.07  E(vib)   ...       0.06 
freq.     773.14  E(vib)   ...       0.05 
freq.     792.11  E(vib)   ...       0.05 
freq.     794.71  E(vib)   ...       0.05 
freq.     797.12  E(vib)   ...       0.05 
freq.     816.44  E(vib)   ...       0.05 
freq.     822.33  E(vib)   ...       0.05 
freq.     825.86  E(vib)   ...       0.04 
freq.     836.41  E(vib)   ...       0.04 
freq.     845.53  E(vib)   ...       0.04 
freq.     853.31  E(vib)   ...       0.04 
freq.     854.91  E(vib)   ...       0.04 
freq.     866.47  E(vib)   ...       0.04 
freq.     868.68  E(vib)   ...       0.04 
freq.     879.48  E(vib)   ...       0.04 
freq.     884.87  E(vib)   ...       0.04 
freq.     887.17  E(vib)   ...       0.04 
freq.     899.68  E(vib)   ...       0.03 
freq.     901.06  E(vib)   ...       0.03 
freq.     902.79  E(vib)   ...       0.03 
freq.     906.89  E(vib)   ...       0.03 
freq.     913.96  E(vib)   ...       0.03 
freq.     914.88  E(vib)   ...       0.03 
freq.     920.87  E(vib)   ...       0.03 
freq.     926.18  E(vib)   ...       0.03 
freq.     933.28  E(vib)   ...       0.03 
freq.     938.87  E(vib)   ...       0.03 
freq.     944.77  E(vib)   ...       0.03 
freq.     946.05  E(vib)   ...       0.03 
freq.     949.12  E(vib)   ...       0.03 
freq.     958.12  E(vib)   ...       0.03 
freq.     962.25  E(vib)   ...       0.03 
freq.     972.09  E(vib)   ...       0.03 
freq.     975.51  E(vib)   ...       0.03 
freq.     980.30  E(vib)   ...       0.02 
freq.     995.42  E(vib)   ...       0.02 
freq.     999.14  E(vib)   ...       0.02 
freq.    1012.61  E(vib)   ...       0.02 
freq.    1014.90  E(vib)   ...       0.02 
freq.    1018.46  E(vib)   ...       0.02 
freq.    1027.69  E(vib)   ...       0.02 
freq.    1030.41  E(vib)   ...       0.02 
freq.    1031.35  E(vib)   ...       0.02 
freq.    1034.41  E(vib)   ...       0.02 
freq.    1042.28  E(vib)   ...       0.02 
freq.    1043.84  E(vib)   ...       0.02 
freq.    1052.31  E(vib)   ...       0.02 
freq.    1059.40  E(vib)   ...       0.02 
freq.    1069.11  E(vib)   ...       0.02 
freq.    1073.15  E(vib)   ...       0.02 
freq.    1075.27  E(vib)   ...       0.02 
freq.    1080.67  E(vib)   ...       0.02 
freq.    1080.87  E(vib)   ...       0.02 
freq.    1084.63  E(vib)   ...       0.02 
freq.    1103.87  E(vib)   ...       0.02 
freq.    1112.75  E(vib)   ...       0.01 
freq.    1114.84  E(vib)   ...       0.01 
freq.    1116.59  E(vib)   ...       0.01 
freq.    1116.95  E(vib)   ...       0.01 
freq.    1128.75  E(vib)   ...       0.01 
freq.    1130.96  E(vib)   ...       0.01 
freq.    1132.84  E(vib)   ...       0.01 
freq.    1138.38  E(vib)   ...       0.01 
freq.    1144.70  E(vib)   ...       0.01 
freq.    1155.15  E(vib)   ...       0.01 
freq.    1157.22  E(vib)   ...       0.01 
freq.    1160.11  E(vib)   ...       0.01 
freq.    1168.17  E(vib)   ...       0.01 
freq.    1175.71  E(vib)   ...       0.01 
freq.    1181.05  E(vib)   ...       0.01 
freq.    1185.59  E(vib)   ...       0.01 
freq.    1187.80  E(vib)   ...       0.01 
freq.    1196.67  E(vib)   ...       0.01 
freq.    1199.78  E(vib)   ...       0.01 
freq.    1206.69  E(vib)   ...       0.01 
freq.    1211.95  E(vib)   ...       0.01 
freq.    1216.48  E(vib)   ...       0.01 
freq.    1218.08  E(vib)   ...       0.01 
freq.    1219.03  E(vib)   ...       0.01 
freq.    1222.15  E(vib)   ...       0.01 
freq.    1228.19  E(vib)   ...       0.01 
freq.    1238.53  E(vib)   ...       0.01 
freq.    1243.74  E(vib)   ...       0.01 
freq.    1245.59  E(vib)   ...       0.01 
freq.    1246.74  E(vib)   ...       0.01 
freq.    1249.69  E(vib)   ...       0.01 
freq.    1258.02  E(vib)   ...       0.01 
freq.    1262.93  E(vib)   ...       0.01 
freq.    1270.92  E(vib)   ...       0.01 
freq.    1273.26  E(vib)   ...       0.01 
freq.    1277.27  E(vib)   ...       0.01 
freq.    1280.53  E(vib)   ...       0.01 
freq.    1282.47  E(vib)   ...       0.01 
freq.    1285.74  E(vib)   ...       0.01 
freq.    1288.22  E(vib)   ...       0.01 
freq.    1290.17  E(vib)   ...       0.01 
freq.    1294.66  E(vib)   ...       0.01 
freq.    1296.80  E(vib)   ...       0.01 
freq.    1297.03  E(vib)   ...       0.01 
freq.    1300.19  E(vib)   ...       0.01 
freq.    1302.48  E(vib)   ...       0.01 
freq.    1309.03  E(vib)   ...       0.01 
freq.    1310.42  E(vib)   ...       0.01 
freq.    1316.45  E(vib)   ...       0.01 
freq.    1316.84  E(vib)   ...       0.01 
freq.    1319.32  E(vib)   ...       0.01 
freq.    1322.10  E(vib)   ...       0.01 
freq.    1322.60  E(vib)   ...       0.01 
freq.    1328.29  E(vib)   ...       0.01 
freq.    1328.71  E(vib)   ...       0.01 
freq.    1335.79  E(vib)   ...       0.01 
freq.    1342.21  E(vib)   ...       0.01 
freq.    1345.44  E(vib)   ...       0.01 
freq.    1346.89  E(vib)   ...       0.01 
freq.    1349.10  E(vib)   ...       0.01 
freq.    1350.75  E(vib)   ...       0.01 
freq.    1351.83  E(vib)   ...       0.01 
freq.    1354.55  E(vib)   ...       0.01 
freq.    1354.77  E(vib)   ...       0.01 
freq.    1357.09  E(vib)   ...       0.01 
freq.    1361.52  E(vib)   ...       0.01 
freq.    1361.61  E(vib)   ...       0.01 
freq.    1362.40  E(vib)   ...       0.01 
freq.    1371.35  E(vib)   ...       0.01 
freq.    1375.72  E(vib)   ...       0.01 
freq.    1378.36  E(vib)   ...       0.01 
freq.    1430.50  E(vib)   ...       0.00 
freq.    1431.63  E(vib)   ...       0.00 
freq.    1433.22  E(vib)   ...       0.00 
freq.    1433.57  E(vib)   ...       0.00 
freq.    1435.29  E(vib)   ...       0.00 
freq.    1435.43  E(vib)   ...       0.00 
freq.    1436.09  E(vib)   ...       0.00 
freq.    1437.90  E(vib)   ...       0.00 
freq.    1438.90  E(vib)   ...       0.00 
freq.    1439.86  E(vib)   ...       0.00 
freq.    1440.25  E(vib)   ...       0.00 
freq.    1445.45  E(vib)   ...       0.00 
freq.    1447.74  E(vib)   ...       0.00 
freq.    1448.46  E(vib)   ...       0.00 
freq.    1449.69  E(vib)   ...       0.00 
freq.    1450.24  E(vib)   ...       0.00 
freq.    1450.49  E(vib)   ...       0.00 
freq.    1450.75  E(vib)   ...       0.00 
freq.    1451.09  E(vib)   ...       0.00 
freq.    1454.27  E(vib)   ...       0.00 
freq.    1455.39  E(vib)   ...       0.00 
freq.    1457.70  E(vib)   ...       0.00 
freq.    1459.46  E(vib)   ...       0.00 
freq.    1460.16  E(vib)   ...       0.00 
freq.    1462.24  E(vib)   ...       0.00 
freq.    1462.62  E(vib)   ...       0.00 
freq.    1469.15  E(vib)   ...       0.00 
freq.    1469.98  E(vib)   ...       0.00 
freq.    1479.60  E(vib)   ...       0.00 
freq.    1488.64  E(vib)   ...       0.00 
freq.    1496.37  E(vib)   ...       0.00 
freq.    1502.30  E(vib)   ...       0.00 
freq.    1515.20  E(vib)   ...       0.00 
freq.    1639.67  E(vib)   ...       0.00 
freq.    1663.30  E(vib)   ...       0.00 
freq.    1663.81  E(vib)   ...       0.00 
freq.    1675.89  E(vib)   ...       0.00 
freq.    1678.01  E(vib)   ...       0.00 
freq.    1692.53  E(vib)   ...       0.00 
freq.    1695.65  E(vib)   ...       0.00 
freq.    2895.30  E(vib)   ...       0.00 
freq.    2907.74  E(vib)   ...       0.00 
freq.    2923.51  E(vib)   ...       0.00 
freq.    2929.08  E(vib)   ...       0.00 
freq.    2930.15  E(vib)   ...       0.00 
freq.    2932.49  E(vib)   ...       0.00 
freq.    2934.66  E(vib)   ...       0.00 
freq.    2939.72  E(vib)   ...       0.00 
freq.    2940.81  E(vib)   ...       0.00 
freq.    2943.00  E(vib)   ...       0.00 
freq.    2945.68  E(vib)   ...       0.00 
freq.    2949.38  E(vib)   ...       0.00 
freq.    2949.80  E(vib)   ...       0.00 
freq.    2950.65  E(vib)   ...       0.00 
freq.    2957.37  E(vib)   ...       0.00 
freq.    2957.96  E(vib)   ...       0.00 
freq.    2959.77  E(vib)   ...       0.00 
freq.    2961.73  E(vib)   ...       0.00 
freq.    2962.21  E(vib)   ...       0.00 
freq.    2963.98  E(vib)   ...       0.00 
freq.    2965.78  E(vib)   ...       0.00 
freq.    2966.34  E(vib)   ...       0.00 
freq.    2972.96  E(vib)   ...       0.00 
freq.    2973.53  E(vib)   ...       0.00 
freq.    2973.94  E(vib)   ...       0.00 
freq.    2974.81  E(vib)   ...       0.00 
freq.    2975.19  E(vib)   ...       0.00 
freq.    2980.14  E(vib)   ...       0.00 
freq.    2981.88  E(vib)   ...       0.00 
freq.    2987.14  E(vib)   ...       0.00 
freq.    2987.40  E(vib)   ...       0.00 
freq.    2988.32  E(vib)   ...       0.00 
freq.    2993.69  E(vib)   ...       0.00 
freq.    2993.82  E(vib)   ...       0.00 
freq.    2999.35  E(vib)   ...       0.00 
freq.    3002.06  E(vib)   ...       0.00 
freq.    3005.69  E(vib)   ...       0.00 
freq.    3011.02  E(vib)   ...       0.00 
freq.    3011.41  E(vib)   ...       0.00 
freq.    3012.41  E(vib)   ...       0.00 
freq.    3014.56  E(vib)   ...       0.00 
freq.    3019.15  E(vib)   ...       0.00 
freq.    3021.57  E(vib)   ...       0.00 
freq.    3024.99  E(vib)   ...       0.00 
freq.    3027.85  E(vib)   ...       0.00 
freq.    3032.36  E(vib)   ...       0.00 
freq.    3032.84  E(vib)   ...       0.00 
freq.    3035.31  E(vib)   ...       0.00 
freq.    3035.77  E(vib)   ...       0.00 
freq.    3038.08  E(vib)   ...       0.00 
freq.    3038.43  E(vib)   ...       0.00 
freq.    3042.21  E(vib)   ...       0.00 
freq.    3050.92  E(vib)   ...       0.00 
freq.    3054.29  E(vib)   ...       0.00 
freq.    3056.54  E(vib)   ...       0.00 
freq.    3057.97  E(vib)   ...       0.00 
freq.    3076.13  E(vib)   ...       0.00 
freq.    3094.63  E(vib)   ...       0.00 
freq.    3328.92  E(vib)   ...       0.00 
freq.    3446.99  E(vib)   ...       0.00 
freq.    3455.97  E(vib)   ...       0.00 
freq.    3497.96  E(vib)   ...       0.00 
freq.    3523.88  E(vib)   ...       0.00 
freq.    3574.18  E(vib)   ...       0.00 

------------
INNER ENERGY
------------

The inner energy is: U= E(el) + E(ZPE) + E(vib) + E(rot) + E(trans)
    E(el)   - is the total energy from the electronic structure calculation
              = E(kin-el) + E(nuc-el) + E(el-el) + E(nuc-nuc)
    E(ZPE)  - the the zero temperature vibrational energy from the frequency calculation
    E(vib)  - the the finite temperature correction to E(ZPE) due to population
              of excited vibrational states
    E(rot)  - is the rotational thermal energy
    E(trans)- is the translational thermal energy

Summary of contributions to the inner energy U:
Electronic energy                ...  -2380.07796814 Eh
Zero point energy                ...      0.97774622 Eh     613.54 kcal/mol
Thermal vibrational correction   ...      0.05549170 Eh      34.82 kcal/mol
Thermal rotational correction    ...      0.00141627 Eh       0.89 kcal/mol
Thermal translational correction ...      0.00141627 Eh       0.89 kcal/mol
-----------------------------------------------------------------------
Total thermal energy                  -2379.04189768 Eh


Summary of corrections to the electronic energy:
(perhaps to be used in another calculation)
Total thermal correction                  0.05832424 Eh      36.60 kcal/mol
Non-thermal (ZPE) correction              0.97774622 Eh     613.54 kcal/mol
-----------------------------------------------------------------------
Total correction                          1.03607046 Eh     650.14 kcal/mol


--------
ENTHALPY
--------

The enthalpy is H = U + kB*T
                kB is Boltzmann's constant
Total free energy                 ...  -2379.04189768 Eh 
Thermal Enthalpy correction       ...      0.00094421 Eh       0.59 kcal/mol
-----------------------------------------------------------------------
Total Enthalpy                    ...  -2379.04095347 Eh


Note: Only C1 symmetry has been detected, increase convergence thresholds 
      if your molecule has a higher symmetry. Symmetry factor of 1.0 is   
      used for the rotational entropy correction. 
 

Note: Rotational entropy computed according to Herzberg 
Infrared and Raman Spectra, Chapter V,1, Van Nostrand Reinhold, 1945 
Point Group:  C1, Symmetry Number:   1  
Rotational constants in cm-1:     0.002259     0.001809     0.001576 

Vibrational entropy computed according to the QRRHO of S. Grimme
Chem.Eur.J. 2012 18 9955


-------
ENTROPY
-------

The entropy contributions are T*S = T*(S(el)+S(vib)+S(rot)+S(trans))
     S(el)   - electronic entropy
     S(vib)  - vibrational entropy
     S(rot)  - rotational entropy
     S(trans)- translational entropy
The entropies will be listed as mutliplied by the temperature to get
units of energy

Electronic entropy                ...      0.00000000 Eh      0.00 kcal/mol
Vibrational entropy               ...      0.10128129 Eh     63.55 kcal/mol
Rotational entropy                ...      0.01841461 Eh     11.56 kcal/mol
Translational entropy             ...      0.02166895 Eh     13.60 kcal/mol
-----------------------------------------------------------------------
Final entropy term                ...      0.14136485 Eh     88.71 kcal/mol

In case the symmetry of your molecule has not been determined correctly
or in case you have a reason to use a different symmetry number we print 
out the resulting rotational entropy values for sn=1,12 :
 --------------------------------------------------------
|  sn= 1 | S(rot)=       0.01841461 Eh     11.56 kcal/mol|
|  sn= 2 | S(rot)=       0.01776015 Eh     11.14 kcal/mol|
|  sn= 3 | S(rot)=       0.01737732 Eh     10.90 kcal/mol|
|  sn= 4 | S(rot)=       0.01710570 Eh     10.73 kcal/mol|
|  sn= 5 | S(rot)=       0.01689501 Eh     10.60 kcal/mol|
|  sn= 6 | S(rot)=       0.01672286 Eh     10.49 kcal/mol|
|  sn= 7 | S(rot)=       0.01657732 Eh     10.40 kcal/mol|
|  sn= 8 | S(rot)=       0.01645124 Eh     10.32 kcal/mol|
|  sn= 9 | S(rot)=       0.01634003 Eh     10.25 kcal/mol|
|  sn=10 | S(rot)=       0.01624055 Eh     10.19 kcal/mol|
|  sn=11 | S(rot)=       0.01615056 Eh     10.13 kcal/mol|
|  sn=12 | S(rot)=       0.01606841 Eh     10.08 kcal/mol|
 --------------------------------------------------------


-------------------
GIBBS FREE ENERGY
-------------------

The Gibbs free energy is G = H - T*S

Total enthalpy                    ...  -2379.04095347 Eh 
Total entropy correction          ...     -0.14136485 Eh    -88.71 kcal/mol
-----------------------------------------------------------------------
Final Gibbs free energy         ...  -2379.18231832 Eh

For completeness - the Gibbs free energy minus the electronic energy
G-E(el)                           ...      0.89564982 Eh    562.03 kcal/mol

--------------------------------------------------------------------------
WARNING: No preset parameters were found for the device that Open MPI
detected:

  Local host:            eu-g1-038-2
  Device name:           mlx5_0
  Device vendor ID:      0x02c9
  Device vendor part ID: 4123

Default device parameters will be used, which may result in lower
performance.  You can edit any of the files specified by the
btl_openib_device_param_files MCA parameter to set values for your
device.

NOTE: You can turn off this warning by setting the MCA parameter
      btl_openib_warn_no_device_params_found to 0.
--------------------------------------------------------------------------
--------------------------------------------------------------------------
WARNING: There was an error initializing an OpenFabrics device.

  Local host:   eu-g1-038-2
  Local device: mlx5_0
--------------------------------------------------------------------------

Timings for individual modules:

Sum of individual times         ...    28759.775 sec (= 479.330 min)
GTO integral calculation        ...       13.569 sec (=   0.226 min)   0.0 %
SCF iterations                  ...      380.009 sec (=   6.333 min)   1.3 %
SCF Gradient evaluation         ...       83.013 sec (=   1.384 min)   0.3 %
Geometry relaxation             ...        4.044 sec (=   0.067 min)   0.0 %
Analytical frequency calculation...    28279.140 sec (= 471.319 min)  98.3 %
                             ****ORCA TERMINATED NORMALLY****
TOTAL RUN TIME: 0 days 7 hours 59 minutes 37 seconds 383 msec
