
                                 *****************
                                 * O   R   C   A *
                                 *****************

           --- An Ab Initio, DFT and Semiempirical electronic structure package ---

                  #######################################################
                  #                        -***-                        #
                  #          Department of theory and spectroscopy      #
                  #               Directorship: Frank Neese             #
                  #        Max Planck Institute fuer Kohlenforschung    #
                  #                Kaiser Wilhelm Platz 1               #
                  #                 D-45470 Muelheim/Ruhr               #
                  #                      Germany                        #
                  #                                                     #
                  #                  All rights reserved                #
                  #                        -***-                        #
                  #######################################################


                         Program Version 4.2.0 -  RELEASE  -


 With contributions from (in alphabetic order):
   Daniel Aravena         : Magnetic Suceptibility
   Michael Atanasov       : Ab Initio Ligand Field Theory (pilot matlab implementation)
   Alexander A. Auer      : GIAO ZORA, VPT2
   Ute Becker             : Parallelization
   Giovanni Bistoni       : ED, misc. LED, open-shell LED, HFLED
   Martin Brehm           : Molecular dynamics
   Dmytro Bykov           : SCF Hessian
   Vijay G. Chilkuri      : MRCI spin determinant printing, contributions to CSF-ICE
   Dipayan Datta          : RHF DLPNO-CCSD density
   Achintya Kumar Dutta   : EOM-CC, STEOM-CC
   Dmitry Ganyushin       : Spin-Orbit,Spin-Spin,Magnetic field MRCI
   Miquel Garcia          : C-PCM Hessian, Gaussian charge scheme
   Yang Guo               : DLPNO-NEVPT2, CIM, IAO-localization
   Andreas Hansen         : Spin unrestricted coupled pair/coupled cluster methods
   Benjamin Helmich-Paris : CASSCF linear response (MC-RPA)
   Lee Huntington         : MR-EOM, pCC
   Robert Izsak           : Overlap fitted RIJCOSX, COSX-SCS-MP3, EOM
   Christian Kollmar      : KDIIS, OOCD, Brueckner-CCSD(T), CCSD density
   Simone Kossmann        : Meta GGA functionals, TD-DFT gradient, OOMP2, MP2 Hessian
   Martin Krupicka        : AUTO-CI
   Lucas Lang             : DCDCAS
   Dagmar Lenk            : GEPOL surface, SMD
   Dimitrios Liakos       : Extrapolation schemes; Compound Job, initial MDCI parallelization
   Dimitrios Manganas     : Further ROCIS development; embedding schemes
   Dimitrios Pantazis     : SARC Basis sets
   Taras Petrenko         : DFT Hessian,TD-DFT gradient, ASA, ECA, R-Raman, ABS, FL, XAS/XES, NRVS
   Peter Pinski           : DLPNO-MP2, DLPNO-MP2 Gradient
   Christoph Reimann      : Effective Core Potentials
   Marius Retegan         : Local ZFS, SOC
   Christoph Riplinger    : Optimizer, TS searches, QM/MM, DLPNO-CCSD(T), (RO)-DLPNO pert. Triples
   Tobias Risthaus        : Range-separated hybrids, TD-DFT gradient, RPA, STAB
   Michael Roemelt        : Original ROCIS implementation
   Masaaki Saitow         : Open-shell DLPNO-CCSD energy and density
   Barbara Sandhoefer     : DKH picture change effects
   Avijit Sen             : IP-ROCIS
   Kantharuban Sivalingam : CASSCF convergence, NEVPT2, FIC-MRCI
   Bernardo de Souza      : ESD, SOC TD-DFT
   Georgi Stoychev        : AutoAux, RI-MP2 NMR
   Willem Van den Heuvel  : Paramagnetic NMR
   Boris Wezisla          : Elementary symmetry handling
   Frank Wennmohs         : Technical directorship


 We gratefully acknowledge several colleagues who have allowed us to
 interface, adapt or use parts of their codes:
   Stefan Grimme, W. Hujo, H. Kruse,             : VdW corrections, initial TS optimization,
                  C. Bannwarth                     DFT functionals, gCP, sTDA/sTD-DF
   Ed Valeev, F. Pavosevic, A. Kumar             : LibInt (2-el integral package), F12 methods
   Garnet Chan, S. Sharma, J. Yang, R. Olivares  : DMRG
   Ulf Ekstrom                                   : XCFun DFT Library
   Mihaly Kallay                                 : mrcc  (arbitrary order and MRCC methods)
   Andreas Klamt, Michael Diedenhofen            : otool_cosmo (COSMO solvation model)
   Jiri Pittner, Ondrej Demel                    : Mk-CCSD
   Frank Weinhold                                : gennbo (NPA and NBO analysis)
   Christopher J. Cramer and Donald G. Truhlar   : smd solvation model
   Lars Goerigk                                  : TD-DFT with DH, B97 family of functionals
   V. Asgeirsson, H. Jonsson                     : NEB implementation
   FAccTs GmbH                                   : IRC, NEB, NEB-TS, Multilevel, MM, QM/MM, CI optimization
   S Lehtola, MJT Oliveira, MAL Marques          : LibXC Library


 Your calculation uses the libint2 library for the computation of 2-el integrals
 For citations please refer to: http://libint.valeyev.net

 Your ORCA version has been built with support for libXC version: 4.2.3
 For citations please refer to: https://tddft.org/programs/libxc/

 This ORCA versions uses:
   CBLAS   interface :  Fast vector & matrix operations
   LAPACKE interface :  Fast linear algebra routines
   SCALAPACK package :  Parallel linear algebra routines




***************************************
The coordinates will be read from file: 14.xyz
***************************************


Your calculation utilizes the atom-pairwise dispersion correction
with the Becke-Johnson damping scheme (D3BJ)
Cite in your paper:
S.Grimme, S.Ehrlich, L.Goerigk, J Comput Chem, (2011), 32, 1456–1465 
S.Grimme, J.Antony, S.Ehrlich and H.Krieg, J.Chem.Phys., 132, (2010), 154104 
   

----- Orbital basis set information -----
Your calculation utilizes the basis: def2-TZVP
   F. Weigend and R. Ahlrichs, Phys. Chem. Chem. Phys. 7, 3297 (2005).

----- AuxJ basis set information -----
Your calculation utilizes the auxiliary basis: def2/J
   F. Weigend, Phys. Chem. Chem. Phys. 8, 1057 (2006).

================================================================================
                                        WARNINGS
                       Please study these warnings very carefully!
================================================================================


WARNING: Geometry Optimization
  ===> : Switching off AutoStart
         For restart on a previous wavefunction, please use MOREAD

INFO   : the flag for use of LIBINT has been found!

================================================================================
                                       INPUT FILE
================================================================================
NAME = 14.inp
|  1> !RI BP86 def2-tzvp def2/J D3BJ TIGHTSCF TightOpt Grid5 FinalGrid6 freq
|  2> %maxcore 4000
|  3> %pal nprocs 24
|  4> end
|  5> * xyzfile 0 1 14.xyz 
|  6> 
|  7>                          ****END OF INPUT****
================================================================================

                       *****************************
                       * Geometry Optimization Run *
                       *****************************

Geometry optimization settings:
Update method            Update   .... BFGS
Choice of coordinates    CoordSys .... Z-matrix Internals
Initial Hessian          InHess   .... Almoef's Model

Convergence Tolerances:
Energy Change            TolE     ....  1.0000e-06 Eh
Max. Gradient            TolMAXG  ....  1.0000e-04 Eh/bohr
RMS Gradient             TolRMSG  ....  3.0000e-05 Eh/bohr
Max. Displacement        TolMAXD  ....  1.0000e-03 bohr
RMS Displacement         TolRMSD  ....  6.0000e-04 bohr
Strict Convergence                ....  False
------------------------------------------------------------------------------
                        ORCA OPTIMIZATION COORDINATE SETUP
------------------------------------------------------------------------------

The optimization will be done in new redundant internal coordinates
Making redundant internal coordinates   ...  (new redundants) done
Evaluating the initial hessian          ...  (Almloef) done
Evaluating the coordinates              ...  done
Calculating the B-matrix                .... done
Calculating the G-matrix                .... done
Diagonalizing the G-matrix              .... done
Small eigenvalue found = 4.005e-04
Small eigenvalue found = 6.048e-04
Small eigenvalue found = 2.082e-03
Small eigenvalue found = 4.267e-03
Small eigenvalue found = 5.233e-03
Small eigenvalue found = 5.648e-03
Small eigenvalue found = 6.324e-03
Small eigenvalue found = 8.491e-03
Small eigenvalue found = 9.079e-03
Small eigenvalue found = 9.722e-03
Small eigenvalue found = 1.100e-02
Small eigenvalue found = 1.190e-02
Small eigenvalue found = 1.399e-02
Small eigenvalue found = 1.675e-02
Small eigenvalue found = 1.980e-02
Small eigenvalue found = 2.297e-02
Small eigenvalue found = 2.642e-02
Small eigenvalue found = 2.741e-02
The first mode is                       ....  326
The number of degrees of freedom        ....  339

    -----------------------------------------------------------------
                    Redundant Internal Coordinates


    -----------------------------------------------------------------
         Definition                    Initial Value    Approx d2E/dq
    -----------------------------------------------------------------
      1. B(C   1,O   0)                  1.2278         1.015418   
      2. B(C   2,C   1)                  1.5317         0.371211   
      3. B(C   3,C   2)                  1.5465         0.351549   
      4. B(C   4,C   3)                  1.5343         0.367751   
      5. B(C   5,C   4)                  1.5288         0.375225   
      6. B(N   6,C   5)                  1.4740         0.411080   
      7. B(N   6,C   2)                  1.4721         0.413826   
      8. B(C   7,N   6)                  1.3599         0.625100   
      9. B(O   8,C   7)                  1.2412         0.966590   
     10. B(N   9,C   1)                  1.3671         0.608620   
     11. B(C  10,N   9)                  1.4491         0.450410   
     12. B(C  11,C  10)                  1.5482         0.349421   
     13. B(N  12,C  11)                  1.3459         0.658022   
     14. B(C  13,N  12)                  1.4748         0.409779   
     15. B(C  14,C  13)                  1.5455         0.352944   
     16. B(N  15,C  14)                  1.3663         0.610606   
     17. B(C  16,N  15)                  1.4625         0.428726   
     18. B(C  17,C  16)                  1.5321         0.370742   
     19. B(C  18,C  17)                  1.5370         0.364092   
     20. B(C  19,C  18)                  1.5322         0.370595   
     21. B(N  20,C  19)                  1.3708         0.600550   
     22. B(C  21,N  20)                  1.4529         0.444101   
     23. B(C  22,C  21)                  1.5444         0.354284   
     24. B(N  23,C  22)                  1.3745         0.592337   
     25. B(C  24,C   7)                  1.5386         0.361898   
     26. B(C  24,N  23)                  1.4700         0.417155   
     27. B(C  25,C  24)                  1.5223         0.384301   
     28. B(O  26,C  22)                  1.2279         1.015052   
     29. B(C  27,C  21)                  1.5435         0.355531   
     30. B(C  28,C  27)                  1.5413         0.358339   
     31. B(C  29,C  28)                  1.5352         0.366548   
     32. B(C  30,C  28)                  1.5324         0.370299   
     33. B(O  31,C  19)                  1.2291         1.010628   
     34. B(C  32,C  18)                  1.5476         0.350146   
     35. B(C  33,C  32)                  1.5088         0.403816   
     36. B(C  34,C  33)                  1.5235         0.382609   
     37. B(C  35,C  34)                  1.5300         0.373507   
     38. B(C  36,C  35)                  1.5301         0.373479   
     39. B(C  37,C  36)                  1.5302         0.373364   
     40. B(C  38,C  37)                  1.5303         0.373163   
     41. B(C  39,C  38)                  1.5302         0.373351   
     42. B(C  40,C  39)                  1.5310         0.372230   
     43. B(C  41,C  40)                  1.5298         0.373786   
     44. B(O  42,C  32)                  1.2185         1.050648   
     45. B(O  43,C  17)                  1.4422         0.461932   
     46. B(O  44,C  14)                  1.2322         0.999145   
     47. B(C  45,C  13)                  1.5337         0.368578   
     48. B(C  46,C  45)                  1.5293         0.374596   
     49. B(O  47,C  11)                  1.2515         0.930651   
     50. B(C  48,C  10)                  1.5513         0.345461   
     51. B(C  49,C  48)                  1.5338         0.368335   
     52. B(C  50,C  48)                  1.5346         0.367359   
     53. B(H  51,C   2)                  1.0994         0.347935   
     54. B(H  52,C   3)                  1.0952         0.353292   
     55. B(H  53,C   3)                  1.1006         0.346393   
     56. B(H  54,C   4)                  1.0971         0.350792   
     57. B(H  55,C   4)                  1.1002         0.346861   
     58. B(H  56,C   5)                  1.1004         0.346612   
     59. B(H  57,C   5)                  1.0948         0.353757   
     60. B(H  58,N   9)                  1.0188         0.419006   
     61. B(H  59,C  10)                  1.1056         0.340060   
     62. B(H  60,N  12)                  1.0265         0.407280   
     63. B(H  61,C  13)                  1.0978         0.349975   
     64. B(H  62,N  15)                  1.0225         0.413268   
     65. B(H  63,C  16)                  1.0958         0.352493   
     66. B(H  64,C  16)                  1.0966         0.351414   
     67. B(H  65,C  17)                  1.1069         0.338460   
     68. B(H  66,C  18)                  1.0992         0.348145   
     69. B(H  67,N  20)                  1.0259         0.408227   
     70. B(H  68,C  21)                  1.1001         0.346956   
     71. B(H  69,N  23)                  1.0200         0.417089   
     72. B(H  70,C  24)                  1.0994         0.347876   
     73. B(H  71,C  25)                  1.0978         0.349974   
     74. B(H  72,C  25)                  1.0981         0.349582   
     75. B(H  73,O  44)                  2.4181         0.002453   
     76. B(H  73,C  25)                  1.0989         0.348498   
     77. B(H  74,C  27)                  1.1038         0.342248   
     78. B(H  75,C  27)                  1.1019         0.344697   
     79. B(H  76,C  28)                  1.1037         0.342414   
     80. B(H  77,C  29)                  1.0999         0.347290   
     81. B(H  78,C  29)                  1.1019         0.344713   
     82. B(H  79,C  29)                  1.0993         0.348005   
     83. B(H  80,H  56)                  2.2244         0.001068   
     84. B(H  80,C  30)                  1.0958         0.352546   
     85. B(H  81,C  30)                  1.0997         0.347442   
     86. B(H  82,C  30)                  1.1032         0.343024   
     87. B(H  83,C  33)                  1.1054         0.340259   
     88. B(H  84,C  33)                  1.1051         0.340688   
     89. B(H  85,C  34)                  1.1012         0.345550   
     90. B(H  86,C  34)                  1.1014         0.345332   
     91. B(H  87,C  35)                  1.1045         0.341392   
     92. B(H  88,H  77)                  4.9123         0.000000   
     93. B(H  88,C  35)                  1.1048         0.340995   
     94. B(H  89,C  36)                  1.1041         0.341898   
     95. B(H  90,C  36)                  1.1040         0.341988   
     96. B(H  91,C  37)                  1.1044         0.341535   
     97. B(H  92,C  37)                  1.1045         0.341384   
     98. B(H  93,C  38)                  1.1044         0.341601   
     99. B(H  94,C  38)                  1.1043         0.341661   
    100. B(H  95,C  39)                  1.1046         0.341318   
    101. B(H  96,C  39)                  1.1046         0.341246   
    102. B(H  97,C  40)                  1.1034         0.342794   
    103. B(H  98,C  40)                  1.1034         0.342827   
    104. B(H  99,C  41)                  1.0994         0.347826   
    105. B(H 100,C  41)                  1.1008         0.346123   
    106. B(H 101,C  41)                  1.1007         0.346160   
    107. B(H 102,O  43)                  0.9895         0.466588   
    108. B(H 103,C  45)                  1.0991         0.348249   
    109. B(H 104,C  45)                  1.1011         0.345679   
    110. B(H 105,C  46)                  1.0982         0.349453   
    111. B(H 106,C  46)                  1.0993         0.348007   
    112. B(H 107,C  46)                  1.1000         0.347173   
    113. B(H 108,H 102)                  2.5402         0.000335   
    114. B(H 108,C  48)                  1.1054         0.340339   
    115. B(H 109,H  74)                  2.2413         0.001004   
    116. B(H 109,C  49)                  1.0978         0.349901   
    117. B(H 110,C  49)                  1.0988         0.348587   
    118. B(H 111,C  49)                  1.1007         0.346258   
    119. B(H 112,C  50)                  1.0940         0.354881   
    120. B(H 113,C  50)                  1.1015         0.345144   
    121. B(H 114,C  50)                  1.0993         0.347968   
    122. A(O   0,C   1,N   9)          123.7299         0.466918   
    123. A(C   2,C   1,N   9)          115.3821         0.392439   
    124. A(O   0,C   1,C   2)          120.8494         0.429711   
    125. A(C   1,C   2,H  51)          106.1025         0.322160   
    126. A(N   6,C   2,H  51)          110.1195         0.326000   
    127. A(C   1,C   2,N   6)          113.8125         0.367069   
    128. A(C   1,C   2,C   3)          111.0603         0.359215   
    129. A(C   3,C   2,H  51)          112.0856         0.319306   
    130. A(C   3,C   2,N   6)          103.8086         0.363665   
    131. A(C   4,C   3,H  53)          110.0558         0.321433   
    132. A(C   4,C   3,H  52)          114.0870         0.322473   
    133. A(C   2,C   3,C   4)          103.9293         0.358643   
    134. A(C   2,C   3,H  53)          109.5542         0.319074   
    135. A(C   2,C   3,H  52)          111.4960         0.320104   
    136. A(H  52,C   3,H  53)          107.6652         0.288212   
    137. A(H  54,C   4,H  55)          108.2060         0.287953   
    138. A(C   3,C   4,H  55)          110.5300         0.321504   
    139. A(C   3,C   4,C   5)          102.9001         0.362650   
    140. A(C   3,C   4,H  54)          113.0123         0.322098   
    141. A(C   5,C   4,H  55)          109.9324         0.322565   
    142. A(C   5,C   4,H  54)          112.2021         0.323162   
    143. A(H  56,C   5,H  57)          107.3871         0.288300   
    144. A(C   4,C   5,N   6)          102.4845         0.367328   
    145. A(C   4,C   5,H  56)          111.0836         0.322527   
    146. A(N   6,C   5,H  57)          111.2862         0.326534   
    147. A(N   6,C   5,H  56)          110.6287         0.325439   
    148. A(C   4,C   5,H  57)          113.9821         0.323608   
    149. A(C   5,N   6,C   7)          128.1466         0.398840   
    150. A(C   2,N   6,C   7)          119.9230         0.399307   
    151. A(C   2,N   6,C   5)          111.9294         0.371223   
    152. A(O   8,C   7,C  24)          121.7593         0.424000   
    153. A(N   6,C   7,O   8)          121.0739         0.464993   
    154. A(N   6,C   7,C  24)          116.7996         0.392529   
    155. A(C   1,N   9,C  10)          122.5658         0.403407   
    156. A(C  10,N   9,H  58)          118.7922         0.338032   
    157. A(C   1,N   9,H  58)          118.3394         0.355592   
    158. A(C  48,C  10,H  59)          108.5764         0.317212   
    159. A(C  11,C  10,H  59)          105.2878         0.317801   
    160. A(N   9,C  10,C  11)          111.1846         0.368598   
    161. A(N   9,C  10,C  48)          112.4193         0.367878   
    162. A(N   9,C  10,H  59)          104.7953         0.329340   
    163. A(C  11,C  10,C  48)          113.8730         0.354489   
    164. A(N  12,C  11,O  47)          123.3924         0.466138   
    165. A(C  10,C  11,O  47)          120.7758         0.418512   
    166. A(C  10,C  11,N  12)          115.7904         0.393647   
    167. A(C  13,N  12,H  60)          114.8767         0.331199   
    168. A(C  11,N  12,C  13)          126.1542         0.402235   
    169. A(C  11,N  12,H  60)          118.7971         0.358605   
    170. A(C  14,C  13,C  45)          115.8493         0.359022   
    171. A(N  12,C  13,H  61)          104.6983         0.325787   
    172. A(C  14,C  13,H  61)          104.1267         0.319818   
    173. A(N  12,C  13,C  14)          109.2735         0.363301   
    174. A(C  45,C  13,H  61)          109.1355         0.322093   
    175. A(N  12,C  13,C  45)          112.8137         0.366005   
    176. A(C  13,C  14,N  15)          115.7200         0.389214   
    177. A(N  15,C  14,O  44)          123.3270         0.465817   
    178. A(C  13,C  14,O  44)          120.8762         0.424612   
    179. A(C  14,N  15,H  62)          114.3522         0.354957   
    180. A(C  16,N  15,H  62)          116.5231         0.334499   
    181. A(C  14,N  15,C  16)          118.5146         0.400145   
    182. A(H  63,C  16,H  64)          108.9342         0.288759   
    183. A(C  17,C  16,H  64)          109.8456         0.322619   
    184. A(N  15,C  16,H  63)          110.0142         0.328610   
    185. A(C  17,C  16,H  63)          111.1915         0.322781   
    186. A(N  15,C  16,C  17)          108.0717         0.369225   
    187. A(N  15,C  16,H  64)          108.7474         0.328444   
    188. A(O  43,C  17,H  65)          109.5585         0.330460   
    189. A(C  18,C  17,H  65)          106.5564         0.319694   
    190. A(C  16,C  17,H  65)          105.4003         0.320642   
    191. A(C  16,C  17,C  18)          115.3835         0.361290   
    192. A(C  18,C  17,O  43)          107.7305         0.372831   
    193. A(C  16,C  17,O  43)          111.9696         0.373996   
    194. A(C  19,C  18,H  66)          105.2602         0.322104   
    195. A(C  17,C  18,H  66)          108.0432         0.321172   
    196. A(C  17,C  18,C  32)          110.2326         0.357790   
    197. A(C  17,C  18,C  19)          111.6324         0.361266   
    198. A(C  19,C  18,C  32)          115.4590         0.358869   
    199. A(C  32,C  18,H  66)          105.6645         0.319129   
    200. A(C  18,C  19,N  20)          114.6185         0.391410   
    201. A(N  20,C  19,O  31)          123.0321         0.465375   
    202. A(C  18,C  19,O  31)          122.3156         0.429219   
    203. A(C  19,N  20,H  67)          116.8490         0.353224   
    204. A(C  19,N  20,C  21)          122.6299         0.401460   
    205. A(C  21,N  20,H  67)          120.4404         0.335778   
    206. A(C  27,C  21,H  68)          110.0957         0.319747   
    207. A(C  22,C  21,H  68)          104.9380         0.319563   
    208. A(N  20,C  21,H  68)          108.1505         0.329665   
    209. A(N  20,C  21,C  22)          111.8042         0.368580   
    210. A(C  22,C  21,C  27)          113.7688         0.357058   
    211. A(N  20,C  21,C  27)          107.9432         0.368803   
    212. A(C  21,C  22,N  23)          114.8251         0.387413   
    213. A(C  21,C  22,O  26)          121.8915         0.426103   
    214. A(N  23,C  22,O  26)          123.2434         0.464575   
    215. A(C  22,N  23,C  24)          122.3974         0.396105   
    216. A(C  24,N  23,H  69)          116.3439         0.333492   
    217. A(C  22,N  23,H  69)          115.5932         0.353685   
    218. A(C  25,C  24,H  70)          110.9538         0.323987   
    219. A(N  23,C  24,H  70)          105.1430         0.326421   
    220. A(C   7,C  24,H  70)          110.7011         0.320814   
    221. A(N  23,C  24,C  25)          111.3773         0.369768   
    222. A(C   7,C  24,N  23)          106.4078         0.365977   
    223. A(C   7,C  24,C  25)          111.9596         0.363138   
    224. A(H  71,C  25,H  73)          109.3684         0.288060   
    225. A(C  24,C  25,H  73)          111.4085         0.324082   
    226. A(H  71,C  25,H  72)          108.7900         0.288200   
    227. A(C  24,C  25,H  72)          110.2260         0.324248   
    228. A(C  24,C  25,H  71)          109.4748         0.324307   
    229. A(H  72,C  25,H  73)          107.5165         0.288009   
    230. A(C  28,C  27,H  75)          107.7966         0.319816   
    231. A(C  21,C  27,C  28)          118.4748         0.357750   
    232. A(H  74,C  27,H  75)          105.9905         0.286565   
    233. A(C  21,C  27,H  75)          104.8956         0.319406   
    234. A(C  28,C  27,H  74)          109.4121         0.319444   
    235. A(C  21,C  27,H  74)          109.4872         0.319034   
    236. A(C  29,C  28,C  30)          110.0314         0.361631   
    237. A(C  27,C  28,C  30)          113.6028         0.360237   
    238. A(C  27,C  28,C  29)          108.9221         0.359612   
    239. A(C  30,C  28,H  76)          108.1681         0.321188   
    240. A(C  29,C  28,H  76)          108.2309         0.320654   
    241. A(C  27,C  28,H  76)          107.7295         0.319469   
    242. A(C  28,C  29,H  79)          111.0391         0.321505   
    243. A(H  78,C  29,H  79)          107.5545         0.287315   
    244. A(H  77,C  29,H  79)          108.0275         0.287649   
    245. A(H  77,C  29,H  78)          107.8262         0.287223   
    246. A(C  28,C  29,H  78)          110.6313         0.321005   
    247. A(C  28,C  29,H  77)          111.6013         0.321397   
    248. A(H  81,C  30,H  82)          107.2915         0.287022   
    249. A(H  80,C  30,H  82)          109.1127         0.287677   
    250. A(C  28,C  30,H  82)          110.2191         0.321282   
    251. A(H  80,C  30,H  81)          108.0553         0.288253   
    252. A(C  28,C  30,H  81)          110.5372         0.321956   
    253. A(C  28,C  30,H  80)          111.5027         0.322726   
    254. A(C  33,C  32,O  42)          123.2020         0.438956   
    255. A(C  18,C  32,O  42)          118.8433         0.427841   
    256. A(C  18,C  32,C  33)          117.9512         0.364164   
    257. A(C  32,C  33,C  34)          114.6088         0.369742   
    258. A(C  34,C  33,H  84)          111.1741         0.322646   
    259. A(H  83,C  33,H  84)          104.7629         0.285783   
    260. A(C  32,C  33,H  84)          106.6478         0.325516   
    261. A(C  34,C  33,H  83)          111.4968         0.322579   
    262. A(C  32,C  33,H  83)          107.5552         0.325449   
    263. A(C  33,C  34,C  35)          112.4661         0.364828   
    264. A(H  85,C  34,H  86)          105.6913         0.287078   
    265. A(C  35,C  34,H  86)          110.0098         0.322089   
    266. A(C  33,C  34,H  86)          109.2546         0.323363   
    267. A(C  35,C  34,H  85)          110.0516         0.322123   
    268. A(C  33,C  34,H  85)          109.1373         0.323397   
    269. A(C  34,C  35,C  36)          113.2492         0.363324   
    270. A(H  87,C  35,H  88)          105.9018         0.285971   
    271. A(C  36,C  35,H  88)          109.2317         0.321420   
    272. A(C  34,C  35,H  88)          109.4293         0.321424   
    273. A(C  36,C  35,H  87)          109.2572         0.321481   
    274. A(C  34,C  35,H  87)          109.5082         0.321485   
    275. A(C  35,C  36,C  37)          113.4870         0.363301   
    276. A(H  89,C  36,H  90)          105.8950         0.286167   
    277. A(C  37,C  36,H  90)          109.3430         0.321556   
    278. A(C  35,C  36,H  90)          109.2185         0.321573   
    279. A(C  37,C  36,H  89)          109.3613         0.321543   
    280. A(C  35,C  36,H  89)          109.2565         0.321559   
    281. A(C  36,C  37,C  38)          113.5140         0.363248   
    282. A(H  91,C  37,H  92)          105.9023         0.286041   
    283. A(C  38,C  37,H  92)          109.2758         0.321435   
    284. A(C  36,C  37,H  92)          109.3028         0.321463   
    285. A(C  38,C  37,H  91)          109.2739         0.321458   
    286. A(C  36,C  37,H  91)          109.2913         0.321487   
    287. A(C  37,C  38,C  39)          113.5509         0.363246   
    288. A(H  93,C  38,H  94)          105.8830         0.286086   
    289. A(C  39,C  38,H  94)          109.2909         0.321504   
    290. A(C  37,C  38,H  94)          109.2537         0.321478   
    291. A(C  39,C  38,H  93)          109.2994         0.321495   
    292. A(C  37,C  38,H  93)          109.2782         0.321469   
    293. A(C  38,C  39,C  40)          113.5914         0.363090   
    294. A(H  95,C  39,H  96)          105.8614         0.285995   
    295. A(C  40,C  39,H  96)          109.2354         0.321282   
    296. A(C  38,C  39,H  96)          109.3209         0.321440   
    297. A(C  40,C  39,H  95)          109.2318         0.321293   
    298. A(C  38,C  39,H  95)          109.3108         0.321451   
    299. A(C  39,C  40,C  41)          113.1388         0.363163   
    300. A(H  97,C  40,H  98)          105.9311         0.286394   
    301. A(C  41,C  40,H  98)          109.6341         0.321745   
    302. A(C  39,C  40,H  98)          109.1168         0.321525   
    303. A(C  41,C  40,H  97)          109.6369         0.321740   
    304. A(C  39,C  40,H  97)          109.1275         0.321520   
    305. A(H 100,C  41,H 101)          107.4418         0.287259   
    306. A(H  99,C  41,H 101)          107.6852         0.287480   
    307. A(C  40,C  41,H 101)          111.0882         0.322255   
    308. A(H  99,C  41,H 100)          107.6862         0.287475   
    309. A(C  40,C  41,H 100)          111.0918         0.322250   
    310. A(C  40,C  41,H  99)          111.6553         0.322509   
    311. A(C  17,O  43,H 102)          109.4483         0.345632   
    312. A(C  13,C  45,C  46)          111.7569         0.362686   
    313. A(C  46,C  45,H 104)          110.3907         0.322296   
    314. A(C  13,C  45,H 104)          107.3179         0.321443   
    315. A(C  46,C  45,H 103)          110.6091         0.322687   
    316. A(C  13,C  45,H 103)          110.3250         0.321833   
    317. A(H 103,C  45,H 104)          106.2447         0.287472   
    318. A(H 106,C  46,H 107)          107.7652         0.287634   
    319. A(H 105,C  46,H 107)          107.8614         0.287821   
    320. A(C  45,C  46,H 107)          111.2519         0.322524   
    321. A(H 105,C  46,H 106)          107.7626         0.287929   
    322. A(C  45,C  46,H 106)          111.3240         0.322651   
    323. A(C  45,C  46,H 105)          110.7182         0.322870   
    324. A(C  50,C  48,H 108)          108.4426         0.320451   
    325. A(C  49,C  48,H 108)          108.7939         0.320590   
    326. A(C  10,C  48,H 108)          107.9742         0.317254   
    327. A(C  49,C  48,C  50)          109.2805         0.361439   
    328. A(C  10,C  48,C  50)          111.6036         0.357514   
    329. A(C  10,C  48,C  49)          110.6708         0.357676   
    330. A(H 110,C  49,H 111)          107.8821         0.287591   
    331. A(H 109,C  49,H 111)          107.5423         0.287760   
    332. A(C  48,C  49,H 111)          110.5674         0.321496   
    333. A(H 109,C  49,H 110)          107.8051         0.288062   
    334. A(C  48,C  49,H 110)          109.8251         0.321849   
    335. A(C  48,C  49,H 109)          113.0401         0.322047   
    336. A(H 113,C  50,H 114)          107.6491         0.287366   
    337. A(H 112,C  50,H 114)          108.7802         0.288619   
    338. A(C  48,C  50,H 114)          110.0416         0.321615   
    339. A(H 112,C  50,H 113)          108.4875         0.288251   
    340. A(C  48,C  50,H 113)          109.9477         0.321187   
    341. A(C  48,C  50,H 112)          111.8254         0.322654   
    342. D(H  51,C   2,C   1,N   9)   -138.7346         0.010314   
    343. D(C   3,C   2,C   1,N   9)     99.2248         0.010314   
    344. D(N   6,C   2,C   1,N   9)    -17.4869         0.010314   
    345. D(N   6,C   2,C   1,O   0)    164.6930         0.010314   
    346. D(C   3,C   2,C   1,O   0)    -78.5954         0.010314   
    347. D(H  51,C   2,C   1,O   0)     43.4452         0.010314   
    348. D(C   4,C   3,C   2,N   6)    -23.0544         0.009950   
    349. D(H  53,C   3,C   2,H  51)   -146.6548         0.009950   
    350. D(H  53,C   3,C   2,C   1)    -28.1656         0.009950   
    351. D(C   4,C   3,C   2,H  51)     95.7616         0.009950   
    352. D(H  53,C   3,C   2,N   6)     94.5293         0.009950   
    353. D(H  52,C   3,C   2,H  51)    -27.5780         0.009950   
    354. D(C   4,C   3,C   2,C   1)   -145.7493         0.009950   
    355. D(H  52,C   3,C   2,C   1)     90.9112         0.009950   
    356. D(H  52,C   3,C   2,N   6)   -146.3939         0.009950   
    357. D(H  55,C   4,C   3,H  53)    162.5676         0.010819   
    358. D(H  55,C   4,C   3,H  52)     41.4322         0.010819   
    359. D(H  54,C   4,C   3,H  52)    -80.0022         0.010819   
    360. D(H  55,C   4,C   3,C   2)    -80.1972         0.010819   
    361. D(H  54,C   4,C   3,H  53)     41.1331         0.010819   
    362. D(C   5,C   4,C   3,C   2)     37.1399         0.010819   
    363. D(H  54,C   4,C   3,C   2)    158.3684         0.010819   
    364. D(C   5,C   4,C   3,H  53)    -80.0953         0.010819   
    365. D(C   5,C   4,C   3,H  52)    158.7693         0.010819   
    366. D(N   6,C   5,C   4,C   3)    -36.5537         0.011237   
    367. D(H  57,C   5,C   4,C   3)   -156.9146         0.011237   
    368. D(H  56,C   5,C   4,H  55)   -160.6241         0.011237   
    369. D(H  56,C   5,C   4,C   3)     81.6166         0.011237   
    370. D(H  57,C   5,C   4,H  54)     81.3064         0.011237   
    371. D(H  56,C   5,C   4,H  54)    -40.1624         0.011237   
    372. D(H  57,C   5,C   4,H  55)    -39.1553         0.011237   
    373. D(N   6,C   5,C   4,H  54)   -158.3327         0.011237   
    374. D(N   6,C   5,C   4,H  55)     81.2056         0.011237   
    375. D(C   5,N   6,C   2,C   3)     -0.1259         0.014606   
    376. D(C   7,N   6,C   5,H  57)    -34.2326         0.014415   
    377. D(C   7,N   6,C   5,H  56)     85.0648         0.014415   
    378. D(C   7,N   6,C   5,C   4)   -156.4435         0.014415   
    379. D(C   2,N   6,C   5,H  57)    145.4087         0.014415   
    380. D(C   2,N   6,C   5,H  56)    -95.2939         0.014415   
    381. D(C   7,N   6,C   2,H  51)     59.3909         0.014606   
    382. D(C   2,N   6,C   5,C   4)     23.1978         0.014415   
    383. D(C   7,N   6,C   2,C   3)    179.5487         0.014606   
    384. D(C   5,N   6,C   2,C   1)    120.7344         0.014606   
    385. D(C   7,N   6,C   2,C   1)    -59.5911         0.014606   
    386. D(C   5,N   6,C   2,H  51)   -120.2836         0.014606   
    387. D(C  24,C   7,N   6,C   5)    -12.5513         0.031682   
    388. D(C  24,C   7,N   6,C   2)    167.8326         0.031682   
    389. D(O   8,C   7,N   6,C   5)    174.2863         0.031682   
    390. D(O   8,C   7,N   6,C   2)     -5.3298         0.031682   
    391. D(H  58,N   9,C   1,O   0)   -178.0118         0.029910   
    392. D(C  10,N   9,C   1,C   2)    177.8388         0.029910   
    393. D(H  58,N   9,C   1,C   2)      4.2385         0.029910   
    394. D(C  10,N   9,C   1,O   0)     -4.4114         0.029910   
    395. D(H  59,C  10,N   9,C   1)     12.0172         0.017307   
    396. D(C  48,C  10,N   9,H  58)    -56.6740         0.017307   
    397. D(C  48,C  10,N   9,C   1)    129.7534         0.017307   
    398. D(C  11,C  10,N   9,C   1)   -101.2388         0.017307   
    399. D(H  59,C  10,N   9,H  58)   -174.4102         0.017307   
    400. D(C  11,C  10,N   9,H  58)     72.3338         0.017307   
    401. D(O  47,C  11,C  10,N   9)   -157.5601         0.009228   
    402. D(N  12,C  11,C  10,H  59)    -88.2452         0.009228   
    403. D(N  12,C  11,C  10,C  48)    152.9304         0.009228   
    404. D(N  12,C  11,C  10,N   9)     24.7005         0.009228   
    405. D(O  47,C  11,C  10,H  59)     89.4942         0.009228   
    406. D(O  47,C  11,C  10,C  48)    -29.3302         0.009228   
    407. D(H  60,N  12,C  11,O  47)    169.3650         0.035413   
    408. D(H  60,N  12,C  11,C  10)    -12.9613         0.035413   
    409. D(C  13,N  12,C  11,O  47)     -5.6088         0.035413   
    410. D(C  13,N  12,C  11,C  10)    172.0649         0.035413   
    411. D(H  61,C  13,N  12,C  11)   -177.6121         0.014325   
    412. D(H  61,C  13,N  12,H  60)      7.2426         0.014325   
    413. D(C  45,C  13,N  12,H  60)    125.7972         0.014325   
    414. D(C  45,C  13,N  12,C  11)    -59.0575         0.014325   
    415. D(C  14,C  13,N  12,C  11)     71.3472         0.014325   
    416. D(C  14,C  13,N  12,H  60)   -103.7981         0.014325   
    417. D(O  44,C  14,C  13,C  45)   -136.0061         0.009398   
    418. D(O  44,C  14,C  13,N  12)     95.2502         0.009398   
    419. D(N  15,C  14,C  13,H  61)    166.9141         0.009398   
    420. D(N  15,C  14,C  13,C  45)     47.0767         0.009398   
    421. D(O  44,C  14,C  13,H  61)    -16.1686         0.009398   
    422. D(N  15,C  14,C  13,N  12)    -81.6670         0.009398   
    423. D(H  62,N  15,C  14,O  44)   -164.9681         0.030120   
    424. D(H  62,N  15,C  14,C  13)     11.8652         0.030120   
    425. D(C  16,N  15,C  14,O  44)    -21.4795         0.030120   
    426. D(C  16,N  15,C  14,C  13)    155.3538         0.030120   
    427. D(H  64,C  16,N  15,H  62)   -165.0995         0.015671   
    428. D(H  64,C  16,N  15,C  14)     52.1873         0.015671   
    429. D(H  63,C  16,N  15,H  62)    -45.8695         0.015671   
    430. D(H  63,C  16,N  15,C  14)    171.4172         0.015671   
    431. D(C  17,C  16,N  15,C  14)    -67.0127         0.015671   
    432. D(C  17,C  16,N  15,H  62)     75.7005         0.015671   
    433. D(H  65,C  17,C  16,H  64)    -69.6272         0.010985   
    434. D(H  65,C  17,C  16,H  63)    169.7143         0.010985   
    435. D(H  65,C  17,C  16,N  15)     48.8749         0.010985   
    436. D(O  43,C  17,C  16,H  64)    171.3244         0.010985   
    437. D(O  43,C  17,C  16,H  63)     50.6659         0.010985   
    438. D(O  43,C  17,C  16,N  15)    -70.1735         0.010985   
    439. D(C  18,C  17,C  16,H  64)     47.6214         0.010985   
    440. D(C  18,C  17,C  16,H  63)    -73.0371         0.010985   
    441. D(C  18,C  17,C  16,N  15)    166.1235         0.010985   
    442. D(H  66,C  18,C  17,H  65)     74.6393         0.010619   
    443. D(H  66,C  18,C  17,O  43)   -167.8628         0.010619   
    444. D(H  66,C  18,C  17,C  16)    -41.9574         0.010619   
    445. D(C  32,C  18,C  17,O  43)    -52.8572         0.010619   
    446. D(C  32,C  18,C  17,C  16)     73.0481         0.010619   
    447. D(C  32,C  18,C  17,H  65)   -170.3551         0.010619   
    448. D(C  19,C  18,C  17,H  65)    -40.6366         0.010619   
    449. D(C  19,C  18,C  17,O  43)     76.8613         0.010619   
    450. D(C  19,C  18,C  17,C  16)   -157.2334         0.010619   
    451. D(O  31,C  19,C  18,H  66)     26.4536         0.010282   
    452. D(O  31,C  19,C  18,C  32)    -89.6415         0.010282   
    453. D(O  31,C  19,C  18,C  17)    143.4271         0.010282   
    454. D(N  20,C  19,C  18,H  66)   -151.4912         0.010282   
    455. D(N  20,C  19,C  18,C  17)    -34.5178         0.010282   
    456. D(N  20,C  19,C  18,C  32)     92.4137         0.010282   
    457. D(H  67,N  20,C  19,O  31)    174.4688         0.029065   
    458. D(H  67,N  20,C  19,C  18)     -7.6029         0.029065   
    459. D(C  21,N  20,C  19,O  31)     -2.2745         0.029065   
    460. D(C  21,N  20,C  19,C  18)    175.6537         0.029065   
    461. D(H  68,C  21,N  20,H  67)   -144.4365         0.016820   
    462. D(H  68,C  21,N  20,C  19)     32.1933         0.016820   
    463. D(C  27,C  21,N  20,H  67)    -25.3437         0.016820   
    464. D(C  27,C  21,N  20,C  19)    151.2860         0.016820   
    465. D(C  22,C  21,N  20,H  67)    100.5190         0.016820   
    466. D(C  22,C  21,N  20,C  19)    -82.8513         0.016820   
    467. D(N  23,C  22,C  21,C  27)     97.6015         0.009464   
    468. D(N  23,C  22,C  21,N  20)    -24.9972         0.009464   
    469. D(O  26,C  22,C  21,H  68)     40.2337         0.009464   
    470. D(O  26,C  22,C  21,C  27)    -80.1681         0.009464   
    471. D(O  26,C  22,C  21,N  20)    157.2332         0.009464   
    472. D(N  23,C  22,C  21,H  68)   -141.9967         0.009464   
    473. D(H  69,N  23,C  22,O  26)   -164.1911         0.028221   
    474. D(H  69,N  23,C  22,C  21)     18.0732         0.028221   
    475. D(C  24,N  23,C  22,O  26)    -11.7329         0.028221   
    476. D(C  24,N  23,C  22,C  21)    170.5314         0.028221   
    477. D(H  70,C  24,N  23,H  69)    159.5783         0.014840   
    478. D(H  70,C  24,N  23,C  22)      7.3115         0.014840   
    479. D(C  25,C  24,N  23,H  69)     39.3276         0.014840   
    480. D(C  25,C  24,N  23,C  22)   -112.9392         0.014840   
    481. D(C   7,C  24,N  23,H  69)    -82.9414         0.014840   
    482. D(C   7,C  24,N  23,C  22)    124.7919         0.014840   
    483. D(H  70,C  24,C   7,O   8)   -145.6794         0.009840   
    484. D(H  70,C  24,C   7,N   6)     41.2086         0.009840   
    485. D(C  25,C  24,C   7,O   8)    -21.3068         0.009840   
    486. D(C  25,C  24,C   7,N   6)    165.5812         0.009840   
    487. D(N  23,C  24,C   7,O   8)    100.5931         0.009840   
    488. D(N  23,C  24,C   7,N   6)    -72.5189         0.009840   
    489. D(H  73,C  25,C  24,H  70)   -177.9786         0.011757   
    490. D(H  73,C  25,C  24,N  23)    -61.2162         0.011757   
    491. D(H  73,C  25,C  24,C   7)     57.7899         0.011757   
    492. D(H  72,C  25,C  24,H  70)     62.7474         0.011757   
    493. D(H  72,C  25,C  24,N  23)    179.5098         0.011757   
    494. D(H  72,C  25,C  24,C   7)    -61.4842         0.011757   
    495. D(H  71,C  25,C  24,H  70)    -56.8821         0.011757   
    496. D(H  71,C  25,C  24,N  23)     59.8803         0.011757   
    497. D(H  71,C  25,C  24,C   7)    178.8863         0.011757   
    498. D(H  75,C  27,C  21,H  68)     75.2212         0.010159   
    499. D(H  75,C  27,C  21,C  22)   -167.3238         0.010159   
    500. D(H  75,C  27,C  21,N  20)    -42.6277         0.010159   
    501. D(H  74,C  27,C  21,H  68)   -171.4188         0.010159   
    502. D(H  74,C  27,C  21,C  22)    -53.9639         0.010159   
    503. D(H  74,C  27,C  21,N  20)     70.7323         0.010159   
    504. D(C  28,C  27,C  21,H  68)    -45.0480         0.010159   
    505. D(C  28,C  27,C  21,C  22)     72.4069         0.010159   
    506. D(C  28,C  27,C  21,N  20)   -162.8970         0.010159   
    507. D(H  76,C  28,C  27,H  75)    -81.8690         0.010309   
    508. D(H  76,C  28,C  27,H  74)    163.3040         0.010309   
    509. D(H  76,C  28,C  27,C  21)     36.8973         0.010309   
    510. D(C  30,C  28,C  27,H  75)    158.3335         0.010309   
    511. D(C  30,C  28,C  27,H  74)     43.5066         0.010309   
    512. D(C  30,C  28,C  27,C  21)    -82.9002         0.010309   
    513. D(C  29,C  28,C  27,H  75)     35.3123         0.010309   
    514. D(C  29,C  28,C  27,H  74)    -79.5147         0.010309   
    515. D(C  29,C  28,C  27,C  21)    154.0786         0.010309   
    516. D(H  79,C  29,C  28,C  30)     55.2745         0.010753   
    517. D(H  79,C  29,C  28,C  27)   -179.5904         0.010753   
    518. D(H  78,C  29,C  28,H  76)    177.9234         0.010753   
    519. D(H  78,C  29,C  28,C  30)    -64.0740         0.010753   
    520. D(H  78,C  29,C  28,C  27)     61.0611         0.010753   
    521. D(H  77,C  29,C  28,H  76)     57.8642         0.010753   
    522. D(H  77,C  29,C  28,C  30)    175.8668         0.010753   
    523. D(H  79,C  29,C  28,H  76)    -62.7281         0.010753   
    524. D(H  77,C  29,C  28,C  27)    -58.9981         0.010753   
    525. D(H  82,C  30,C  28,H  76)   -177.3614         0.010960   
    526. D(H  82,C  30,C  28,C  29)     64.5972         0.010960   
    527. D(H  82,C  30,C  28,C  27)    -57.8133         0.010960   
    528. D(H  81,C  30,C  28,H  76)     64.1993         0.010960   
    529. D(H  81,C  30,C  28,C  29)    -53.8421         0.010960   
    530. D(H  81,C  30,C  28,C  27)   -176.2526         0.010960   
    531. D(H  80,C  30,C  28,H  76)    -56.0204         0.010960   
    532. D(H  80,C  30,C  28,C  29)   -174.0618         0.010960   
    533. D(H  80,C  30,C  28,C  27)     63.5277         0.010960   
    534. D(O  42,C  32,C  18,H  66)     46.9291         0.009263   
    535. D(O  42,C  32,C  18,C  19)    162.7947         0.009263   
    536. D(O  42,C  32,C  18,C  17)    -69.5705         0.009263   
    537. D(C  33,C  32,C  18,H  66)   -133.7340         0.009263   
    538. D(C  33,C  32,C  18,C  19)    -17.8683         0.009263   
    539. D(C  33,C  32,C  18,C  17)    109.7664         0.009263   
    540. D(H  84,C  33,C  32,O  42)    122.4147         0.012092   
    541. D(H  84,C  33,C  32,C  18)    -56.8912         0.012092   
    542. D(H  83,C  33,C  32,O  42)   -125.6502         0.012092   
    543. D(H  83,C  33,C  32,C  18)     55.0440         0.012092   
    544. D(C  34,C  33,C  32,O  42)     -1.0640         0.012092   
    545. D(C  34,C  33,C  32,C  18)    179.6301         0.012092   
    546. D(H  86,C  34,C  33,H  84)   -179.7042         0.011659   
    547. D(H  86,C  34,C  33,H  83)     63.7921         0.011659   
    548. D(H  86,C  34,C  33,C  32)    -58.6841         0.011659   
    549. D(H  85,C  34,C  33,H  84)    -64.5883         0.011659   
    550. D(H  85,C  34,C  33,H  83)    178.9079         0.011659   
    551. D(H  85,C  34,C  33,C  32)     56.4317         0.011659   
    552. D(C  35,C  34,C  33,H  84)     57.8387         0.011659   
    553. D(C  35,C  34,C  33,H  83)    -58.6650         0.011659   
    554. D(C  35,C  34,C  33,C  32)    178.8588         0.011659   
    555. D(H  88,C  35,C  34,H  86)    179.9276         0.011140   
    556. D(H  88,C  35,C  34,H  85)     63.8672         0.011140   
    557. D(H  88,C  35,C  34,C  33)    -58.0424         0.011140   
    558. D(H  87,C  35,C  34,H  86)    -64.4020         0.011140   
    559. D(H  87,C  35,C  34,H  85)    179.5376         0.011140   
    560. D(H  87,C  35,C  34,C  33)     57.6280         0.011140   
    561. D(C  36,C  35,C  34,H  86)     57.8081         0.011140   
    562. D(C  36,C  35,C  34,H  85)    -58.2523         0.011140   
    563. D(C  36,C  35,C  34,C  33)    179.8381         0.011140   
    564. D(H  90,C  36,C  35,H  87)     64.4684         0.011138   
    565. D(H  90,C  36,C  35,C  34)    -57.8815         0.011138   
    566. D(H  89,C  36,C  35,H  88)    -64.7065         0.011138   
    567. D(H  89,C  36,C  35,H  87)    179.8730         0.011138   
    568. D(H  89,C  36,C  35,C  34)     57.5232         0.011138   
    569. D(C  37,C  36,C  35,H  88)     57.6169         0.011138   
    570. D(C  37,C  36,C  35,H  87)    -57.8035         0.011138   
    571. D(H  90,C  36,C  35,H  88)    179.8888         0.011138   
    572. D(C  37,C  36,C  35,C  34)    179.8466         0.011138   
    573. D(H  92,C  37,C  36,H  90)    179.8898         0.011132   
    574. D(H  92,C  37,C  36,H  89)     64.3580         0.011132   
    575. D(H  92,C  37,C  36,C  35)    -57.9073         0.011132   
    576. D(H  91,C  37,C  36,H  90)    -64.6308         0.011132   
    577. D(H  91,C  37,C  36,H  89)    179.8373         0.011132   
    578. D(H  91,C  37,C  36,C  35)     57.5720         0.011132   
    579. D(C  38,C  37,C  36,H  90)     57.6240         0.011132   
    580. D(C  38,C  37,C  36,H  89)    -57.9078         0.011132   
    581. D(C  38,C  37,C  36,C  35)    179.8269         0.011132   
    582. D(H  94,C  38,C  37,H  92)    179.9877         0.011121   
    583. D(H  94,C  38,C  37,H  91)     64.5330         0.011121   
    584. D(H  94,C  38,C  37,C  36)    -57.7315         0.011121   
    585. D(H  93,C  38,C  37,H  92)    -64.5905         0.011121   
    586. D(H  93,C  38,C  37,H  91)    179.9548         0.011121   
    587. D(H  93,C  38,C  37,C  36)     57.6903         0.011121   
    588. D(C  39,C  38,C  37,H  92)     57.7131         0.011121   
    589. D(C  39,C  38,C  37,H  91)    -57.7416         0.011121   
    590. D(C  39,C  38,C  37,C  36)    179.9939         0.011121   
    591. D(H  95,C  39,C  38,H  94)    -64.6026         0.011131   
    592. D(H  95,C  39,C  38,H  93)    179.9433         0.011131   
    593. D(H  95,C  39,C  38,C  37)     57.6514         0.011131   
    594. D(C  40,C  39,C  38,H  94)     57.6657         0.011131   
    595. D(C  40,C  39,C  38,H  93)    -57.7884         0.011131   
    596. D(C  40,C  39,C  38,C  37)    179.9197         0.011131   
    597. D(H  96,C  39,C  38,H  94)    179.9461         0.011131   
    598. D(H  96,C  39,C  38,H  93)     64.4921         0.011131   
    599. D(H  96,C  39,C  38,C  37)    -57.7999         0.011131   
    600. D(H  98,C  40,C  39,H  95)     64.6512         0.011068   
    601. D(H  98,C  40,C  39,C  38)    -57.6608         0.011068   
    602. D(H  97,C  40,C  39,H  96)    -64.6676         0.011068   
    603. D(H  97,C  40,C  39,H  95)    179.9721         0.011068   
    604. D(H  97,C  40,C  39,C  38)     57.6601         0.011068   
    605. D(C  41,C  40,C  39,H  96)     57.6776         0.011068   
    606. D(C  41,C  40,C  39,H  95)    -57.6826         0.011068   
    607. D(H  98,C  40,C  39,H  96)   -179.9885         0.011068   
    608. D(C  41,C  40,C  39,C  38)   -179.9946         0.011068   
    609. D(H 101,C  41,C  40,H  98)    -62.2849         0.011156   
    610. D(H 101,C  41,C  40,H  97)   -178.1793         0.011156   
    611. D(H 101,C  41,C  40,C  39)     59.7600         0.011156   
    612. D(H 100,C  41,C  40,H  98)    178.1732         0.011156   
    613. D(H 100,C  41,C  40,H  97)     62.2788         0.011156   
    614. D(H 100,C  41,C  40,C  39)    -59.7819         0.011156   
    615. D(H  99,C  41,C  40,H  98)     57.9423         0.011156   
    616. D(H  99,C  41,C  40,H  97)    -57.9520         0.011156   
    617. D(H  99,C  41,C  40,C  39)    179.9872         0.011156   
    618. D(H 102,O  43,C  17,H  65)    -61.7001         0.016812   
    619. D(H 102,O  43,C  17,C  18)   -177.2361         0.016812   
    620. D(H 102,O  43,C  17,C  16)     54.8646         0.016812   
    621. D(H 104,C  45,C  13,H  61)     62.7408         0.010865   
    622. D(H 104,C  45,C  13,C  14)    179.8164         0.010865   
    623. D(H 104,C  45,C  13,N  12)    -53.1920         0.010865   
    624. D(H 103,C  45,C  13,H  61)    178.0798         0.010865   
    625. D(H 103,C  45,C  13,C  14)    -64.8445         0.010865   
    626. D(H 103,C  45,C  13,N  12)     62.1471         0.010865   
    627. D(C  46,C  45,C  13,H  61)    -58.4172         0.010865   
    628. D(C  46,C  45,C  13,C  14)     58.6584         0.010865   
    629. D(C  46,C  45,C  13,N  12)   -174.3500         0.010865   
    630. D(H 107,C  46,C  45,H 104)    -61.4059         0.011201   
    631. D(H 107,C  46,C  45,H 103)   -178.7046         0.011201   
    632. D(H 107,C  46,C  45,C  13)     57.9531         0.011201   
    633. D(H 106,C  46,C  45,H 104)    178.3782         0.011201   
    634. D(H 106,C  46,C  45,H 103)     61.0795         0.011201   
    635. D(H 106,C  46,C  45,C  13)    -62.2628         0.011201   
    636. D(H 105,C  46,C  45,H 104)     58.5246         0.011201   
    637. D(H 105,C  46,C  45,H 103)    -58.7741         0.011201   
    638. D(H 105,C  46,C  45,C  13)    177.8837         0.011201   
    639. D(H 108,C  48,C  10,H  59)   -164.7711         0.009636   
    640. D(H 108,C  48,C  10,C  11)    -47.8396         0.009636   
    641. D(H 108,C  48,C  10,N   9)     79.7560         0.009636   
    642. D(C  50,C  48,C  10,H  59)    -45.6809         0.009636   
    643. D(C  50,C  48,C  10,C  11)     71.2506         0.009636   
    644. D(C  50,C  48,C  10,N   9)   -161.1537         0.009636   
    645. D(C  49,C  48,C  10,H  59)     76.2558         0.009636   
    646. D(C  49,C  48,C  10,C  11)   -166.8127         0.009636   
    647. D(C  49,C  48,C  10,N   9)    -39.2170         0.009636   
    648. D(H 111,C  49,C  48,C  50)     64.7653         0.010852   
    649. D(H 111,C  49,C  48,C  10)    -58.5248         0.010852   
    650. D(H 110,C  49,C  48,H 108)     64.0586         0.010852   
    651. D(H 110,C  49,C  48,C  50)    -54.1753         0.010852   
    652. D(H 110,C  49,C  48,C  10)   -177.4654         0.010852   
    653. D(H 109,C  49,C  48,H 108)    -56.3756         0.010852   
    654. D(H 109,C  49,C  48,C  50)   -174.6095         0.010852   
    655. D(H 111,C  49,C  48,H 108)   -177.0008         0.010852   
    656. D(H 109,C  49,C  48,C  10)     62.1004         0.010852   
    657. D(H 114,C  50,C  48,H 108)    -59.8469         0.010798   
    658. D(H 114,C  50,C  48,C  49)     58.6063         0.010798   
    659. D(H 114,C  50,C  48,C  10)   -178.6586         0.010798   
    660. D(H 113,C  50,C  48,H 108)   -178.2535         0.010798   
    661. D(H 113,C  50,C  48,C  49)    -59.8003         0.010798   
    662. D(H 113,C  50,C  48,C  10)     62.9348         0.010798   
    663. D(H 112,C  50,C  48,H 108)     61.1669         0.010798   
    664. D(H 112,C  50,C  48,C  49)    179.6202         0.010798   
    665. D(H 112,C  50,C  48,C  10)    -57.6448         0.010798   
    -----------------------------------------------------------------

Number of atoms                         .... 115
Number of degrees of freedom            .... 665

         *************************************************************
         *                GEOMETRY OPTIMIZATION CYCLE   1            *
         *************************************************************
---------------------------------
CARTESIAN COORDINATES (ANGSTROEM)
---------------------------------
  O      2.002568    3.759078   -4.341293
  C      1.901805    2.564026   -4.078223
  C      2.425258    1.499587   -5.047325
  C      1.440570    1.283374   -6.220113
  C      1.564114   -0.213155   -6.534987
  C      1.735530   -0.840069   -5.151215
  N      2.555739    0.161801   -4.446897
  C      3.370046   -0.023576   -3.373686
  O      4.085625    0.896034   -2.946025
  N      1.289764    2.083091   -2.954310
  C      0.778639    2.950960   -1.912482
  C      1.747310    3.007396   -0.706083
  N      3.036360    2.730710   -0.976696
  C      4.171337    2.875981   -0.046202
  C      4.084685    1.779285    1.039252
  N      3.235606    2.038665    2.077730
  C      2.678520    0.910095    2.822674
  C      1.739496    0.140769    1.888001
  C      1.319649   -1.254215    2.378015
  C      0.880077   -2.152113    1.216924
  N      0.236743   -1.496128    0.199659
  C     -0.172234   -2.160701   -1.025932
  C      0.989021   -2.260837   -2.039208
  N      1.966488   -1.305592   -1.892995
  C      3.239092   -1.362242   -2.626526
  C      4.411131   -1.606408   -1.686267
  O      1.002809   -3.107410   -2.928519
  C     -1.414161   -1.425898   -1.573654
  C     -2.287366   -2.140721   -2.623536
  C     -3.716667   -1.586307   -2.543103
  C     -1.754500   -2.012803   -4.054597
  O      1.123683   -3.356500    1.189029
  C      0.308370   -1.130345    3.542975
  C     -1.123775   -1.526646    3.281411
  C     -2.051075   -1.383118    4.481641
  C     -3.494625   -1.771003    4.154903
  C     -4.441152   -1.637175    5.349595
  C     -5.887220   -2.020232    5.027840
  C     -6.833618   -1.890623    6.223394
  C     -8.279983   -2.273344    5.902530
  C     -9.227245   -2.145875    7.098503
  C    -10.670069   -2.531048    6.766340
  O      0.698467   -0.709044    4.617742
  O      0.538263    0.884460    1.598288
  O      4.706707    0.722178    0.921187
  C      4.340503    4.311715    0.465832
  C      5.602099    4.465244    1.316380
  O      1.337115    3.336067    0.429724
  C     -0.685537    2.613448   -1.526743
  C     -1.504995    2.255470   -2.772946
  C     -1.360466    3.781130   -0.794699
  H      3.406246    1.856815   -5.391757
  H      1.673752    1.938840   -7.065952
  H      0.417022    1.516237   -5.889407
  H      0.691434   -0.613162   -7.066133
  H      2.457474   -0.406109   -7.147449
  H      0.763698   -0.966588   -4.650818
  H      2.226927   -1.818355   -5.163661
  H      1.279803    1.075751   -2.802533
  H      0.802087    3.964795   -2.352834
  H      3.272234    2.311061   -1.883300
  H      5.053605    2.598532   -0.637565
  H      2.614391    2.836399    1.925271
  H      2.145768    1.272201    3.709161
  H      3.500709    0.258881    3.142921
  H      2.314512   -0.012600    0.954729
  H      2.205241   -1.745955    2.804792
  H      0.004259   -0.509669    0.358481
  H     -0.426586   -3.202894   -0.782199
  H      1.984215   -0.827606   -0.992090
  H      3.124645   -2.193926   -3.336375
  H      4.266759   -2.559642   -1.161303
  H      5.349807   -1.653951   -2.254053
  H      4.510423   -0.796422   -0.950279
  H     -1.116081   -0.434880   -1.957708
  H     -2.041856   -1.232348   -0.688939
  H     -2.317553   -3.212588   -2.362075
  H     -4.151741   -1.731780   -1.543483
  H     -3.727071   -0.506354   -2.761616
  H     -4.372816   -2.078952   -3.274697
  H     -0.776850   -2.495493   -4.163798
  H     -2.447810   -2.481921   -4.767815
  H     -1.665658   -0.949448   -4.334752
  H     -1.117933   -2.562551    2.895616
  H     -1.472321   -0.911749    2.431924
  H     -2.012338   -0.344504    4.845622
  H     -1.672365   -2.003167    5.309408
  H     -3.522048   -2.810704    3.783098
  H     -3.865095   -1.142844    3.324940
  H     -4.412005   -0.598409    5.722683
  H     -4.071845   -2.266514    6.178128
  H     -5.914682   -3.058370    4.652028
  H     -6.256657   -1.388903    4.200239
  H     -6.805598   -0.852756    6.599758
  H     -6.464047   -2.522120    7.050513
  H     -8.308104   -3.311062    5.525104
  H     -8.650495   -1.641265    5.075836
  H     -9.197441   -1.108906    7.474419
  H     -8.855278   -2.777730    7.923032
  H    -11.328384   -2.430949    7.641194
  H    -11.076562   -1.892505    5.967132
  H    -10.731698   -3.573748    6.419032
  H      0.780146    1.773571    1.237673
  H      3.451535    4.622064    1.032806
  H      4.389322    4.970325   -0.415262
  H      5.726446    5.506473    1.642504
  H      5.556796    3.835162    2.216047
  H      6.501277    4.179073    0.751154
  H     -0.667192    1.739973   -0.849592
  H     -1.128894    1.364961   -3.293286
  H     -2.549186    2.063242   -2.489797
  H     -1.497807    3.088099   -3.492773
  H     -0.811929    4.067022    0.107605
  H     -1.420104    4.657367   -1.459574
  H     -2.386840    3.506221   -0.512729

----------------------------
CARTESIAN COORDINATES (A.U.)
----------------------------
  NO LB      ZA    FRAG     MASS         X           Y           Z
   0 O     8.0000    0    15.999    3.784305    7.103628   -8.203855
   1 C     6.0000    0    12.011    3.593890    4.845306   -7.706725
   2 C     6.0000    0    12.011    4.583074    2.833809   -9.538062
   3 C     6.0000    0    12.011    2.722282    2.425225  -11.754311
   4 C     6.0000    0    12.011    2.955747   -0.402804  -12.349336
   5 C     6.0000    0    12.011    3.279676   -1.587500   -9.734386
   6 N     7.0000    0    14.007    4.829648    0.305759   -8.403417
   7 C     6.0000    0    12.011    6.368464   -0.044552   -6.375344
   8 O     8.0000    0    15.999    7.720712    1.693259   -5.567180
   9 N     7.0000    0    14.007    2.437300    3.936472   -5.582837
  10 C     6.0000    0    12.011    1.471415    5.576506   -3.614068
  11 C     6.0000    0    12.011    3.301937    5.683154   -1.334303
  12 N     7.0000    0    14.007    5.737888    5.160293   -1.845687
  13 C     6.0000    0    12.011    7.882685    5.434816   -0.087310
  14 C     6.0000    0    12.011    7.718935    3.362362    1.963901
  15 N     7.0000    0    14.007    6.114408    3.852518    3.926340
  16 C     6.0000    0    12.011    5.061670    1.719831    5.334081
  17 C     6.0000    0    12.011    3.287171    0.266015    3.567805
  18 C     6.0000    0    12.011    2.493774   -2.370123    4.493796
  19 C     6.0000    0    12.011    1.663105   -4.066903    2.299652
  20 N     7.0000    0    14.007    0.447380   -2.827272    0.377301
  21 C     6.0000    0    12.011   -0.325476   -4.083133   -1.938730
  22 C     6.0000    0    12.011    1.868979   -4.272363   -3.853545
  23 N     7.0000    0    14.007    3.716124   -2.467212   -3.577243
  24 C     6.0000    0    12.011    6.120996   -2.574265   -4.963414
  25 C     6.0000    0    12.011    8.335829   -3.035671   -3.186582
  26 O     8.0000    0    15.999    1.895034   -5.872154   -5.534098
  27 C     6.0000    0    12.011   -2.672377   -2.694556   -2.973774
  28 C     6.0000    0    12.011   -4.322496   -4.045376   -4.957765
  29 C     6.0000    0    12.011   -7.023482   -2.997686   -4.805768
  30 C     6.0000    0    12.011   -3.315525   -3.803646   -7.662077
  31 O     8.0000    0    15.999    2.123453   -6.342866    2.246939
  32 C     6.0000    0    12.011    0.582735   -2.136043    6.695252
  33 C     6.0000    0    12.011   -2.123627   -2.884944    6.200968
  34 C     6.0000    0    12.011   -3.875970   -2.613714    8.469074
  35 C     6.0000    0    12.011   -6.603885   -3.346710    7.851628
  36 C     6.0000    0    12.011   -8.392562   -3.093812   10.109269
  37 C     6.0000    0    12.011  -11.125233   -3.817686    9.501241
  38 C     6.0000    0    12.011  -12.913666   -3.572760   11.760511
  39 C     6.0000    0    12.011  -15.646900   -4.295998   11.154166
  40 C     6.0000    0    12.011  -17.436967   -4.055117   13.414227
  41 C     6.0000    0    12.011  -20.163508   -4.782987   12.786530
  42 O     8.0000    0    15.999    1.319912   -1.339898    8.726268
  43 O     8.0000    0    15.999    1.017169    1.671387    3.020327
  44 O     8.0000    0    15.999    8.894387    1.364718    1.740791
  45 C     6.0000    0    12.011    8.202362    8.147960    0.880294
  46 C     6.0000    0    12.011   10.586433    8.438088    2.487597
  47 O     8.0000    0    15.999    2.526782    6.304252    0.812061
  48 C     6.0000    0    12.011   -1.295478    4.938700   -2.885126
  49 C     6.0000    0    12.011   -2.844028    4.262220   -5.240108
  50 C     6.0000    0    12.011   -2.570908    7.145300   -1.501763
  51 H     1.0000    0     1.008    6.436872    3.508872  -10.188943
  52 H     1.0000    0     1.008    3.162933    3.663877  -13.352714
  53 H     1.0000    0     1.008    0.788058    2.865274  -11.129367
  54 H     1.0000    0     1.008    1.306621   -1.158708  -13.353056
  55 H     1.0000    0     1.008    4.643952   -0.767435  -13.506721
  56 H     1.0000    0     1.008    1.443180   -1.826587   -8.788773
  57 H     1.0000    0     1.008    4.208282   -3.436193   -9.757906
  58 H     1.0000    0     1.008    2.418477    2.032874   -5.296019
  59 H     1.0000    0     1.008    1.515725    7.492377   -4.446212
  60 H     1.0000    0     1.008    6.183626    4.367272   -3.558922
  61 H     1.0000    0     1.008    9.549930    4.910515   -1.204824
  62 H     1.0000    0     1.008    4.940483    5.360018    3.638235
  63 H     1.0000    0     1.008    4.054913    2.404111    7.009298
  64 H     1.0000    0     1.008    6.615382    0.489214    5.939261
  65 H     1.0000    0     1.008    4.373794   -0.023810    1.804176
  66 H     1.0000    0     1.008    4.167301   -3.299377    5.300288
  67 H     1.0000    0     1.008    0.008048   -0.963134    0.677431
  68 H     1.0000    0     1.008   -0.806131   -6.052593   -1.478143
  69 H     1.0000    0     1.008    3.749622   -1.563948   -1.874779
  70 H     1.0000    0     1.008    5.904724   -4.145920   -6.304835
  71 H     1.0000    0     1.008    8.063005   -4.837023   -2.194546
  72 H     1.0000    0     1.008   10.109671   -3.125514   -4.259543
  73 H     1.0000    0     1.008    8.523464   -1.505019   -1.795767
  74 H     1.0000    0     1.008   -2.109088   -0.821805   -3.699532
  75 H     1.0000    0     1.008   -3.858549   -2.328800   -1.301906
  76 H     1.0000    0     1.008   -4.379541   -6.070912   -4.463675
  77 H     1.0000    0     1.008   -7.845653   -3.272590   -2.916760
  78 H     1.0000    0     1.008   -7.043143   -0.956870   -5.218697
  79 H     1.0000    0     1.008   -8.263425   -3.928650   -6.188281
  80 H     1.0000    0     1.008   -1.468034   -4.715798   -7.868438
  81 H     1.0000    0     1.008   -4.625691   -4.690150   -9.009864
  82 H     1.0000    0     1.008   -3.147637   -1.794196   -8.191495
  83 H     1.0000    0     1.008   -2.112588   -4.842520    5.471922
  84 H     1.0000    0     1.008   -2.782283   -1.722955    4.595670
  85 H     1.0000    0     1.008   -3.802768   -0.651018    9.156898
  86 H     1.0000    0     1.008   -3.160313   -3.785437   10.033328
  87 H     1.0000    0     1.008   -6.655706   -5.311461    7.149018
  88 H     1.0000    0     1.008   -7.303972   -2.159662    6.283226
  89 H     1.0000    0     1.008   -8.337481   -1.130829   10.814304
  90 H     1.0000    0     1.008   -7.694672   -4.283090   11.674969
  91 H     1.0000    0     1.008  -11.177129   -5.779481    8.791059
  92 H     1.0000    0     1.008  -11.823368   -2.624647    7.937301
  93 H     1.0000    0     1.008  -12.860717   -1.611476   12.471735
  94 H     1.0000    0     1.008  -12.215278   -4.766117   13.323538
  95 H     1.0000    0     1.008  -15.700041   -6.257001   10.440933
  96 H     1.0000    0     1.008  -16.347066   -3.101540    9.591940
  97 H     1.0000    0     1.008  -17.380645   -2.095528   14.124605
  98 H     1.0000    0     1.008  -16.734050   -5.249150   14.972361
  99 H     1.0000    0     1.008  -21.407543   -4.593829   14.439764
 100 H     1.0000    0     1.008  -20.931668   -3.576317   11.276244
 101 H     1.0000    0     1.008  -20.279969   -6.753405   12.130213
 102 H     1.0000    0     1.008    1.474262    3.351564    2.338863
 103 H     1.0000    0     1.008    6.522455    8.734436    1.951720
 104 H     1.0000    0     1.008    8.294616    9.392554   -0.784732
 105 H     1.0000    0     1.008   10.821415   10.405725    3.103882
 106 H     1.0000    0     1.008   10.500822    7.247406    4.187722
 107 H     1.0000    0     1.008   12.285633    7.897304    1.419476
 108 H     1.0000    0     1.008   -1.260810    3.288072   -1.605496
 109 H     1.0000    0     1.008   -2.133301    2.579402   -6.223408
 110 H     1.0000    0     1.008   -4.817264    3.898963   -4.705034
 111 H     1.0000    0     1.008   -2.830446    5.835661   -6.600385
 112 H     1.0000    0     1.008   -1.534324    7.685557    0.203343
 113 H     1.0000    0     1.008   -2.683608    8.801147   -2.758195
 114 H     1.0000    0     1.008   -4.510474    6.625798   -0.968917

--------------------------------
INTERNAL COORDINATES (ANGSTROEM)
--------------------------------
 O      0   0   0     0.000000000000     0.00000000     0.00000000
 C      1   0   0     1.227806372816     0.00000000     0.00000000
 C      2   1   0     1.531728044029   120.84936921     0.00000000
 C      3   2   1     1.546542036098   111.06030753   281.40462130
 C      4   3   2     1.534277253499   103.92931054   214.25072045
 C      5   4   3     1.528799928407   102.90006810    37.13990920
 N      3   2   1     1.472145632421   113.81252295   164.69295649
 C      7   3   2     1.359867576995   119.92304711   300.40890852
 O      8   7   3     1.241221428939   121.07394021   354.67016562
 N      2   1   3     1.367140369279   123.72987938   182.36815535
 C     10   2   1     1.449085945753   122.56580985   355.58858165
 C     11  10   2     1.548194751156   111.18455576   258.76120229
 N     12  11  10     1.345896142886   115.79043802    24.70051126
 C     13  12  11     1.474820528205   126.15419049   172.06492480
 C     14  13  12     1.545464264314   109.27349914    71.34723098
 N     15  14  13     1.366253786799   115.72003571   278.33296071
 C     16  15  14     1.462516839980   118.51456771   155.35378597
 C     17  16  15     1.532071638345   108.07171253   292.98725573
 C     18  17  16     1.536999001431   115.38354215   166.12348757
 C     19  18  17     1.532179845910   111.63237925   202.76661179
 N     20  19  18     1.370774173729   114.61853067   325.48223926
 C     21  20  19     1.452925552477   122.62991227   175.65372959
 C     22  21  20     1.544432359750   111.80421672   277.14869556
 N     23  22  21     1.374522634671   114.82507315   335.00280137
 C     24  23  22     1.469964579326   122.39743682   170.53144598
 C     25  24  23     1.522293925727   111.37725491   247.06081590
 O     23  22  21     1.227904554715   121.89154867   157.23324454
 C     22  21  20     1.543475577713   107.94320775   151.28599922
 C     28  22  21     1.541334601756   118.47478811   197.10303929
 C     29  28  22     1.535168980678   108.92208968   154.07857981
 C     29  28  22     1.532397704522   113.60280360   277.09983777
 O     20  19  18     1.229093557183   122.31562240   143.42705809
 C     19  18  17     1.547630430904   110.23257196    73.04814983
 C     33  19  18     1.508810797806   117.95115826   109.76644426
 C     34  33  19     1.523495301803   114.60876225   179.63011567
 C     35  34  33     1.530049376007   112.46610862   178.85876361
 C     36  35  34     1.530069422456   113.24920922   179.83809943
 C     37  36  35     1.530153339748   113.48700575   179.84662413
 C     38  37  36     1.530299860992   113.51400485   179.82685816
 C     39  38  37     1.530163393139   113.55092929   179.99393283
 C     40  39  38     1.530981856498   113.59144426   179.91967176
 C     41  40  39     1.529845970326   113.13880398   180.00535012
 O     33  19  18     1.218522218840   118.84332650   290.42950981
 O     18  17  16     1.442210013227   111.96963851   289.82650528
 O     15  14  13     1.232204254527   120.87617469    95.25023254
 C     14  13  12     1.533665168395   112.81372951   300.94248829
 C     46  14  13     1.529257184174   111.75685379   185.65004308
 O     12  11  10     1.251535508765   120.77582985   202.43993699
 C     11  10   2     1.551297336024   112.41934565   129.75340298
 C     49  11  10     1.533845034637   110.67084634   320.78295131
 C     49  11  10     1.534567633188   111.60360861   198.84625979
 H      3   2   1     1.099355144684   106.10246746    43.44520159
 H      4   3   2     1.095195616118   111.49597245    90.91118233
 H      4   3   2     1.100564054474   109.55417833   331.83435940
 H      5   4   3     1.097128962189   113.01234183   158.36839047
 H      5   4   3     1.100196337081   110.52999496   279.80281235
 H      6   5   4     1.100391680982   111.08356359    81.61658154
 H      6   5   4     1.094837799543   113.98205796   203.08539680
 H     10   2   1     1.018759178187   118.33936215   181.98823276
 H     11  10   2     1.105586490579   104.79532443    12.01718908
 H     13  12  11     1.026485919490   118.79714170   347.03873575
 H     14  13  12     1.097763409995   104.69833786   182.38788621
 H     16  15  14     1.022512733480   114.35224833    11.86524916
 H     17  16  15     1.095812179369   110.01424094   171.41723737
 H     17  16  15     1.096646322790   108.74743430    52.18728349
 H     18  17  16     1.106870723912   105.40031636    48.87487173
 H     19  18  17     1.099190883562   108.04324219   318.04256505
 H     21  20  19     1.025853165111   116.84901784   352.39707617
 H     22  21  20     1.100121630709   108.15047359    32.19327790
 H     24  23  22     1.020007227641   115.59324497    18.07322245
 H     25  24  23     1.099400837252   105.14296911     7.31151993
 H     26  25  24     1.097764026787   109.47481784    59.88029828
 H     26  25  24     1.098069264324   110.22602659   179.50976030
 H     26  25  24     1.098914873781   111.40848427   298.78380667
 H     28  22  21     1.103840980408   109.48716066    70.73227578
 H     28  22  21     1.101899577007   104.89563408   317.37230886
 H     29  28  22     1.103708973237   107.72951938    36.89725280
 H     30  29  28     1.099859849227   111.60125780   301.00190594
 H     30  29  28     1.101887246990   110.63134224    61.06110913
 H     30  29  28     1.099300395507   111.03912313   180.40958216
 H     31  29  28     1.095770883394   111.50265108    63.52770013
 H     31  29  28     1.099741060961   110.53717452   183.74737822
 H     31  29  28     1.103224410809   110.21912911   302.18665573
 H     34  33  19     1.105427742992   107.55519853    55.04396879
 H     34  33  19     1.105084565904   106.64776309   303.10881903
 H     35  34  33     1.101227108182   109.13732249    56.43171502
 H     35  34  33     1.101399233203   109.25457349   301.31589911
 H     36  35  34     1.104522753802   109.50820583    57.62804473
 H     36  35  34     1.104838949911   109.42929237   301.95762560
 H     37  36  35     1.104119156236   109.25649041    57.52321085
 H     37  36  35     1.104048103671   109.21848733   302.11851723
 H     38  37  36     1.104408431432   109.29125851    57.57201670
 H     38  37  36     1.104529233504   109.30278615   302.09269174
 H     39  38  37     1.104355989288   109.27824486    57.69026688
 H     39  38  37     1.104307991002   109.25371029   302.26851267
 H     40  39  38     1.104581665851   109.31078119    57.65136149
 H     40  39  38     1.104638919593   109.32085131   302.20014587
 H     41  40  39     1.103406991394   109.12750816    57.66007876
 H     41  40  39     1.103380475603   109.11675545   302.33922955
 H     42  41  40     1.099439886839   111.65525150   179.98719940
 H     42  41  40     1.100775840339   111.09181630   300.21809490
 H     42  41  40     1.100747428635   111.08819856    59.75998554
 H     44  18  17     0.989479756936   109.44830108    54.86463293
 H     46  14  13     1.099109213036   110.32497340    62.14712268
 H     46  14  13     1.101125327665   107.31792434   306.80804239
 H     47  46  14     1.098169890834   110.71819255   177.88365788
 H     47  46  14     1.099298230589   111.32397012   297.73722555
 H     47  46  14     1.099952012118   111.25191230    57.95312752
 H     49  11  10     1.105363376025   107.97418934    79.75603641
 H     50  49  11     1.097821088619   113.04013682    62.10035586
 H     50  49  11     1.098844946404   109.82507685   182.53463907
 H     50  49  11     1.100669770077   110.56736487   301.47515419
 H     51  49  11     1.093973718308   111.82537400   302.35521106
 H     51  49  11     1.101547402286   109.94768794    62.93479443
 H     51  49  11     1.099329327934   110.04162977   181.34139026

---------------------------
INTERNAL COORDINATES (A.U.)
---------------------------
 O      0   0   0     0.000000000000     0.00000000     0.00000000
 C      1   0   0     2.320217790106     0.00000000     0.00000000
 C      2   1   0     2.894546514862   120.84936921     0.00000000
 C      3   2   1     2.922540902822   111.06030753   281.40462130
 C      4   3   2     2.899363822618   103.92931054   214.25072045
 C      5   4   3     2.889013178248   102.90006810    37.13990920
 N      3   2   1     2.781952074524   113.81252295   164.69295649
 C      7   3   2     2.569777298919   119.92304711   300.40890852
 O      8   7   3     2.345568572249   121.07394021   354.67016562
 N      2   1   3     2.583520884566   123.72987938   182.36815535
 C     10   2   1     2.738375581987   122.56580985   355.58858165
 C     11  10   2     2.925664081660   111.18455576   258.76120229
 N     12  11  10     2.543375114756   115.79043802    24.70051126
 C     13  12  11     2.787006894993   126.15419049   172.06492480
 C     14  13  12     2.920504209315   109.27349914    71.34723098
 N     15  14  13     2.581845486482   115.72003571   278.33296071
 C     16  15  14     2.763756293811   118.51456771   155.35378597
 C     17  16  15     2.895195814020   108.07171253   292.98725573
 C     18  17  16     2.904507180816   115.38354215   166.12348757
 C     19  18  17     2.895400296684   111.63237925   202.76661179
 N     20  19  18     2.590387779800   114.61853067   325.48223926
 C     21  20  19     2.745631387158   122.62991227   175.65372959
 C     22  21  20     2.918554192293   111.80421672   277.14869556
 N     23  22  21     2.597471344404   114.82507315   335.00280137
 C     24  23  22     2.777830481491   122.39743682   170.53144598
 C     25  24  23     2.876718614956   111.37725491   247.06081590
 O     23  22  21     2.320403327006   121.89154867   157.23324454
 C     22  21  20     2.916746136273   107.94320775   151.28599922
 C     28  22  21     2.912700278055   118.47478811   197.10303929
 C     29  28  22     2.901048942772   108.92208968   154.07857981
 C     29  28  22     2.895811989797   113.60280360   277.09983777
 O     20  19  18     2.322650216044   122.31562240   143.42705809
 C     19  18  17     2.924597670930   110.23257196    73.04814983
 C     33  19  18     2.851239195757   117.95115826   109.76644426
 C     34  33  19     2.878988886723   114.60876225   179.63011567
 C     35  34  33     2.891374292030   112.46610862   178.85876361
 C     36  35  34     2.891412174328   113.24920922   179.83809943
 C     37  36  35     2.891570755028   113.48700575   179.84662413
 C     38  37  36     2.891847640052   113.51400485   179.82685816
 C     39  38  37     2.891589753184   113.55092929   179.99393283
 C     40  39  38     2.893136424784   113.59144426   179.91967176
 C     41  40  39     2.890989910999   113.13880398   180.00535012
 O     33  19  18     2.302673281705   118.84332650   290.42950981
 O     18  17  16     2.725381952598   111.96963851   289.82650528
 O     15  14  13     2.328528582109   120.87617469    95.25023254
 C     14  13  12     2.898207149401   112.81372951   300.94248829
 C     46  14  13     2.889877266421   111.75685379   185.65004308
 O     12  11  10     2.365059358443   120.77582985   202.43993699
 C     11  10   2     2.931527117367   112.41934565   129.75340298
 C     49  11  10     2.898547047338   110.67084634   320.78295131
 C     49  11  10     2.899912560705   111.60360861   198.84625979
 H      3   2   1     2.077480147371   106.10246746    43.44520159
 H      4   3   2     2.069619777533   111.49597245    90.91118233
 H      4   3   2     2.079764655794   109.55417833   331.83435940
 H      5   4   3     2.073273272130   113.01234183   158.36839047
 H      5   4   3     2.079069770627   110.52999496   279.80281235
 H      6   5   4     2.079438917101   111.08356359    81.61658154
 H      6   5   4     2.068943602202   113.98205796   203.08539680
 H     10   2   1     1.925175843192   118.33936215   181.98823276
[...]
freq.      76.62  E(vib)   ...       0.49 
freq.      88.05  E(vib)   ...       0.48 
freq.      88.20  E(vib)   ...       0.48 
freq.      94.67  E(vib)   ...       0.47 
freq.     105.29  E(vib)   ...       0.45 
freq.     108.62  E(vib)   ...       0.45 
freq.     114.85  E(vib)   ...       0.44 
freq.     119.86  E(vib)   ...       0.44 
freq.     120.39  E(vib)   ...       0.44 
freq.     124.19  E(vib)   ...       0.43 
freq.     128.28  E(vib)   ...       0.43 
freq.     137.51  E(vib)   ...       0.42 
freq.     144.62  E(vib)   ...       0.41 
freq.     148.53  E(vib)   ...       0.41 
freq.     152.30  E(vib)   ...       0.40 
freq.     155.96  E(vib)   ...       0.40 
freq.     158.95  E(vib)   ...       0.39 
freq.     164.17  E(vib)   ...       0.39 
freq.     167.49  E(vib)   ...       0.38 
freq.     176.66  E(vib)   ...       0.38 
freq.     188.63  E(vib)   ...       0.36 
freq.     191.84  E(vib)   ...       0.36 
freq.     194.56  E(vib)   ...       0.36 
freq.     206.98  E(vib)   ...       0.35 
freq.     208.92  E(vib)   ...       0.34 
freq.     214.79  E(vib)   ...       0.34 
freq.     221.39  E(vib)   ...       0.33 
freq.     229.23  E(vib)   ...       0.32 
freq.     232.45  E(vib)   ...       0.32 
freq.     237.14  E(vib)   ...       0.32 
freq.     242.51  E(vib)   ...       0.31 
freq.     243.98  E(vib)   ...       0.31 
freq.     248.03  E(vib)   ...       0.31 
freq.     250.30  E(vib)   ...       0.31 
freq.     254.63  E(vib)   ...       0.30 
freq.     268.84  E(vib)   ...       0.29 
freq.     280.80  E(vib)   ...       0.28 
freq.     282.86  E(vib)   ...       0.28 
freq.     290.77  E(vib)   ...       0.27 
freq.     296.75  E(vib)   ...       0.27 
freq.     306.41  E(vib)   ...       0.26 
freq.     310.51  E(vib)   ...       0.26 
freq.     316.97  E(vib)   ...       0.25 
freq.     320.69  E(vib)   ...       0.25 
freq.     332.10  E(vib)   ...       0.24 
freq.     337.86  E(vib)   ...       0.24 
freq.     345.58  E(vib)   ...       0.23 
freq.     361.94  E(vib)   ...       0.22 
freq.     372.47  E(vib)   ...       0.21 
freq.     378.02  E(vib)   ...       0.21 
freq.     388.74  E(vib)   ...       0.20 
freq.     392.77  E(vib)   ...       0.20 
freq.     393.76  E(vib)   ...       0.20 
freq.     412.23  E(vib)   ...       0.19 
freq.     416.18  E(vib)   ...       0.18 
freq.     437.55  E(vib)   ...       0.17 
freq.     443.81  E(vib)   ...       0.17 
freq.     450.46  E(vib)   ...       0.17 
freq.     452.47  E(vib)   ...       0.16 
freq.     462.82  E(vib)   ...       0.16 
freq.     467.27  E(vib)   ...       0.16 
freq.     478.32  E(vib)   ...       0.15 
freq.     494.32  E(vib)   ...       0.14 
freq.     499.70  E(vib)   ...       0.14 
freq.     519.73  E(vib)   ...       0.13 
freq.     524.58  E(vib)   ...       0.13 
freq.     531.67  E(vib)   ...       0.13 
freq.     535.74  E(vib)   ...       0.12 
freq.     567.06  E(vib)   ...       0.11 
freq.     585.36  E(vib)   ...       0.11 
freq.     589.10  E(vib)   ...       0.10 
freq.     610.68  E(vib)   ...       0.10 
freq.     616.51  E(vib)   ...       0.09 
freq.     631.31  E(vib)   ...       0.09 
freq.     654.94  E(vib)   ...       0.08 
freq.     661.35  E(vib)   ...       0.08 
freq.     678.49  E(vib)   ...       0.08 
freq.     681.00  E(vib)   ...       0.08 
freq.     695.79  E(vib)   ...       0.07 
freq.     697.82  E(vib)   ...       0.07 
freq.     710.74  E(vib)   ...       0.07 
freq.     711.68  E(vib)   ...       0.07 
freq.     715.34  E(vib)   ...       0.07 
freq.     718.50  E(vib)   ...       0.07 
freq.     726.79  E(vib)   ...       0.06 
freq.     731.68  E(vib)   ...       0.06 
freq.     739.40  E(vib)   ...       0.06 
freq.     744.32  E(vib)   ...       0.06 
freq.     749.67  E(vib)   ...       0.06 
freq.     763.33  E(vib)   ...       0.06 
freq.     770.06  E(vib)   ...       0.05 
freq.     781.15  E(vib)   ...       0.05 
freq.     790.70  E(vib)   ...       0.05 
freq.     794.27  E(vib)   ...       0.05 
freq.     803.50  E(vib)   ...       0.05 
freq.     812.01  E(vib)   ...       0.05 
freq.     820.52  E(vib)   ...       0.05 
freq.     826.23  E(vib)   ...       0.04 
freq.     842.56  E(vib)   ...       0.04 
freq.     859.80  E(vib)   ...       0.04 
freq.     862.30  E(vib)   ...       0.04 
freq.     864.14  E(vib)   ...       0.04 
freq.     871.96  E(vib)   ...       0.04 
freq.     877.71  E(vib)   ...       0.04 
freq.     878.88  E(vib)   ...       0.04 
freq.     885.99  E(vib)   ...       0.04 
freq.     896.69  E(vib)   ...       0.03 
freq.     904.40  E(vib)   ...       0.03 
freq.     905.28  E(vib)   ...       0.03 
freq.     908.25  E(vib)   ...       0.03 
freq.     911.87  E(vib)   ...       0.03 
freq.     917.86  E(vib)   ...       0.03 
freq.     921.20  E(vib)   ...       0.03 
freq.     936.58  E(vib)   ...       0.03 
freq.     938.63  E(vib)   ...       0.03 
freq.     941.50  E(vib)   ...       0.03 
freq.     942.35  E(vib)   ...       0.03 
freq.     954.38  E(vib)   ...       0.03 
freq.     962.91  E(vib)   ...       0.03 
freq.     968.20  E(vib)   ...       0.03 
freq.     969.62  E(vib)   ...       0.03 
freq.     979.09  E(vib)   ...       0.03 
freq.     984.88  E(vib)   ...       0.02 
freq.     993.50  E(vib)   ...       0.02 
freq.    1000.13  E(vib)   ...       0.02 
freq.    1003.91  E(vib)   ...       0.02 
freq.    1015.43  E(vib)   ...       0.02 
freq.    1020.15  E(vib)   ...       0.02 
freq.    1025.04  E(vib)   ...       0.02 
freq.    1026.70  E(vib)   ...       0.02 
freq.    1032.61  E(vib)   ...       0.02 
freq.    1039.46  E(vib)   ...       0.02 
freq.    1043.46  E(vib)   ...       0.02 
freq.    1048.02  E(vib)   ...       0.02 
freq.    1050.81  E(vib)   ...       0.02 
freq.    1051.81  E(vib)   ...       0.02 
freq.    1060.53  E(vib)   ...       0.02 
freq.    1067.57  E(vib)   ...       0.02 
freq.    1078.42  E(vib)   ...       0.02 
freq.    1080.06  E(vib)   ...       0.02 
freq.    1083.00  E(vib)   ...       0.02 
freq.    1085.10  E(vib)   ...       0.02 
freq.    1092.08  E(vib)   ...       0.02 
freq.    1094.10  E(vib)   ...       0.02 
freq.    1097.33  E(vib)   ...       0.02 
freq.    1107.03  E(vib)   ...       0.02 
freq.    1116.07  E(vib)   ...       0.01 
freq.    1116.47  E(vib)   ...       0.01 
freq.    1118.97  E(vib)   ...       0.01 
freq.    1124.40  E(vib)   ...       0.01 
freq.    1134.13  E(vib)   ...       0.01 
freq.    1134.72  E(vib)   ...       0.01 
freq.    1137.10  E(vib)   ...       0.01 
freq.    1155.23  E(vib)   ...       0.01 
freq.    1157.69  E(vib)   ...       0.01 
freq.    1166.81  E(vib)   ...       0.01 
freq.    1168.96  E(vib)   ...       0.01 
freq.    1177.80  E(vib)   ...       0.01 
freq.    1181.95  E(vib)   ...       0.01 
freq.    1184.31  E(vib)   ...       0.01 
freq.    1194.19  E(vib)   ...       0.01 
freq.    1200.51  E(vib)   ...       0.01 
freq.    1201.64  E(vib)   ...       0.01 
freq.    1206.55  E(vib)   ...       0.01 
freq.    1216.53  E(vib)   ...       0.01 
freq.    1220.27  E(vib)   ...       0.01 
freq.    1228.64  E(vib)   ...       0.01 
freq.    1231.84  E(vib)   ...       0.01 
freq.    1233.93  E(vib)   ...       0.01 
freq.    1237.19  E(vib)   ...       0.01 
freq.    1241.63  E(vib)   ...       0.01 
freq.    1244.39  E(vib)   ...       0.01 
freq.    1246.15  E(vib)   ...       0.01 
freq.    1251.24  E(vib)   ...       0.01 
freq.    1260.91  E(vib)   ...       0.01 
freq.    1263.09  E(vib)   ...       0.01 
freq.    1270.09  E(vib)   ...       0.01 
freq.    1272.90  E(vib)   ...       0.01 
freq.    1276.36  E(vib)   ...       0.01 
freq.    1282.51  E(vib)   ...       0.01 
freq.    1283.61  E(vib)   ...       0.01 
freq.    1284.33  E(vib)   ...       0.01 
freq.    1286.16  E(vib)   ...       0.01 
freq.    1286.79  E(vib)   ...       0.01 
freq.    1289.19  E(vib)   ...       0.01 
freq.    1294.51  E(vib)   ...       0.01 
freq.    1295.83  E(vib)   ...       0.01 
freq.    1296.00  E(vib)   ...       0.01 
freq.    1297.10  E(vib)   ...       0.01 
freq.    1297.70  E(vib)   ...       0.01 
freq.    1299.11  E(vib)   ...       0.01 
freq.    1300.93  E(vib)   ...       0.01 
freq.    1303.66  E(vib)   ...       0.01 
freq.    1308.11  E(vib)   ...       0.01 
freq.    1308.72  E(vib)   ...       0.01 
freq.    1311.91  E(vib)   ...       0.01 
freq.    1319.39  E(vib)   ...       0.01 
freq.    1328.14  E(vib)   ...       0.01 
freq.    1330.73  E(vib)   ...       0.01 
freq.    1335.63  E(vib)   ...       0.01 
freq.    1337.57  E(vib)   ...       0.01 
freq.    1339.92  E(vib)   ...       0.01 
freq.    1346.00  E(vib)   ...       0.01 
freq.    1347.36  E(vib)   ...       0.01 
freq.    1348.09  E(vib)   ...       0.01 
freq.    1348.78  E(vib)   ...       0.01 
freq.    1350.69  E(vib)   ...       0.01 
freq.    1352.50  E(vib)   ...       0.01 
freq.    1363.76  E(vib)   ...       0.01 
freq.    1369.28  E(vib)   ...       0.01 
freq.    1370.24  E(vib)   ...       0.01 
freq.    1370.76  E(vib)   ...       0.01 
freq.    1374.39  E(vib)   ...       0.01 
freq.    1384.52  E(vib)   ...       0.00 
freq.    1391.67  E(vib)   ...       0.00 
freq.    1397.11  E(vib)   ...       0.00 
freq.    1411.79  E(vib)   ...       0.00 
freq.    1428.85  E(vib)   ...       0.00 
freq.    1433.23  E(vib)   ...       0.00 
freq.    1433.68  E(vib)   ...       0.00 
freq.    1434.75  E(vib)   ...       0.00 
freq.    1435.96  E(vib)   ...       0.00 
freq.    1437.04  E(vib)   ...       0.00 
freq.    1439.04  E(vib)   ...       0.00 
freq.    1440.73  E(vib)   ...       0.00 
freq.    1442.80  E(vib)   ...       0.00 
freq.    1443.69  E(vib)   ...       0.00 
freq.    1443.89  E(vib)   ...       0.00 
freq.    1445.45  E(vib)   ...       0.00 
freq.    1445.63  E(vib)   ...       0.00 
freq.    1448.54  E(vib)   ...       0.00 
freq.    1449.11  E(vib)   ...       0.00 
freq.    1451.00  E(vib)   ...       0.00 
freq.    1452.05  E(vib)   ...       0.00 
freq.    1453.05  E(vib)   ...       0.00 
freq.    1454.21  E(vib)   ...       0.00 
freq.    1455.57  E(vib)   ...       0.00 
freq.    1456.94  E(vib)   ...       0.00 
freq.    1460.15  E(vib)   ...       0.00 
freq.    1462.44  E(vib)   ...       0.00 
freq.    1462.98  E(vib)   ...       0.00 
freq.    1464.82  E(vib)   ...       0.00 
freq.    1470.47  E(vib)   ...       0.00 
freq.    1472.56  E(vib)   ...       0.00 
freq.    1477.57  E(vib)   ...       0.00 
freq.    1498.98  E(vib)   ...       0.00 
freq.    1511.74  E(vib)   ...       0.00 
freq.    1514.28  E(vib)   ...       0.00 
freq.    1603.80  E(vib)   ...       0.00 
freq.    1629.95  E(vib)   ...       0.00 
freq.    1678.38  E(vib)   ...       0.00 
freq.    1683.34  E(vib)   ...       0.00 
freq.    1690.61  E(vib)   ...       0.00 
freq.    1693.27  E(vib)   ...       0.00 
freq.    1714.83  E(vib)   ...       0.00 
freq.    2900.52  E(vib)   ...       0.00 
freq.    2924.07  E(vib)   ...       0.00 
freq.    2925.05  E(vib)   ...       0.00 
freq.    2925.16  E(vib)   ...       0.00 
freq.    2925.75  E(vib)   ...       0.00 
freq.    2932.36  E(vib)   ...       0.00 
freq.    2938.46  E(vib)   ...       0.00 
freq.    2938.60  E(vib)   ...       0.00 
freq.    2939.81  E(vib)   ...       0.00 
freq.    2942.03  E(vib)   ...       0.00 
freq.    2943.06  E(vib)   ...       0.00 
freq.    2944.66  E(vib)   ...       0.00 
freq.    2945.79  E(vib)   ...       0.00 
freq.    2948.93  E(vib)   ...       0.00 
freq.    2949.39  E(vib)   ...       0.00 
freq.    2952.77  E(vib)   ...       0.00 
freq.    2956.62  E(vib)   ...       0.00 
freq.    2956.69  E(vib)   ...       0.00 
freq.    2961.80  E(vib)   ...       0.00 
freq.    2963.63  E(vib)   ...       0.00 
freq.    2966.18  E(vib)   ...       0.00 
freq.    2967.16  E(vib)   ...       0.00 
freq.    2967.96  E(vib)   ...       0.00 
freq.    2968.95  E(vib)   ...       0.00 
freq.    2974.57  E(vib)   ...       0.00 
freq.    2975.05  E(vib)   ...       0.00 
freq.    2976.58  E(vib)   ...       0.00 
freq.    2978.80  E(vib)   ...       0.00 
freq.    2980.77  E(vib)   ...       0.00 
freq.    2982.79  E(vib)   ...       0.00 
freq.    2987.83  E(vib)   ...       0.00 
freq.    2989.21  E(vib)   ...       0.00 
freq.    3002.07  E(vib)   ...       0.00 
freq.    3003.24  E(vib)   ...       0.00 
freq.    3003.74  E(vib)   ...       0.00 
freq.    3007.33  E(vib)   ...       0.00 
freq.    3007.50  E(vib)   ...       0.00 
freq.    3012.48  E(vib)   ...       0.00 
freq.    3015.35  E(vib)   ...       0.00 
freq.    3019.20  E(vib)   ...       0.00 
freq.    3019.92  E(vib)   ...       0.00 
freq.    3020.64  E(vib)   ...       0.00 
freq.    3023.60  E(vib)   ...       0.00 
freq.    3026.33  E(vib)   ...       0.00 
freq.    3027.50  E(vib)   ...       0.00 
freq.    3031.88  E(vib)   ...       0.00 
freq.    3032.32  E(vib)   ...       0.00 
freq.    3039.92  E(vib)   ...       0.00 
freq.    3040.83  E(vib)   ...       0.00 
freq.    3043.85  E(vib)   ...       0.00 
freq.    3044.38  E(vib)   ...       0.00 
freq.    3051.39  E(vib)   ...       0.00 
freq.    3059.18  E(vib)   ...       0.00 
freq.    3060.14  E(vib)   ...       0.00 
freq.    3062.96  E(vib)   ...       0.00 
freq.    3065.79  E(vib)   ...       0.00 
freq.    3076.00  E(vib)   ...       0.00 
freq.    3086.13  E(vib)   ...       0.00 
freq.    3323.55  E(vib)   ...       0.00 
freq.    3332.56  E(vib)   ...       0.00 
freq.    3368.29  E(vib)   ...       0.00 
freq.    3404.99  E(vib)   ...       0.00 
freq.    3443.02  E(vib)   ...       0.00 
freq.    3452.07  E(vib)   ...       0.00 

------------
INNER ENERGY
------------

The inner energy is: U= E(el) + E(ZPE) + E(vib) + E(rot) + E(trans)
    E(el)   - is the total energy from the electronic structure calculation
              = E(kin-el) + E(nuc-el) + E(el-el) + E(nuc-nuc)
    E(ZPE)  - the the zero temperature vibrational energy from the frequency calculation
    E(vib)  - the the finite temperature correction to E(ZPE) due to population
              of excited vibrational states
    E(rot)  - is the rotational thermal energy
    E(trans)- is the translational thermal energy

Summary of contributions to the inner energy U:
Electronic energy                ...  -2380.07846004 Eh
Zero point energy                ...      0.97744583 Eh     613.36 kcal/mol
Thermal vibrational correction   ...      0.05555177 Eh      34.86 kcal/mol
Thermal rotational correction    ...      0.00141627 Eh       0.89 kcal/mol
Thermal translational correction ...      0.00141627 Eh       0.89 kcal/mol
-----------------------------------------------------------------------
Total thermal energy                  -2379.04262990 Eh


Summary of corrections to the electronic energy:
(perhaps to be used in another calculation)
Total thermal correction                  0.05838431 Eh      36.64 kcal/mol
Non-thermal (ZPE) correction              0.97744583 Eh     613.36 kcal/mol
-----------------------------------------------------------------------
Total correction                          1.03583014 Eh     649.99 kcal/mol


--------
ENTHALPY
--------

The enthalpy is H = U + kB*T
                kB is Boltzmann's constant
Total free energy                 ...  -2379.04262990 Eh 
Thermal Enthalpy correction       ...      0.00094421 Eh       0.59 kcal/mol
-----------------------------------------------------------------------
Total Enthalpy                    ...  -2379.04168569 Eh


Note: Only C1 symmetry has been detected, increase convergence thresholds 
      if your molecule has a higher symmetry. Symmetry factor of 1.0 is   
      used for the rotational entropy correction. 
 

Note: Rotational entropy computed according to Herzberg 
Infrared and Raman Spectra, Chapter V,1, Van Nostrand Reinhold, 1945 
Point Group:  C1, Symmetry Number:   1  
Rotational constants in cm-1:     0.002492     0.000967     0.000859 

Vibrational entropy computed according to the QRRHO of S. Grimme
Chem.Eur.J. 2012 18 9955


-------
ENTROPY
-------

The entropy contributions are T*S = T*(S(el)+S(vib)+S(rot)+S(trans))
     S(el)   - electronic entropy
     S(vib)  - vibrational entropy
     S(rot)  - rotational entropy
     S(trans)- translational entropy
The entropies will be listed as mutliplied by the temperature to get
units of energy

Electronic entropy                ...      0.00000000 Eh      0.00 kcal/mol
Vibrational entropy               ...      0.10268617 Eh     64.44 kcal/mol
Rotational entropy                ...      0.01895073 Eh     11.89 kcal/mol
Translational entropy             ...      0.02166895 Eh     13.60 kcal/mol
-----------------------------------------------------------------------
Final entropy term                ...      0.14330585 Eh     89.93 kcal/mol

In case the symmetry of your molecule has not been determined correctly
or in case you have a reason to use a different symmetry number we print 
out the resulting rotational entropy values for sn=1,12 :
 --------------------------------------------------------
|  sn= 1 | S(rot)=       0.01895073 Eh     11.89 kcal/mol|
|  sn= 2 | S(rot)=       0.01829628 Eh     11.48 kcal/mol|
|  sn= 3 | S(rot)=       0.01791344 Eh     11.24 kcal/mol|
|  sn= 4 | S(rot)=       0.01764182 Eh     11.07 kcal/mol|
|  sn= 5 | S(rot)=       0.01743113 Eh     10.94 kcal/mol|
|  sn= 6 | S(rot)=       0.01725899 Eh     10.83 kcal/mol|
|  sn= 7 | S(rot)=       0.01711344 Eh     10.74 kcal/mol|
|  sn= 8 | S(rot)=       0.01698736 Eh     10.66 kcal/mol|
|  sn= 9 | S(rot)=       0.01687616 Eh     10.59 kcal/mol|
|  sn=10 | S(rot)=       0.01677668 Eh     10.53 kcal/mol|
|  sn=11 | S(rot)=       0.01668669 Eh     10.47 kcal/mol|
|  sn=12 | S(rot)=       0.01660453 Eh     10.42 kcal/mol|
 --------------------------------------------------------


-------------------
GIBBS FREE ENERGY
-------------------

The Gibbs free energy is G = H - T*S

Total enthalpy                    ...  -2379.04168569 Eh 
Total entropy correction          ...     -0.14330585 Eh    -89.93 kcal/mol
-----------------------------------------------------------------------
Final Gibbs free energy         ...  -2379.18499154 Eh

For completeness - the Gibbs free energy minus the electronic energy
G-E(el)                           ...      0.89346850 Eh    560.66 kcal/mol

--------------------------------------------------------------------------
WARNING: No preset parameters were found for the device that Open MPI
detected:

  Local host:            eu-g1-010-3
  Device name:           mlx5_0
  Device vendor ID:      0x02c9
  Device vendor part ID: 4123

Default device parameters will be used, which may result in lower
performance.  You can edit any of the files specified by the
btl_openib_device_param_files MCA parameter to set values for your
device.

NOTE: You can turn off this warning by setting the MCA parameter
      btl_openib_warn_no_device_params_found to 0.
--------------------------------------------------------------------------
--------------------------------------------------------------------------
WARNING: There was an error initializing an OpenFabrics device.

  Local host:   eu-g1-010-3
  Local device: mlx5_0
--------------------------------------------------------------------------

Timings for individual modules:

Sum of individual times         ...    26037.727 sec (= 433.962 min)
GTO integral calculation        ...       13.270 sec (=   0.221 min)   0.1 %
SCF iterations                  ...      371.468 sec (=   6.191 min)   1.4 %
SCF Gradient evaluation         ...       72.862 sec (=   1.214 min)   0.3 %
Geometry relaxation             ...        4.092 sec (=   0.068 min)   0.0 %
Analytical frequency calculation...    25576.034 sec (= 426.267 min)  98.2 %
                             ****ORCA TERMINATED NORMALLY****
TOTAL RUN TIME: 0 days 7 hours 14 minutes 15 seconds 494 msec
