
                                 *****************
                                 * O   R   C   A *
                                 *****************

           --- An Ab Initio, DFT and Semiempirical electronic structure package ---

                  #######################################################
                  #                        -***-                        #
                  #          Department of theory and spectroscopy      #
                  #               Directorship: Frank Neese             #
                  #        Max Planck Institute fuer Kohlenforschung    #
                  #                Kaiser Wilhelm Platz 1               #
                  #                 D-45470 Muelheim/Ruhr               #
                  #                      Germany                        #
                  #                                                     #
                  #                  All rights reserved                #
                  #                        -***-                        #
                  #######################################################


                         Program Version 4.2.0 -  RELEASE  -


 With contributions from (in alphabetic order):
   Daniel Aravena         : Magnetic Suceptibility
   Michael Atanasov       : Ab Initio Ligand Field Theory (pilot matlab implementation)
   Alexander A. Auer      : GIAO ZORA, VPT2
   Ute Becker             : Parallelization
   Giovanni Bistoni       : ED, misc. LED, open-shell LED, HFLED
   Martin Brehm           : Molecular dynamics
   Dmytro Bykov           : SCF Hessian
   Vijay G. Chilkuri      : MRCI spin determinant printing, contributions to CSF-ICE
   Dipayan Datta          : RHF DLPNO-CCSD density
   Achintya Kumar Dutta   : EOM-CC, STEOM-CC
   Dmitry Ganyushin       : Spin-Orbit,Spin-Spin,Magnetic field MRCI
   Miquel Garcia          : C-PCM Hessian, Gaussian charge scheme
   Yang Guo               : DLPNO-NEVPT2, CIM, IAO-localization
   Andreas Hansen         : Spin unrestricted coupled pair/coupled cluster methods
   Benjamin Helmich-Paris : CASSCF linear response (MC-RPA)
   Lee Huntington         : MR-EOM, pCC
   Robert Izsak           : Overlap fitted RIJCOSX, COSX-SCS-MP3, EOM
   Christian Kollmar      : KDIIS, OOCD, Brueckner-CCSD(T), CCSD density
   Simone Kossmann        : Meta GGA functionals, TD-DFT gradient, OOMP2, MP2 Hessian
   Martin Krupicka        : AUTO-CI
   Lucas Lang             : DCDCAS
   Dagmar Lenk            : GEPOL surface, SMD
   Dimitrios Liakos       : Extrapolation schemes; Compound Job, initial MDCI parallelization
   Dimitrios Manganas     : Further ROCIS development; embedding schemes
   Dimitrios Pantazis     : SARC Basis sets
   Taras Petrenko         : DFT Hessian,TD-DFT gradient, ASA, ECA, R-Raman, ABS, FL, XAS/XES, NRVS
   Peter Pinski           : DLPNO-MP2, DLPNO-MP2 Gradient
   Christoph Reimann      : Effective Core Potentials
   Marius Retegan         : Local ZFS, SOC
   Christoph Riplinger    : Optimizer, TS searches, QM/MM, DLPNO-CCSD(T), (RO)-DLPNO pert. Triples
   Tobias Risthaus        : Range-separated hybrids, TD-DFT gradient, RPA, STAB
   Michael Roemelt        : Original ROCIS implementation
   Masaaki Saitow         : Open-shell DLPNO-CCSD energy and density
   Barbara Sandhoefer     : DKH picture change effects
   Avijit Sen             : IP-ROCIS
   Kantharuban Sivalingam : CASSCF convergence, NEVPT2, FIC-MRCI
   Bernardo de Souza      : ESD, SOC TD-DFT
   Georgi Stoychev        : AutoAux, RI-MP2 NMR
   Willem Van den Heuvel  : Paramagnetic NMR
   Boris Wezisla          : Elementary symmetry handling
   Frank Wennmohs         : Technical directorship


 We gratefully acknowledge several colleagues who have allowed us to
 interface, adapt or use parts of their codes:
   Stefan Grimme, W. Hujo, H. Kruse,             : VdW corrections, initial TS optimization,
                  C. Bannwarth                     DFT functionals, gCP, sTDA/sTD-DF
   Ed Valeev, F. Pavosevic, A. Kumar             : LibInt (2-el integral package), F12 methods
   Garnet Chan, S. Sharma, J. Yang, R. Olivares  : DMRG
   Ulf Ekstrom                                   : XCFun DFT Library
   Mihaly Kallay                                 : mrcc  (arbitrary order and MRCC methods)
   Andreas Klamt, Michael Diedenhofen            : otool_cosmo (COSMO solvation model)
   Jiri Pittner, Ondrej Demel                    : Mk-CCSD
   Frank Weinhold                                : gennbo (NPA and NBO analysis)
   Christopher J. Cramer and Donald G. Truhlar   : smd solvation model
   Lars Goerigk                                  : TD-DFT with DH, B97 family of functionals
   V. Asgeirsson, H. Jonsson                     : NEB implementation
   FAccTs GmbH                                   : IRC, NEB, NEB-TS, Multilevel, MM, QM/MM, CI optimization
   S Lehtola, MJT Oliveira, MAL Marques          : LibXC Library


 Your calculation uses the libint2 library for the computation of 2-el integrals
 For citations please refer to: http://libint.valeyev.net

 Your ORCA version has been built with support for libXC version: 4.2.3
 For citations please refer to: https://tddft.org/programs/libxc/

 This ORCA versions uses:
   CBLAS   interface :  Fast vector & matrix operations
   LAPACKE interface :  Fast linear algebra routines
   SCALAPACK package :  Parallel linear algebra routines




***************************************
The coordinates will be read from file: 17_old.xyz
***************************************


Your calculation utilizes the atom-pairwise dispersion correction
with the Becke-Johnson damping scheme (D3BJ)
Cite in your paper:
S.Grimme, S.Ehrlich, L.Goerigk, J Comput Chem, (2011), 32, 1456–1465 
S.Grimme, J.Antony, S.Ehrlich and H.Krieg, J.Chem.Phys., 132, (2010), 154104 
   

----- Orbital basis set information -----
Your calculation utilizes the basis: def2-TZVP
   F. Weigend and R. Ahlrichs, Phys. Chem. Chem. Phys. 7, 3297 (2005).

----- AuxJ basis set information -----
Your calculation utilizes the auxiliary basis: def2/J
   F. Weigend, Phys. Chem. Chem. Phys. 8, 1057 (2006).

================================================================================
                                        WARNINGS
                       Please study these warnings very carefully!
================================================================================


WARNING: Geometry Optimization
  ===> : Switching off AutoStart
         For restart on a previous wavefunction, please use MOREAD

INFO   : the flag for use of LIBINT has been found!

================================================================================
                                       INPUT FILE
================================================================================
NAME = 17.inp
|  1> !RI BP86 def2-tzvp def2/J D3BJ TIGHTSCF TightOpt Grid5 FinalGrid6 freq
|  2> %maxcore 4000
|  3> %pal nprocs 24
|  4> end
|  5> * xyzfile 0 1 17_old.xyz 
|  6> 
|  7>                          ****END OF INPUT****
================================================================================

                       *****************************
                       * Geometry Optimization Run *
                       *****************************

Geometry optimization settings:
Update method            Update   .... BFGS
Choice of coordinates    CoordSys .... Z-matrix Internals
Initial Hessian          InHess   .... Almoef's Model

Convergence Tolerances:
Energy Change            TolE     ....  1.0000e-06 Eh
Max. Gradient            TolMAXG  ....  1.0000e-04 Eh/bohr
RMS Gradient             TolRMSG  ....  3.0000e-05 Eh/bohr
Max. Displacement        TolMAXD  ....  1.0000e-03 bohr
RMS Displacement         TolRMSD  ....  6.0000e-04 bohr
Strict Convergence                ....  False
------------------------------------------------------------------------------
                        ORCA OPTIMIZATION COORDINATE SETUP
------------------------------------------------------------------------------

The optimization will be done in new redundant internal coordinates
Making redundant internal coordinates   ...  (new redundants) done
Evaluating the initial hessian          ...  (Almloef) done
Evaluating the coordinates              ...  done
Calculating the B-matrix                .... done
Calculating the G-matrix                .... done
Diagonalizing the G-matrix              .... done
Small eigenvalue found = 3.315e-04
Small eigenvalue found = 1.742e-03
Small eigenvalue found = 2.013e-03
Small eigenvalue found = 2.337e-03
Small eigenvalue found = 3.686e-03
Small eigenvalue found = 5.056e-03
Small eigenvalue found = 5.651e-03
Small eigenvalue found = 6.433e-03
Small eigenvalue found = 7.832e-03
Small eigenvalue found = 8.776e-03
Small eigenvalue found = 1.064e-02
Small eigenvalue found = 1.097e-02
Small eigenvalue found = 1.239e-02
Small eigenvalue found = 1.631e-02
Small eigenvalue found = 1.734e-02
Small eigenvalue found = 1.973e-02
Small eigenvalue found = 2.242e-02
Small eigenvalue found = 2.287e-02
Small eigenvalue found = 2.758e-02
The first mode is                       ....  325
The number of degrees of freedom        ....  339

    -----------------------------------------------------------------
                    Redundant Internal Coordinates


    -----------------------------------------------------------------
         Definition                    Initial Value    Approx d2E/dq
    -----------------------------------------------------------------
      1. B(C   1,O   0)                  1.2336         0.994107   
      2. B(C   2,C   1)                  1.5356         0.365998   
      3. B(C   3,C   2)                  1.5506         0.346402   
      4. B(C   4,C   3)                  1.5379         0.362895   
      5. B(C   5,C   4)                  1.5341         0.368026   
      6. B(N   6,C   2)                  1.4577         0.436306   
      7. B(N   6,C   5)                  1.4682         0.419871   
      8. B(C   7,N   6)                  1.3700         0.602162   
      9. B(O   8,C   7)                  1.2349         0.989132   
     10. B(N   9,C   1)                  1.3679         0.606823   
     11. B(C  10,N   9)                  1.4623         0.429111   
     12. B(C  11,C  10)                  1.5484         0.349124   
     13. B(N  12,C  11)                  1.3702         0.601721   
     14. B(C  13,N  12)                  1.4547         0.441164   
     15. B(C  14,C  13)                  1.5524         0.344109   
     16. B(N  15,C  14)                  1.3653         0.612674   
     17. B(C  16,N  15)                  1.4434         0.459899   
     18. B(C  17,C  16)                  1.5421         0.357318   
     19. B(C  18,C  17)                  1.5727         0.319379   
     20. B(C  19,C  18)                  1.5329         0.369615   
     21. B(N  20,C  19)                  1.3511         0.645594   
     22. B(C  21,N  20)                  1.4632         0.427597   
     23. B(C  22,C  21)                  1.5520         0.344614   
     24. B(N  23,C  22)                  1.3635         0.616750   
     25. B(C  24,C   7)                  1.5420         0.357490   
     26. B(C  24,N  23)                  1.4587         0.434846   
     27. B(C  25,C  24)                  1.5300         0.373596   
     28. B(O  26,C  22)                  1.2357         0.986352   
     29. B(C  27,C  21)                  1.5301         0.373478   
     30. B(C  28,C  27)                  1.5414         0.358279   
     31. B(C  29,C  28)                  1.5358         0.365637   
     32. B(C  30,C  28)                  1.5351         0.366681   
     33. B(O  31,O   0)                  4.2172         0.000015   
     34. B(O  31,C  19)                  1.2511         0.932167   
     35. B(C  32,C  18)                  1.5199         0.387715   
     36. B(C  33,C  32)                  1.5123         0.398616   
     37. B(C  34,C  33)                  1.5524         0.344034   
     38. B(C  35,C  34)                  1.5348         0.367086   
     39. B(C  36,C  35)                  1.5324         0.370237   
     40. B(C  37,C  36)                  1.5328         0.369754   
     41. B(C  38,C  37)                  1.5320         0.370904   
     42. B(C  39,C  38)                  1.5324         0.370343   
     43. B(C  40,C  39)                  1.5335         0.368742   
     44. B(C  41,C  40)                  1.5314         0.371626   
     45. B(O  42,C  32)                  1.2333         0.995106   
     46. B(O  43,C  17)                  1.4032         0.533071   
     47. B(O  44,C  14)                  1.2325         0.997903   
     48. B(C  45,C  13)                  1.5351         0.366684   
     49. B(C  46,C  45)                  1.5282         0.376010   
     50. B(O  47,C  11)                  1.2296         1.008726   
     51. B(C  48,C  10)                  1.5509         0.345935   
     52. B(C  49,C  48)                  1.5370         0.364026   
     53. B(C  50,C  48)                  1.5342         0.367826   
     54. B(H  51,C   2)                  1.1144         0.329223   
     55. B(H  52,C   3)                  1.1072         0.337999   
     56. B(H  53,C   3)                  1.1110         0.333424   
     57. B(H  54,C   4)                  1.1073         0.337908   
     58. B(H  55,C   4)                  1.1102         0.334336   
     59. B(H  56,C   5)                  1.1134         0.330436   
     60. B(H  57,C   5)                  1.1072         0.338025   
     61. B(H  58,N   9)                  1.0228         0.412825   
     62. B(H  59,C  10)                  1.1105         0.333999   
     63. B(H  60,N  12)                  1.0225         0.413294   
     64. B(H  61,C  13)                  1.1136         0.330227   
     65. B(H  62,N  15)                  1.0299         0.402211   
     66. B(H  63,H  56)                  2.0596         0.001957   
     67. B(H  63,C  16)                  1.1108         0.333605   
     68. B(H  64,C  16)                  1.1073         0.337942   
     69. B(H  65,C  17)                  1.1121         0.332080   
     70. B(H  66,C  18)                  1.1095         0.335254   
     71. B(H  67,N  20)                  1.0306         0.401180   
     72. B(H  68,C  21)                  1.1111         0.333211   
     73. B(H  69,N  23)                  1.0348         0.394973   
     74. B(H  70,C  24)                  1.1126         0.331469   
     75. B(H  71,C  25)                  1.1072         0.338039   
     76. B(H  72,C  25)                  1.1059         0.339615   
     77. B(H  73,C  25)                  1.1080         0.337081   
     78. B(H  74,C  27)                  1.1104         0.334151   
     79. B(H  75,C  27)                  1.1124         0.331597   
     80. B(H  76,C  28)                  1.1112         0.333107   
     81. B(H  77,C  29)                  1.1092         0.335530   
     82. B(H  78,C  29)                  1.1119         0.332271   
     83. B(H  79,C  29)                  1.1090         0.335846   
     84. B(H  80,C  30)                  1.1090         0.335786   
     85. B(H  81,C  30)                  1.1091         0.335758   
     86. B(H  82,C  30)                  1.1108         0.333624   
     87. B(H  83,C  33)                  1.1079         0.337242   
     88. B(H  84,C  33)                  1.1100         0.334609   
     89. B(H  85,C  34)                  1.1107         0.333736   
     90. B(H  86,C  34)                  1.1132         0.330645   
     91. B(H  87,H  78)                  4.6601         0.000000   
     92. B(H  87,C  35)                  1.1114         0.332814   
     93. B(H  88,C  35)                  1.1126         0.331427   
     94. B(H  89,C  36)                  1.1135         0.330293   
     95. B(H  90,C  36)                  1.1147         0.328872   
     96. B(H  91,C  37)                  1.1143         0.329333   
     97. B(H  92,C  37)                  1.1134         0.330400   
     98. B(H  93,C  38)                  1.1136         0.330249   
     99. B(H  94,C  38)                  1.1142         0.329505   
    100. B(H  95,H  82)                  2.2012         0.001163   
    101. B(H  95,C  39)                  1.1142         0.329469   
    102. B(H  96,C  39)                  1.1139         0.329890   
    103. B(H  97,C  40)                  1.1132         0.330622   
    104. B(H  98,C  40)                  1.1133         0.330541   
    105. B(H  99,C  41)                  1.1090         0.335795   
    106. B(H 100,C  41)                  1.1105         0.333983   
    107. B(H 101,C  41)                  1.1105         0.333965   
    108. B(H 102,O  43)                  0.9880         0.469131   
    109. B(H 103,C  45)                  1.1082         0.336803   
    110. B(H 104,C  45)                  1.1137         0.330116   
    111. B(H 105,C  46)                  1.1085         0.336499   
    112. B(H 106,C  46)                  1.1094         0.335334   
    113. B(H 107,C  46)                  1.1097         0.334949   
    114. B(H 108,C  48)                  1.1153         0.328179   
    115. B(H 109,C  49)                  1.1103         0.334210   
    116. B(H 110,C  49)                  1.1095         0.335179   
    117. B(H 111,C  49)                  1.1083         0.336675   
    118. B(H 112,C  50)                  1.1084         0.336554   
    119. B(H 113,C  50)                  1.1088         0.336081   
    120. B(H 114,C  50)                  1.1074         0.337832   
    121. A(O   0,C   1,N   9)          122.2314         0.464857   
    122. A(C   2,C   1,N   9)          114.7555         0.391267   
    123. A(O   0,C   1,C   2)          122.4804         0.426995   
    124. A(C   1,C   2,H  51)          109.1478         0.318525   
    125. A(N   6,C   2,H  51)          110.0752         0.325872   
    126. A(C   1,C   2,N   6)          111.0282         0.369519   
    127. A(C   1,C   2,C   3)          110.9232         0.357454   
    128. A(C   3,C   2,H  51)          111.9380         0.315684   
    129. A(C   3,C   2,N   6)          103.6547         0.366047   
    130. A(C   4,C   3,H  53)          109.8313         0.318742   
    131. A(C   4,C   3,H  52)          113.8078         0.319452   
    132. A(C   2,C   3,C   4)          103.5200         0.356937   
    133. A(C   2,C   3,H  53)          109.1875         0.316336   
    134. A(C   2,C   3,H  52)          112.1649         0.317038   
    135. A(H  52,C   3,H  53)          108.2166         0.284530   
    136. A(H  54,C   4,H  55)          108.0044         0.284639   
    137. A(C   3,C   4,H  55)          110.4098         0.318884   
    138. A(C   3,C   4,C   5)          102.7469         0.360635   
    139. A(C   3,C   4,H  54)          113.0411         0.319437   
    140. A(C   5,C   4,H  55)          110.0263         0.319616   
    141. A(C   5,C   4,H  54)          112.5642         0.320171   
    142. A(H  56,C   5,H  57)          107.1415         0.284136   
    143. A(C   4,C   5,N   6)          102.6291         0.367440   
    144. A(C   4,C   5,H  56)          110.7314         0.319004   
    145. A(N   6,C   5,H  57)          111.6883         0.325229   
    146. A(N   6,C   5,H  56)          110.7989         0.324018   
    147. A(C   4,C   5,H  57)          113.8906         0.320189   
    148. A(C   5,N   6,C   7)          129.5715         0.397704   
    149. A(C   2,N   6,C   7)          117.5481         0.400399   
    150. A(C   2,N   6,C   5)          112.8392         0.375994   
    151. A(O   8,C   7,C  24)          122.0825         0.424819   
    152. A(N   6,C   7,O   8)          120.5908         0.463776   
    153. A(N   6,C   7,C  24)          117.3157         0.389138   
    154. A(C   1,N   9,C  10)          121.1429         0.399771   
    155. A(C  10,N   9,H  58)          118.6427         0.334490   
    156. A(C   1,N   9,H  58)          118.5649         0.354519   
    157. A(C  48,C  10,H  59)          109.1892         0.316355   
    158. A(C  11,C  10,H  59)          104.0269         0.316828   
    159. A(N   9,C  10,C  11)          112.3857         0.365496   
    160. A(N   9,C  10,C  48)          110.2791         0.364922   
    161. A(N   9,C  10,H  59)          108.5556         0.325753   
    162. A(C  11,C  10,C  48)          112.1332         0.354520   
    163. A(N  12,C  11,O  47)          123.7123         0.465381   
    164. A(C  10,C  11,O  47)          120.7638         0.424510   
    165. A(C  10,C  11,N  12)          115.5213         0.387484   
    166. A(C  13,N  12,H  60)          118.5084         0.336097   
    167. A(C  11,N  12,C  13)          123.3925         0.401128   
    168. A(C  11,N  12,H  60)          117.2341         0.354080   
    169. A(C  14,C  13,C  45)          110.9213         0.357164   
    170. A(N  12,C  13,H  61)          104.6857         0.326631   
    171. A(C  14,C  13,H  61)          106.7751         0.315500   
    172. A(N  12,C  13,C  14)          111.9711         0.366325   
    173. A(C  45,C  13,H  61)          109.3395         0.318781   
    174. A(N  12,C  13,C  45)          112.7578         0.370343   
    175. A(C  13,C  14,N  15)          114.3254         0.387725   
    176. A(N  15,C  14,O  44)          123.7934         0.465999   
    177. A(C  13,C  14,O  44)          121.8765         0.422598   
    178. A(C  14,N  15,H  62)          120.3711         0.353532   
    179. A(C  16,N  15,H  62)          114.5032         0.336904   
    180. A(C  14,N  15,C  16)          123.0242         0.405369   
    181. A(H  63,C  16,H  64)          109.1067         0.284547   
    182. A(C  17,C  16,H  64)          110.1962         0.318636   
    183. A(N  15,C  16,H  63)          107.3262         0.329431   
    184. A(C  17,C  16,H  63)          109.1793         0.317966   
    185. A(N  15,C  16,C  17)          111.6087         0.371345   
    186. A(N  15,C  16,H  64)          109.3508         0.330135   
    187. A(O  43,C  17,H  65)          106.8555         0.337344   
    188. A(C  18,C  17,H  65)          108.1960         0.311991   
    189. A(C  16,C  17,H  65)          107.8633         0.317729   
    190. A(C  16,C  17,C  18)          111.0607         0.351136   
    191. A(C  18,C  17,O  43)          109.8168         0.373617   
    192. A(C  16,C  17,O  43)          112.8374         0.380940   
    193. A(C  19,C  18,H  66)          104.4334         0.319984   
    194. A(C  17,C  18,H  66)          103.8333         0.312471   
    195. A(C  17,C  18,C  32)          112.4469         0.356025   
    196. A(C  17,C  18,C  19)          109.5728         0.353151   
    197. A(C  19,C  18,C  32)          116.1141         0.365002   
    198. A(C  32,C  18,H  66)          109.4230         0.322497   
    199. A(C  18,C  19,N  20)          118.1743         0.396217   
    200. A(N  20,C  19,O  31)          122.6519         0.464653   
    201. A(C  18,C  19,O  31)          119.1258         0.422852   
    202. A(C  19,N  20,H  67)          116.7000         0.356529   
    203. A(C  19,N  20,C  21)          122.5601         0.403906   
    204. A(C  21,N  20,H  67)          120.6359         0.332710   
    205. A(C  27,C  21,H  68)          110.6953         0.320208   
    206. A(C  22,C  21,H  68)          106.2491         0.316037   
    207. A(N  20,C  21,H  68)          105.4965         0.325437   
    208. A(N  20,C  21,C  22)          112.6453         0.364463   
    209. A(C  22,C  21,C  27)          111.8154         0.358370   
    210. A(N  20,C  21,C  27)          109.7058         0.369524   
    211. A(C  21,C  22,N  23)          113.8180         0.388273   
    212. A(C  21,C  22,O  26)          122.2533         0.421831   
    213. A(N  23,C  22,O  26)          123.9209         0.465572   
    214. A(C  22,N  23,C  24)          121.8541         0.401853   
    215. A(C  24,N  23,H  69)          120.5067         0.332777   
    216. A(C  22,N  23,H  69)          117.4481         0.352842   
    217. A(C  25,C  24,H  70)          109.8238         0.319950   
    218. A(N  23,C  24,H  70)          104.5668         0.326057   
    219. A(C   7,C  24,H  70)          107.7401         0.317658   
    220. A(N  23,C  24,C  25)          111.4646         0.370613   
    221. A(C   7,C  24,N  23)          112.4162         0.367819   
    222. A(C   7,C  24,C  25)          110.5777         0.360636   
    223. A(H  71,C  25,H  73)          109.1758         0.285019   
    224. A(C  24,C  25,H  73)          110.7013         0.320830   
    225. A(H  71,C  25,H  72)          109.3385         0.285352   
    226. A(C  24,C  25,H  72)          110.3883         0.321223   
    227. A(C  24,C  25,H  71)          109.9607         0.320979   
    228. A(H  72,C  25,H  73)          107.2207         0.285225   
    229. A(C  28,C  27,H  75)          109.0002         0.317792   
    230. A(C  21,C  27,C  28)          115.0318         0.360752   
    231. A(H  74,C  27,H  75)          107.6159         0.283782   
    232. A(C  21,C  27,H  75)          107.9190         0.319954   
    233. A(C  28,C  27,H  74)          108.9494         0.318190   
    234. A(C  21,C  27,H  74)          108.0828         0.320355   
    235. A(C  29,C  28,C  30)          110.8316         0.360873   
    236. A(C  27,C  28,C  30)          109.7080         0.359625   
    237. A(C  27,C  28,C  29)          112.3075         0.359450   
    238. A(C  30,C  28,H  76)          107.8923         0.319233   
    239. A(C  29,C  28,H  76)          108.8314         0.319084   
    240. A(C  27,C  28,H  76)          107.0989         0.318028   
    241. A(C  28,C  29,H  79)          110.9763         0.319511   
    242. A(H  78,C  29,H  79)          107.4019         0.284095   
    243. A(H  77,C  29,H  79)          107.0403         0.284526   
    244. A(H  77,C  29,H  78)          107.5932         0.284053   
    245. A(C  28,C  29,H  78)          110.8726         0.318953   
    246. A(C  28,C  29,H  77)          112.7102         0.319462   
    247. A(H  81,C  30,H  82)          107.4341         0.284263   
    248. A(H  80,C  30,H  82)          107.6929         0.284266   
    249. A(C  28,C  30,H  82)          110.9340         0.319313   
    250. A(H  80,C  30,H  81)          107.8313         0.284548   
    251. A(C  28,C  30,H  81)          111.3423         0.319646   
    252. A(C  28,C  30,H  80)          111.4226         0.319650   
    253. A(C  33,C  32,O  42)          121.6416         0.433668   
    254. A(C  18,C  32,O  42)          121.7750         0.431512   
    255. A(C  18,C  32,C  33)          116.4258         0.369761   
    256. A(C  32,C  33,C  34)          108.2299         0.362267   
    257. A(C  34,C  33,H  84)          109.7176         0.316165   
    258. A(H  83,C  33,H  84)          109.1851         0.284588   
    259. A(C  32,C  33,H  84)          110.3565         0.323865   
    260. A(C  34,C  33,H  83)          110.6208         0.316569   
    261. A(C  32,C  33,H  83)          108.7186         0.324282   
    262. A(C  33,C  34,C  35)          113.7289         0.357218   
    263. A(H  85,C  34,H  86)          105.4914         0.283601   
    264. A(C  35,C  34,H  86)          109.4972         0.318904   
    265. A(C  33,C  34,H  86)          109.0106         0.315553   
    266. A(C  35,C  34,H  85)          110.1702         0.319388   
    267. A(C  33,C  34,H  85)          108.6083         0.316031   
    268. A(C  34,C  35,C  36)          113.6376         0.361711   
    269. A(H  87,C  35,H  88)          105.0412         0.283583   
    270. A(C  36,C  35,H  88)          110.0222         0.319472   
    271. A(C  34,C  35,H  88)          109.3557         0.319027   
    272. A(C  36,C  35,H  87)          108.5932         0.319690   
    273. A(C  34,C  35,H  87)          109.8353         0.319244   
    274. A(C  35,C  36,C  37)          113.3089         0.362159   
    275. A(H  89,C  36,H  90)          105.5424         0.282908   
    276. A(C  37,C  36,H  90)          109.2302         0.319001   
    277. A(C  35,C  36,H  90)          108.8041         0.319069   
    278. A(C  37,C  36,H  89)          109.5765         0.319225   
    279. A(C  35,C  36,H  89)          110.0794         0.319293   
    280. A(C  36,C  37,C  38)          113.8513         0.362270   
    281. A(H  91,C  37,H  92)          105.3723         0.282984   
    282. A(C  38,C  37,H  92)          109.7008         0.319404   
    283. A(C  36,C  37,H  92)          109.4178         0.319242   
    284. A(C  38,C  37,H  91)          109.0302         0.319235   
    285. A(C  36,C  37,H  91)          109.1201         0.319074   
    286. A(C  37,C  38,C  39)          113.8571         0.362368   
    287. A(H  93,C  38,H  94)          105.4486         0.282987   
    288. A(C  39,C  38,H  94)          109.1323         0.319184   
    289. A(C  37,C  38,H  94)          108.9062         0.319263   
    290. A(C  39,C  38,H  93)          109.4970         0.319301   
    291. A(C  37,C  38,H  93)          109.6562         0.319380   
    292. A(C  38,C  39,C  40)          113.7605         0.362007   
    293. A(H  95,C  39,H  96)          105.3732         0.282934   
    294. A(C  40,C  39,H  96)          109.6081         0.319019   
    295. A(C  38,C  39,H  96)          109.4406         0.319245   
    296. A(C  40,C  39,H  95)          109.0495         0.318953   
    297. A(C  38,C  39,H  95)          109.2688         0.319178   
    298. A(C  39,C  40,C  41)          113.4641         0.362221   
    299. A(H  97,C  40,H  98)          105.5639         0.283174   
    300. A(C  41,C  40,H  98)          109.6630         0.319528   
    301. A(C  39,C  40,H  98)          108.8582         0.319122   
    302. A(C  41,C  40,H  97)          109.7925         0.319541   
    303. A(C  39,C  40,H  97)          109.1927         0.319135   
    304. A(H 100,C  41,H 101)          107.2148         0.284074   
    305. A(H  99,C  41,H 101)          107.5364         0.284313   
    306. A(C  40,C  41,H 101)          111.2133         0.320066   
    307. A(H  99,C  41,H 100)          107.5295         0.284315   
    308. A(C  40,C  41,H 100)          111.3166         0.320069   
    309. A(C  40,C  41,H  99)          111.8041         0.320352   
    310. A(C  17,O  43,H 102)          106.5462         0.354415   
    311. A(C  13,C  45,C  46)          113.0988         0.362600   
    312. A(C  46,C  45,H 104)          110.5687         0.320073   
    313. A(C  13,C  45,H 104)          108.7307         0.318763   
    314. A(C  46,C  45,H 103)          111.6331         0.321124   
    315. A(C  13,C  45,H 103)          106.8611         0.319809   
    316. A(H 103,C  45,H 104)          105.5953         0.283933   
    317. A(H 106,C  46,H 107)          107.1361         0.284382   
    318. A(H 105,C  46,H 107)          107.7121         0.284536   
    319. A(C  45,C  46,H 107)          111.2116         0.320835   
    320. A(H 105,C  46,H 106)          107.9433         0.284586   
    321. A(C  45,C  46,H 106)          111.2292         0.320895   
    322. A(C  45,C  46,H 105)          111.4144         0.321077   
    323. A(C  50,C  48,H 108)          107.7816         0.318619   
    324. A(C  49,C  48,H 108)          108.4304         0.318080   
    325. A(C  10,C  48,H 108)          105.2149         0.315452   
    326. A(C  49,C  48,C  50)          111.5107         0.360793   
    327. A(C  10,C  48,C  50)          111.2885         0.357675   
    328. A(C  10,C  48,C  49)          112.2765         0.357044   
    329. A(H 110,C  49,H 111)          107.6389         0.284589   
    330. A(H 109,C  49,H 111)          107.3759         0.284461   
    331. A(C  48,C  49,H 111)          110.7024         0.319409   
    332. A(H 109,C  49,H 110)          107.3929         0.284264   
    333. A(C  48,C  49,H 110)          110.8033         0.319177   
    334. A(C  48,C  49,H 109)          112.7071         0.319026   
    335. A(H 113,C  50,H 114)          108.8722         0.284860   
    336. A(H 112,C  50,H 114)          107.3402         0.284922   
    337. A(C  48,C  50,H 114)          110.7845         0.320131   
    338. A(H 112,C  50,H 113)          108.1173         0.284692   
    339. A(C  48,C  50,H 113)          110.4196         0.319859   
    340. A(C  48,C  50,H 112)          111.1999         0.319932   
    341. D(H  51,C   2,C   1,N   9)     38.1969         0.010047   
    342. D(C   3,C   2,C   1,N   9)    -85.5932         0.010047   
    343. D(N   6,C   2,C   1,N   9)    159.7145         0.010047   
    344. D(N   6,C   2,C   1,O   0)    -28.4901         0.010047   
    345. D(C   3,C   2,C   1,O   0)     86.2023         0.010047   
    346. D(H  51,C   2,C   1,O   0)   -150.0077         0.010047   
    347. D(C   4,C   3,C   2,N   6)    -25.2945         0.009684   
    348. D(H  53,C   3,C   2,H  51)   -149.7526         0.009684   
    349. D(H  53,C   3,C   2,C   1)    -27.5738         0.009684   
    350. D(C   4,C   3,C   2,H  51)     93.3034         0.009684   
    351. D(H  53,C   3,C   2,N   6)     91.6495         0.009684   
    352. D(H  52,C   3,C   2,H  51)    -29.8072         0.009684   
    353. D(C   4,C   3,C   2,C   1)   -144.5177         0.009684   
    354. D(H  52,C   3,C   2,C   1)     92.3716         0.009684   
    355. D(H  52,C   3,C   2,N   6)   -148.4051         0.009684   
    356. D(H  55,C   4,C   3,H  53)    163.6394         0.010554   
    357. D(H  55,C   4,C   3,H  52)     42.1495         0.010554   
    358. D(H  54,C   4,C   3,H  52)    -78.9577         0.010554   
    359. D(H  55,C   4,C   3,C   2)    -79.8698         0.010554   
    360. D(H  54,C   4,C   3,H  53)     42.5321         0.010554   
    361. D(C   5,C   4,C   3,C   2)     37.4396         0.010554   
    362. D(H  54,C   4,C   3,C   2)    159.0229         0.010554   
    363. D(C   5,C   4,C   3,H  53)    -79.0511         0.010554   
    364. D(C   5,C   4,C   3,H  52)    159.4590         0.010554   
    365. D(N   6,C   5,C   4,C   3)    -34.9814         0.010835   
    366. D(H  57,C   5,C   4,C   3)   -155.8756         0.010835   
    367. D(H  56,C   5,C   4,H  55)   -159.1127         0.010835   
    368. D(H  56,C   5,C   4,C   3)     83.3059         0.010835   
    369. D(H  57,C   5,C   4,H  54)     82.2170         0.010835   
    370. D(H  56,C   5,C   4,H  54)    -38.6015         0.010835   
    371. D(H  57,C   5,C   4,H  55)    -38.2942         0.010835   
    372. D(N   6,C   5,C   4,H  54)   -156.8887         0.010835   
    373. D(N   6,C   5,C   4,H  55)     82.6000         0.010835   
    374. D(C   5,N   6,C   2,C   3)      3.2101         0.016231   
    375. D(C   7,N   6,C   5,H  57)    -35.0075         0.015032   
    376. D(C   7,N   6,C   5,H  56)     84.3572         0.015032   
    377. D(C   7,N   6,C   5,C   4)   -157.4031         0.015032   
    378. D(C   2,N   6,C   5,H  57)    142.5623         0.015032   
    379. D(C   2,N   6,C   5,H  56)    -98.0731         0.015032   
    380. D(C   7,N   6,C   2,H  51)     61.2215         0.016231   
    381. D(C   2,N   6,C   5,C   4)     20.1666         0.015032   
    382. D(C   7,N   6,C   2,C   3)   -178.9026         0.016231   
    383. D(C   5,N   6,C   2,C   1)    122.3613         0.016231   
    384. D(C   7,N   6,C   2,C   1)    -59.7515         0.016231   
    385. D(C   5,N   6,C   2,H  51)   -116.6658         0.016231   
    386. D(C  24,C   7,N   6,C   5)     -4.1412         0.029233   
    387. D(C  24,C   7,N   6,C   2)    178.3850         0.029233   
    388. D(O   8,C   7,N   6,C   5)    174.6762         0.029233   
    389. D(O   8,C   7,N   6,C   2)     -2.7976         0.029233   
    390. D(H  58,N   9,C   1,O   0)    168.7332         0.029720   
    391. D(C  10,N   9,C   1,C   2)    175.3892         0.029720   
    392. D(H  58,N   9,C   1,C   2)    -19.4486         0.029720   
    393. D(C  10,N   9,C   1,O   0)      3.5711         0.029720   
    394. D(H  59,C  10,N   9,C   1)     47.0542         0.015699   
    395. D(C  48,C  10,N   9,H  58)      1.4843         0.015699   
    396. D(C  48,C  10,N   9,C   1)    166.6352         0.015699   
    397. D(C  11,C  10,N   9,C   1)    -67.4502         0.015699   
    398. D(H  59,C  10,N   9,H  58)   -118.0967         0.015699   
    399. D(C  11,C  10,N   9,H  58)    127.3989         0.015699   
    400. D(O  47,C  11,C  10,N   9)    160.5242         0.009214   
    401. D(N  12,C  11,C  10,H  59)   -137.2844         0.009214   
    402. D(N  12,C  11,C  10,C  48)    104.8529         0.009214   
    403. D(N  12,C  11,C  10,N   9)    -20.0498         0.009214   
    404. D(O  47,C  11,C  10,H  59)     43.2895         0.009214   
    405. D(O  47,C  11,C  10,C  48)    -74.5732         0.009214   
    406. D(H  60,N  12,C  11,O  47)   -179.6130         0.029187   
    407. D(H  60,N  12,C  11,C  10)      0.9798         0.029187   
    408. D(C  13,N  12,C  11,O  47)    -10.4385         0.029187   
    409. D(C  13,N  12,C  11,C  10)    170.1544         0.029187   
    410. D(H  61,C  13,N  12,C  11)      5.8772         0.016596   
    411. D(H  61,C  13,N  12,H  60)    174.9221         0.016596   
    412. D(C  45,C  13,N  12,H  60)    -66.3147         0.016596   
    413. D(C  45,C  13,N  12,C  11)    124.6404         0.016596   
    414. D(C  14,C  13,N  12,C  11)   -109.4294         0.016596   
    415. D(C  14,C  13,N  12,H  60)     59.6155         0.016596   
    416. D(O  44,C  14,C  13,C  45)    -31.6609         0.008976   
    417. D(O  44,C  14,C  13,N  12)   -158.5883         0.008976   
    418. D(N  15,C  14,C  13,H  61)    -93.3715         0.008976   
    419. D(N  15,C  14,C  13,C  45)    147.5810         0.008976   
    420. D(O  44,C  14,C  13,H  61)     87.3867         0.008976   
    421. D(N  15,C  14,C  13,N  12)     20.6535         0.008976   
    422. D(H  62,N  15,C  14,O  44)   -168.3894         0.030340   
    423. D(H  62,N  15,C  14,C  13)     12.3853         0.030340   
    424. D(C  16,N  15,C  14,O  44)     -5.7858         0.030340   
    425. D(C  16,N  15,C  14,C  13)    174.9889         0.030340   
    426. D(H  64,C  16,N  15,H  62)   -161.9824         0.018055   
    427. D(H  64,C  16,N  15,C  14)     34.4857         0.018055   
    428. D(H  63,C  16,N  15,H  62)    -43.7547         0.018055   
    429. D(H  63,C  16,N  15,C  14)    152.7134         0.018055   
    430. D(C  17,C  16,N  15,C  14)    -87.7007         0.018055   
    431. D(C  17,C  16,N  15,H  62)     75.8312         0.018055   
    432. D(H  65,C  17,C  16,H  64)    -53.3495         0.010254   
    433. D(H  65,C  17,C  16,H  63)   -173.1657         0.010254   
    434. D(H  65,C  17,C  16,N  15)     68.3495         0.010254   
    435. D(O  43,C  17,C  16,H  64)   -171.1426         0.010254   
    436. D(O  43,C  17,C  16,H  63)     69.0412         0.010254   
    437. D(O  43,C  17,C  16,N  15)    -49.4436         0.010254   
    438. D(C  18,C  17,C  16,H  64)     65.0538         0.010254   
    439. D(C  18,C  17,C  16,H  63)    -54.7625         0.010254   
    440. D(C  18,C  17,C  16,N  15)   -173.2473         0.010254   
    441. D(H  66,C  18,C  17,H  65)    -68.9103         0.008365   
    442. D(H  66,C  18,C  17,O  43)     47.3776         0.008365   
    443. D(H  66,C  18,C  17,C  16)    172.8875         0.008365   
    444. D(C  32,C  18,C  17,O  43)    165.5599         0.008365   
    445. D(C  32,C  18,C  17,C  16)    -68.9303         0.008365   
    446. D(C  32,C  18,C  17,H  65)     49.2719         0.008365   
    447. D(C  19,C  18,C  17,H  65)    179.9899         0.008365   
    448. D(C  19,C  18,C  17,O  43)    -63.7221         0.008365   
    449. D(C  19,C  18,C  17,C  16)     61.7878         0.008365   
    450. D(O  31,C  19,C  18,H  66)    -51.1325         0.010232   
    451. D(O  31,C  19,C  18,C  32)   -171.7019         0.010232   
    452. D(O  31,C  19,C  18,C  17)     59.5716         0.010232   
    453. D(N  20,C  19,C  18,H  66)    126.4178         0.010232   
    454. D(N  20,C  19,C  18,C  17)   -122.8782         0.010232   
    455. D(N  20,C  19,C  18,C  32)      5.8483         0.010232   
    456. D(H  67,N  20,C  19,O  31)   -168.8638         0.033974   
    457. D(H  67,N  20,C  19,C  18)     13.6780         0.033974   
    458. D(C  21,N  20,C  19,O  31)     14.8256         0.033974   
    459. D(C  21,N  20,C  19,C  18)   -162.6327         0.033974   
    460. D(H  68,C  21,N  20,H  67)   -147.7381         0.015588   
    461. D(H  68,C  21,N  20,C  19)     28.4310         0.015588   
    462. D(C  27,C  21,N  20,H  67)    -28.4732         0.015588   
    463. D(C  27,C  21,N  20,C  19)    147.6959         0.015588   
    464. D(C  22,C  21,N  20,H  67)     96.7757         0.015588   
    465. D(C  22,C  21,N  20,C  19)    -87.0552         0.015588   
    466. D(N  23,C  22,C  21,C  27)   -169.6633         0.009000   
    467. D(N  23,C  22,C  21,N  20)     66.2441         0.009000   
    468. D(O  26,C  22,C  21,H  68)    130.2365         0.009000   
    469. D(O  26,C  22,C  21,C  27)      9.3618         0.009000   
    470. D(O  26,C  22,C  21,N  20)   -114.7308         0.009000   
    471. D(N  23,C  22,C  21,H  68)    -48.7886         0.009000   
    472. D(H  69,N  23,C  22,O  26)    177.2259         0.030776   
    473. D(H  69,N  23,C  22,C  21)     -3.7676         0.030776   
    474. D(C  24,N  23,C  22,O  26)     -7.7772         0.030776   
    475. D(C  24,N  23,C  22,C  21)    171.2293         0.030776   
    476. D(H  70,C  24,N  23,H  69)    179.6996         0.016122   
    477. D(H  70,C  24,N  23,C  22)      4.8533         0.016122   
    478. D(C  25,C  24,N  23,H  69)     61.1003         0.016122   
    479. D(C  25,C  24,N  23,C  22)   -113.7460         0.016122   
    480. D(C   7,C  24,N  23,H  69)    -63.7012         0.016122   
    481. D(C   7,C  24,N  23,C  22)    121.4524         0.016122   
    482. D(H  70,C  24,C   7,O   8)   -116.0800         0.009621   
    483. D(H  70,C  24,C   7,N   6)     62.7185         0.009621   
    484. D(C  25,C  24,C   7,O   8)      3.9485         0.009621   
    485. D(C  25,C  24,C   7,N   6)   -177.2530         0.009621   
    486. D(N  23,C  24,C   7,O   8)    129.2360         0.009621   
    487. D(N  23,C  24,C   7,N   6)    -51.9655         0.009621   
    488. D(H  73,C  25,C  24,H  70)   -178.1721         0.011145   
    489. D(H  73,C  25,C  24,N  23)    -62.7667         0.011145   
    490. D(H  73,C  25,C  24,C   7)     63.0571         0.011145   
    491. D(H  72,C  25,C  24,H  70)     63.2672         0.011145   
    492. D(H  72,C  25,C  24,N  23)    178.6726         0.011145   
    493. D(H  72,C  25,C  24,C   7)    -55.5036         0.011145   
    494. D(H  71,C  25,C  24,H  70)    -57.4530         0.011145   
    495. D(H  71,C  25,C  24,N  23)     57.9524         0.011145   
    496. D(H  71,C  25,C  24,C   7)   -176.2238         0.011145   
    497. D(H  75,C  27,C  21,H  68)     72.6940         0.011138   
    498. D(H  75,C  27,C  21,C  22)   -169.0505         0.011138   
    499. D(H  75,C  27,C  21,N  20)    -43.3258         0.011138   
    500. D(H  74,C  27,C  21,H  68)   -171.1913         0.011138   
    501. D(H  74,C  27,C  21,C  22)    -52.9358         0.011138   
    502. D(H  74,C  27,C  21,N  20)     72.7890         0.011138   
    503. D(C  28,C  27,C  21,H  68)    -49.2199         0.011138   
    504. D(C  28,C  27,C  21,C  22)     69.0356         0.011138   
    505. D(C  28,C  27,C  21,N  20)   -165.2397         0.011138   
    506. D(H  76,C  28,C  27,H  75)   -177.9313         0.010305   
    507. D(H  76,C  28,C  27,H  74)     64.8985         0.010305   
    508. D(H  76,C  28,C  27,C  21)    -56.6036         0.010305   
    509. D(C  30,C  28,C  27,H  75)     65.2205         0.010305   
    510. D(C  30,C  28,C  27,H  74)    -51.9497         0.010305   
    511. D(C  30,C  28,C  27,C  21)   -173.4518         0.010305   
    512. D(C  29,C  28,C  27,H  75)    -58.5091         0.010305   
    513. D(C  29,C  28,C  27,H  74)   -175.6794         0.010305   
    514. D(C  29,C  28,C  27,C  21)     62.8185         0.010305   
    515. D(H  79,C  29,C  28,C  30)     56.4817         0.010703   
    516. D(H  79,C  29,C  28,C  27)    179.5823         0.010703   
    517. D(H  78,C  29,C  28,H  76)    178.7134         0.010703   
    518. D(H  78,C  29,C  28,C  30)    -62.7924         0.010703   
    519. D(H  78,C  29,C  28,C  27)     60.3083         0.010703   
    520. D(H  77,C  29,C  28,H  76)     58.0322         0.010703   
    521. D(H  77,C  29,C  28,C  30)    176.5264         0.010703   
    522. D(H  79,C  29,C  28,H  76)    -62.0126         0.010703   
    523. D(H  77,C  29,C  28,C  27)    -60.3729         0.010703   
    524. D(H  82,C  30,C  28,H  76)   -178.3477         0.010761   
    525. D(H  82,C  30,C  28,C  29)     62.5906         0.010761   
    526. D(H  82,C  30,C  28,C  27)    -61.9989         0.010761   
    527. D(H  81,C  30,C  28,H  76)     62.0568         0.010761   
    528. D(H  81,C  30,C  28,C  29)    -57.0050         0.010761   
    529. D(H  81,C  30,C  28,C  27)    178.4055         0.010761   
    530. D(H  80,C  30,C  28,H  76)    -58.3719         0.010761   
    531. D(H  80,C  30,C  28,C  29)   -177.4337         0.010761   
    532. D(H  80,C  30,C  28,C  27)     57.9768         0.010761   
    533. D(O  42,C  32,C  18,H  66)   -162.5989         0.011191   
    534. D(O  42,C  32,C  18,C  19)    -44.7468         0.011191   
    535. D(O  42,C  32,C  18,C  17)     82.5677         0.011191   
    536. D(C  33,C  32,C  18,H  66)     12.9080         0.011191   
    537. D(C  33,C  32,C  18,C  19)    130.7601         0.011191   
    538. D(C  33,C  32,C  18,C  17)   -101.9254         0.011191   
    539. D(H  84,C  33,C  32,O  42)   -142.2897         0.011796   
    540. D(H  84,C  33,C  32,C  18)     42.1969         0.011796   
    541. D(H  83,C  33,C  32,O  42)    -22.5666         0.011796   
    542. D(H  83,C  33,C  32,C  18)    161.9200         0.011796   
    543. D(C  34,C  33,C  32,O  42)     97.6388         0.011796   
    544. D(C  34,C  33,C  32,C  18)    -77.8746         0.011796   
    545. D(H  86,C  34,C  33,H  84)    -63.6637         0.009563   
    546. D(H  86,C  34,C  33,H  83)    175.8157         0.009563   
    547. D(H  86,C  34,C  33,C  32)     56.8070         0.009563   
    548. D(H  85,C  34,C  33,H  84)     50.7983         0.009563   
    549. D(H  85,C  34,C  33,H  83)    -69.7223         0.009563   
    550. D(H  85,C  34,C  33,C  32)    171.2690         0.009563   
    551. D(C  35,C  34,C  33,H  84)    173.8525         0.009563   
    552. D(C  35,C  34,C  33,H  83)     53.3319         0.009563   
    553. D(C  35,C  34,C  33,C  32)    -65.6768         0.009563   
    554. D(H  88,C  35,C  34,H  86)    166.0098         0.010783   
    555. D(H  88,C  35,C  34,H  85)     50.4207         0.010783   
    556. D(H  88,C  35,C  34,C  33)    -71.7748         0.010783   
    557. D(H  87,C  35,C  34,H  86)    -79.2109         0.010783   
    558. D(H  87,C  35,C  34,H  85)    165.2000         0.010783   
    559. D(H  87,C  35,C  34,C  33)     43.0045         0.010783   
    560. D(C  36,C  35,C  34,H  86)     42.6511         0.010783   
    561. D(C  36,C  35,C  34,H  85)    -72.9380         0.010783   
    562. D(C  36,C  35,C  34,C  33)    164.8666         0.010783   
    563. D(H  90,C  36,C  35,H  87)     61.8687         0.010957   
    564. D(H  90,C  36,C  35,C  34)    -60.6806         0.010957   
    565. D(H  89,C  36,C  35,H  88)    -68.4702         0.010957   
    566. D(H  89,C  36,C  35,H  87)    177.0731         0.010957   
    567. D(H  89,C  36,C  35,C  34)     54.5237         0.010957   
    568. D(C  37,C  36,C  35,H  88)     54.6192         0.010957   
    569. D(C  37,C  36,C  35,H  87)    -59.8376         0.010957   
    570. D(H  90,C  36,C  35,H  88)    176.3255         0.010957   
    571. D(C  37,C  36,C  35,C  34)    177.6131         0.010957   
    572. D(H  92,C  37,C  36,H  90)    175.4889         0.010930   
    573. D(H  92,C  37,C  36,H  89)     60.3225         0.010930   
    574. D(H  92,C  37,C  36,C  35)    -63.0437         0.010930   
    575. D(H  91,C  37,C  36,H  90)    -69.6959         0.010930   
    576. D(H  91,C  37,C  36,H  89)    175.1377         0.010930   
    577. D(H  91,C  37,C  36,C  35)     51.7716         0.010930   
    578. D(C  38,C  37,C  36,H  90)     52.3503         0.010930   
    579. D(C  38,C  37,C  36,H  89)    -62.8161         0.010930   
    580. D(C  38,C  37,C  36,C  35)    173.8177         0.010930   
    581. D(H  94,C  38,C  37,H  92)    177.3531         0.010994   
    582. D(H  94,C  38,C  37,H  91)     62.4330         0.010994   
    583. D(H  94,C  38,C  37,C  36)    -59.6628         0.010994   
    584. D(H  93,C  38,C  37,H  92)    -67.7287         0.010994   
    585. D(H  93,C  38,C  37,H  91)    177.3512         0.010994   
    586. D(H  93,C  38,C  37,C  36)     55.2554         0.010994   
    587. D(C  39,C  38,C  37,H  92)     55.3290         0.010994   
    588. D(C  39,C  38,C  37,H  91)    -59.5910         0.010994   
    589. D(C  39,C  38,C  37,C  36)    178.3132         0.010994   
    590. D(H  95,C  39,C  38,H  94)    -69.1379         0.010963   
    591. D(H  95,C  39,C  38,H  93)    175.9059         0.010963   
    592. D(H  95,C  39,C  38,C  37)     52.7613         0.010963   
    593. D(C  40,C  39,C  38,H  94)     52.9806         0.010963   
    594. D(C  40,C  39,C  38,H  93)    -61.9756         0.010963   
    595. D(C  40,C  39,C  38,C  37)    174.8798         0.010963   
    596. D(H  96,C  39,C  38,H  94)    175.9515         0.010963   
    597. D(H  96,C  39,C  38,H  93)     60.9953         0.010963   
    598. D(H  96,C  39,C  38,C  37)    -62.1494         0.010963   
    599. D(H  98,C  40,C  39,H  95)     64.6140         0.010874   
    600. D(H  98,C  40,C  39,C  38)    -57.6256         0.010874   
    601. D(H  97,C  40,C  39,H  96)    -65.7260         0.010874   
    602. D(H  97,C  40,C  39,H  95)    179.3927         0.010874   
    603. D(H  97,C  40,C  39,C  38)     57.1531         0.010874   
    604. D(C  41,C  40,C  39,H  96)     57.0912         0.010874   
    605. D(C  41,C  40,C  39,H  95)    -57.7901         0.010874   
    606. D(H  98,C  40,C  39,H  96)    179.4953         0.010874   
    607. D(C  41,C  40,C  39,C  38)    179.9703         0.010874   
    608. D(H 101,C  41,C  40,H  98)    -62.4940         0.011034   
    609. D(H 101,C  41,C  40,H  97)   -178.0510         0.011034   
    610. D(H 101,C  41,C  40,C  39)     59.4632         0.011034   
    611. D(H 100,C  41,C  40,H  98)    178.0181         0.011034   
    612. D(H 100,C  41,C  40,H  97)     62.4612         0.011034   
    613. D(H 100,C  41,C  40,C  39)    -60.0247         0.011034   
    614. D(H  99,C  41,C  40,H  98)     57.7308         0.011034   
    615. D(H  99,C  41,C  40,H  97)    -57.8262         0.011034   
    616. D(H  99,C  41,C  40,C  39)    179.6879         0.011034   
    617. D(H 102,O  43,C  17,H  65)    162.9961         0.022578   
    618. D(H 102,O  43,C  17,C  18)     45.8667         0.022578   
    619. D(H 102,O  43,C  17,C  16)    -78.6205         0.022578   
    620. D(H 104,C  45,C  13,H  61)    176.1309         0.010761   
    621. D(H 104,C  45,C  13,C  14)    -66.3763         0.010761   
    622. D(H 104,C  45,C  13,N  12)     60.1171         0.010761   
    623. D(H 103,C  45,C  13,H  61)    -70.3287         0.010761   
    624. D(H 103,C  45,C  13,C  14)     47.1640         0.010761   
    625. D(H 103,C  45,C  13,N  12)    173.6574         0.010761   
    626. D(C  46,C  45,C  13,H  61)     52.9056         0.010761   
    627. D(C  46,C  45,C  13,C  14)    170.3984         0.010761   
    628. D(C  46,C  45,C  13,N  12)    -63.1082         0.010761   
    629. D(H 107,C  46,C  45,H 104)    -62.9041         0.011281   
    630. D(H 107,C  46,C  45,H 103)    179.8553         0.011281   
    631. D(H 107,C  46,C  45,C  13)     59.2994         0.011281   
    632. D(H 106,C  46,C  45,H 104)    177.7665         0.011281   
    633. D(H 106,C  46,C  45,H 103)     60.5260         0.011281   
    634. D(H 106,C  46,C  45,C  13)    -60.0300         0.011281   
    635. D(H 105,C  46,C  45,H 104)     57.2783         0.011281   
    636. D(H 105,C  46,C  45,H 103)    -59.9623         0.011281   
    637. D(H 105,C  46,C  45,C  13)    179.4818         0.011281   
    638. D(H 108,C  48,C  10,H  59)     70.6170         0.009660   
    639. D(H 108,C  48,C  10,C  11)   -174.6364         0.009660   
    640. D(H 108,C  48,C  10,N   9)    -48.5794         0.009660   
    641. D(C  50,C  48,C  10,H  59)    -45.8469         0.009660   
    642. D(C  50,C  48,C  10,C  11)     68.8997         0.009660   
    643. D(C  50,C  48,C  10,N   9)   -165.0433         0.009660   
    644. D(C  49,C  48,C  10,H  59)   -171.6420         0.009660   
    645. D(C  49,C  48,C  10,C  11)    -56.8954         0.009660   
    646. D(C  49,C  48,C  10,N   9)     69.1616         0.009660   
    647. D(H 111,C  49,C  48,C  50)     61.2318         0.010615   
    648. D(H 111,C  49,C  48,C  10)   -173.0941         0.010615   
    649. D(H 110,C  49,C  48,H 108)   -176.6276         0.010615   
    650. D(H 110,C  49,C  48,C  50)    -58.1158         0.010615   
    651. D(H 110,C  49,C  48,C  10)     67.5583         0.010615   
    652. D(H 109,C  49,C  48,H 108)     62.9997         0.010615   
    653. D(H 109,C  49,C  48,C  50)   -178.4885         0.010615   
    654. D(H 111,C  49,C  48,H 108)    -57.2799         0.010615   
    655. D(H 109,C  49,C  48,C  10)    -52.8144         0.010615   
    656. D(H 114,C  50,C  48,H 108)   -175.6499         0.010824   
    657. D(H 114,C  50,C  48,C  49)     65.4509         0.010824   
    658. D(H 114,C  50,C  48,C  10)    -60.7676         0.010824   
    659. D(H 113,C  50,C  48,H 108)     63.6546         0.010824   
    660. D(H 113,C  50,C  48,C  49)    -55.2445         0.010824   
    661. D(H 113,C  50,C  48,C  10)    178.5369         0.010824   
    662. D(H 112,C  50,C  48,H 108)    -56.3651         0.010824   
    663. D(H 112,C  50,C  48,C  49)   -175.2643         0.010824   
    664. D(H 112,C  50,C  48,C  10)     58.5171         0.010824   
    -----------------------------------------------------------------

Number of atoms                         .... 115
Number of degrees of freedom            .... 664

         *************************************************************
         *                GEOMETRY OPTIMIZATION CYCLE   1            *
         *************************************************************
---------------------------------
CARTESIAN COORDINATES (ANGSTROEM)
---------------------------------
  O     -0.035096    0.993288   -3.483113
  C      0.693340    1.915134   -3.859013
  C      1.328486    2.915130   -2.881978
  C      2.670119    2.370953   -2.326895
  C      2.693472    2.883076   -0.876961
  C      1.224620    2.761644   -0.451393
  N      0.504089    3.078192   -1.690843
  C     -0.776632    3.532924   -1.864033
  O     -1.187921    3.840279   -2.987183
  N      1.134960    2.016138   -5.149767
  C      0.698477    1.068916   -6.174703
  C      1.240569   -0.360079   -5.926242
  N      2.333970   -0.442118   -5.104469
  C      2.856032   -1.698506   -4.589508
  C      2.601090   -1.852477   -3.065982
  N      1.596625   -1.064836   -2.581414
  C      1.131788   -1.133650   -1.216634
  C      0.026435   -2.195342   -1.046017
  C     -0.589537   -2.142533    0.400035
  C     -1.237650   -0.772962    0.632434
  N     -0.812235   -0.035687    1.681664
  C     -1.582523    1.085931    2.219886
  C     -1.279686    2.422741    1.491995
  N     -1.681402    2.443609    0.189152
  C     -1.656256    3.667079   -0.604681
  C     -3.068573    4.119485   -0.980899
  O     -0.740363    3.376900    2.062692
  C     -1.350376    1.194576    3.728336
  C     -2.355738    2.088903    4.480185
  C     -3.792024    1.551873    4.393564
  C     -1.917923    2.243184    5.943385
  O     -2.164784   -0.402230   -0.121365
  C      0.389295   -2.608842    1.465164
  C      0.191500   -4.012227    1.992947
  C     -0.989401   -3.990250    3.000424
  C     -0.706081   -3.169990    4.266292
  C     -1.962871   -2.839876    5.078626
  C     -1.665263   -2.070843    6.370712
  C     -2.919308   -1.603928    7.116529
  C     -2.622856   -0.870734    8.429040
  C     -3.870341   -0.296089    9.111184
  C     -3.566446    0.434448   10.422375
  O      1.244910   -1.855332    1.935474
  O     -0.993784   -2.077890   -2.002249
  O      3.270606   -2.616447   -2.367941
  C      4.340747   -1.904769   -4.920432
  C      4.613373   -1.996343   -6.421359
  O      0.709504   -1.334969   -6.454912
  C      1.066713    1.596401   -7.585917
  C      2.583573    1.586823   -7.834035
  C      0.312708    0.830815   -8.680992
  H      1.457434    3.895911   -3.395140
  H      3.536963    2.701073   -2.931532
  H      2.644545    1.260319   -2.333959
  H      3.374419    2.303759   -0.223625
  H      3.011322    3.946389   -0.846995
  H      0.996149    1.725169   -0.114963
  H      0.938933    3.442883    0.373369
  H      1.586892    2.884723   -5.445480
  H     -0.403845    0.954711   -6.103888
  H      2.691645    0.432078   -4.712873
  H      2.252359   -2.484407   -5.097430
  H      0.955549   -0.582470   -3.227191
  H      0.721682   -0.134747   -0.956078
  H      1.985746   -1.360205   -0.549164
  H      0.489547   -3.196089   -1.189862
  H     -1.444298   -2.848086    0.350196
  H      0.064445   -0.335345    2.133061
  H     -2.645728    0.847414    2.002392
  H     -2.082749    1.572883   -0.200265
  H     -1.182728    4.422644    0.060650
  H     -3.671101    4.277936   -0.065604
  H     -3.030041    5.060052   -1.561381
  H     -3.566167    3.361316   -1.617454
  H     -0.325109    1.588288    3.891777
  H     -1.388871    0.168077    4.155369
  H     -2.318897    3.092781    4.005148
  H     -4.162485    1.486250    3.350079
  H     -3.862683    0.535905    4.839798
  H     -4.494879    2.206971    4.947352
  H     -0.898548    2.673605    6.017950
  H     -2.608327    2.906209    6.503510
  H     -1.907927    1.260115    6.460421
  H      1.124691   -4.338941    2.492696
  H     -0.039533   -4.708908    1.160285
  H     -1.243739   -5.036961    3.271265
  H     -1.893293   -3.586940    2.490912
  H     -0.200185   -2.218596    3.993825
  H      0.026457   -3.714658    4.902352
  H     -2.518369   -3.774244    5.320090
  H     -2.653219   -2.237598    4.443628
  H     -1.034086   -1.184434    6.130742
  H     -1.042493   -2.703373    7.042868
  H     -3.581039   -2.476263    7.319383
  H     -3.507940   -0.933825    6.448811
  H     -1.901839   -0.044052    8.233663
  H     -2.098503   -1.560666    9.128836
  H     -4.597155   -1.118481    9.297559
  H     -4.379214    0.397946    8.404903
  H     -4.485835    0.843156   10.888865
  H     -3.089587   -0.243740   11.161202
  H     -2.869336    1.282997   10.257352
  H     -1.573560   -1.335029   -1.705330
  H      4.663879   -2.822429   -4.389765
  H      4.927141   -1.074055   -4.466222
  H      5.693291   -2.135710   -6.628771
  H      4.065207   -2.845840   -6.878118
  H      4.284936   -1.075304   -6.946022
  H      0.713051    2.653943   -7.604577
  H      3.151388    2.113087   -7.038157
  H      2.968183    0.547283   -7.883743
  H      2.826385    2.081095   -8.795850
  H     -0.784209    0.912114   -8.544121
  H      0.566370    1.236487   -9.681244
  H      0.569576   -0.246056   -8.655538

----------------------------
CARTESIAN COORDINATES (A.U.)
----------------------------
  NO LB      ZA    FRAG     MASS         X           Y           Z
   0 O     8.0000    0    15.999   -0.066322    1.877043   -6.582130
   1 C     6.0000    0    12.011    1.310223    3.619079   -7.292478
   2 C     6.0000    0    12.011    2.510474    5.508798   -5.446150
   3 C     6.0000    0    12.011    5.045794    4.480452   -4.397194
   4 C     6.0000    0    12.011    5.089925    5.448224   -1.657216
   5 C     6.0000    0    12.011    2.314196    5.218750   -0.853009
   6 N     7.0000    0    14.007    0.952590    5.816940   -3.195230
   7 C     6.0000    0    12.011   -1.467622    6.676259   -3.522511
   8 O     8.0000    0    15.999   -2.244846    7.257075   -5.644957
   9 N     7.0000    0    14.007    2.144764    3.809948   -9.731650
  10 C     6.0000    0    12.011    1.319930    2.019958  -11.668497
  11 C     6.0000    0    12.011    2.344335   -0.680451  -11.198973
  12 N     7.0000    0    14.007    4.410565   -0.835481   -9.646048
  13 C     6.0000    0    12.011    5.397119   -3.209710   -8.672914
  14 C     6.0000    0    12.011    4.915347   -3.500675   -5.793866
  15 N     7.0000    0    14.007    3.017183   -2.012248   -4.878165
  16 C     6.0000    0    12.011    2.138770   -2.142288   -2.299104
  17 C     6.0000    0    12.011    0.049956   -4.148596   -1.976685
  18 C     6.0000    0    12.011   -1.114064   -4.048801    0.755957
  19 C     6.0000    0    12.011   -2.338820   -1.460687    1.195128
  20 N     7.0000    0    14.007   -1.534902   -0.067438    3.177884
  21 C     6.0000    0    12.011   -2.990536    2.052112    4.194977
  22 C     6.0000    0    12.011   -2.418257    4.578316    2.819462
  23 N     7.0000    0    14.007   -3.177389    4.617751    0.357446
  24 C     6.0000    0    12.011   -3.129869    6.929776   -1.142681
  25 C     6.0000    0    12.011   -5.798762    7.784699   -1.853630
  26 O     8.0000    0    15.999   -1.399083    6.381415    3.897923
  27 C     6.0000    0    12.011   -2.551840    2.257421    7.045534
  28 C     6.0000    0    12.011   -4.451700    3.947454    8.466323
  29 C     6.0000    0    12.011   -7.165888    2.932616    8.302633
  30 C     6.0000    0    12.011   -3.624349    4.239004   11.231371
  31 O     8.0000    0    15.999   -4.090848   -0.760105   -0.229346
  32 C     6.0000    0    12.011    0.735661   -4.929997    2.768759
  33 C     6.0000    0    12.011    0.361883   -7.582010    3.766125
  34 C     6.0000    0    12.011   -1.869697   -7.540479    5.669979
  35 C     6.0000    0    12.011   -1.334301   -5.990413    8.062123
  36 C     6.0000    0    12.011   -3.709288   -5.366588    9.597212
  37 C     6.0000    0    12.011   -3.146891   -3.913326   12.038901
  38 C     6.0000    0    12.011   -5.516692   -3.030985   13.448291
  39 C     6.0000    0    12.011   -4.956479   -1.645449   15.928577
  40 C     6.0000    0    12.011   -7.313885   -0.559527   17.217643
  41 C     6.0000    0    12.011   -6.739607    0.820987   19.695434
  42 O     8.0000    0    15.999    2.352539   -3.506068    3.657516
  43 O     8.0000    0    15.999   -1.877980   -3.926643   -3.783703
  44 O     8.0000    0    15.999    6.180549   -4.944369   -4.474761
  45 C     6.0000    0    12.011    8.202823   -3.599492   -9.298269
  46 C     6.0000    0    12.011    8.718011   -3.772541  -12.134610
  47 O     8.0000    0    15.999    1.340768   -2.522725  -12.198016
  48 C     6.0000    0    12.011    2.015796    3.016760  -14.335306
  49 C     6.0000    0    12.011    4.882246    2.998661  -14.804180
  50 C     6.0000    0    12.011    0.590932    1.570014  -16.404698
  51 H     1.0000    0     1.008    2.754151    7.362205   -6.415884
  52 H     1.0000    0     1.008    6.683891    5.104287   -5.539792
  53 H     1.0000    0     1.008    4.997466    2.381657   -4.410544
  54 H     1.0000    0     1.008    6.376728    4.353473   -0.422589
  55 H     1.0000    0     1.008    5.690574    7.457594   -1.600588
  56 H     1.0000    0     1.008    1.882449    3.260097   -0.217248
  57 H     1.0000    0     1.008    1.774325    6.506106    0.705566
  58 H     1.0000    0     1.008    2.998791    5.451337  -10.290465
  59 H     1.0000    0     1.008   -0.763157    1.804143  -11.534677
  60 H     1.0000    0     1.008    5.086473    0.816509   -8.906039
  61 H     1.0000    0     1.008    4.256343   -4.694849   -9.632746
  62 H     1.0000    0     1.008    1.805725   -1.100708   -6.098506
  63 H     1.0000    0     1.008    1.363780   -0.254635   -1.806725
  64 H     1.0000    0     1.008    3.752515   -2.570414   -1.037770
  65 H     1.0000    0     1.008    0.925110   -6.039733   -2.248513
  66 H     1.0000    0     1.008   -2.729328   -5.382102    0.661775
  67 H     1.0000    0     1.008    0.121783   -0.633711    4.030902
  68 H     1.0000    0     1.008   -4.999702    1.601380    3.783973
  69 H     1.0000    0     1.008   -3.935825    2.972317   -0.378447
  70 H     1.0000    0     1.008   -2.235032    8.357586    0.114612
  71 H     1.0000    0     1.008   -6.937376    8.084127   -0.123973
  72 H     1.0000    0     1.008   -5.725948    9.562113   -2.950582
  73 H     1.0000    0     1.008   -6.739080    6.351966   -3.056545
  74 H     1.0000    0     1.008   -0.614366    3.001430    7.354393
  75 H     1.0000    0     1.008   -2.624585    0.317620    7.852509
  76 H     1.0000    0     1.008   -4.382080    5.844508    7.568632
  77 H     1.0000    0     1.008   -7.865956    2.808605    6.330732
  78 H     1.0000    0     1.008   -7.299412    1.012714    9.145892
  79 H     1.0000    0     1.008   -8.494089    4.170571    9.349141
  80 H     1.0000    0     1.008   -1.698009    5.052381   11.372277
  81 H     1.0000    0     1.008   -4.929023    5.491938   12.289852
  82 H     1.0000    0     1.008   -3.605460    2.381273   12.208427
  83 H     1.0000    0     1.008    2.125359   -8.199410    4.710513
  84 H     1.0000    0     1.008   -0.074707   -8.898547    2.192622
  85 H     1.0000    0     1.008   -2.350327   -9.518476    6.181794
  86 H     1.0000    0     1.008   -3.577804   -6.778334    4.707142
  87 H     1.0000    0     1.008   -0.378295   -4.192538    7.547236
  88 H     1.0000    0     1.008    0.049997   -7.019686    9.264103
  89 H     1.0000    0     1.008   -4.759028   -7.132287   10.053513
  90 H     1.0000    0     1.008   -5.013857   -4.228447    8.397240
  91 H     1.0000    0     1.008   -1.954139   -2.238256   11.585424
  92 H     1.0000    0     1.008   -1.970027   -5.108634   13.309092
  93 H     1.0000    0     1.008   -6.767183   -4.679459   13.831630
  94 H     1.0000    0     1.008   -6.629045   -1.764674   12.186486
  95 H     1.0000    0     1.008   -3.593955   -0.083247   15.559368
  96 H     1.0000    0     1.008   -3.965595   -2.949231   17.251000
  97 H     1.0000    0     1.008   -8.687363   -2.113622   17.569839
  98 H     1.0000    0     1.008   -8.275515    0.752010   15.882965
  99 H     1.0000    0     1.008   -8.477000    1.593333   20.576973
 100 H     1.0000    0     1.008   -5.838474   -0.460602   21.091616
 101 H     1.0000    0     1.008   -5.422258    2.424513   19.383587
 102 H     1.0000    0     1.008   -2.973597   -2.522838   -3.222607
 103 H     1.0000    0     1.008    8.813455   -5.333617   -8.295453
 104 H     1.0000    0     1.008    9.310948   -2.029670   -8.439936
 105 H     1.0000    0     1.008   10.758760   -4.035908  -12.526562
 106 H     1.0000    0     1.008    7.682128   -5.377857  -12.997759
 107 H     1.0000    0     1.008    8.097355   -2.032030  -13.126079
 108 H     1.0000    0     1.008    1.347471    5.015226  -14.370569
 109 H     1.0000    0     1.008    5.955260    3.993157  -13.300190
 110 H     1.0000    0     1.008    5.609052    1.034215  -14.898115
 111 H     1.0000    0     1.008    5.341094    3.932700  -16.621747
 112 H     1.0000    0     1.008   -1.481940    1.723646  -16.146049
 113 H     1.0000    0     1.008    1.070285    2.336622  -18.294899
 114 H     1.0000    0     1.008    1.076342   -0.464979  -16.356597

--------------------------------
INTERNAL COORDINATES (ANGSTROEM)
--------------------------------
 O      0   0   0     0.000000000000     0.00000000     0.00000000
 C      1   0   0     1.233580380952     0.00000000     0.00000000
 C      2   1   0     1.535577709381   122.48040186     0.00000000
 C      3   2   1     1.550556829899   110.92319278    86.20225758
 C      4   3   2     1.537895424076   103.51996416   215.48225632
 C      5   4   3     1.534073445522   102.74690352    37.43964989
 N      3   2   1     1.457746065379   111.02823576   331.50994995
 C      7   3   2     1.370044400584   117.54806393   300.24852852
 O      8   7   3     1.234945877110   120.59078310   357.20243819
 N      2   1   3     1.367945696208   122.23141428   171.18752538
 C     10   2   1     1.462272115602   121.14285530     3.57105823
 C     11  10   2     1.548426204871   112.38567895   292.54982364
 N     12  11  10     1.370243632862   115.52127396   339.95023366
 C     13  12  11     1.454731586206   123.39251219   170.15437998
 C     14  13  12     1.552364854284   111.97110267   250.57059105
 N     15  14  13     1.365333461633   114.32538492    20.65351076
 C     16  15  14     1.443410235271   123.02424712   174.98893658
 C     17  16  15     1.542110894707   111.60870704   272.29933023
 C     18  17  16     1.572665827294   111.06070669   186.75269422
 C     19  18  17     1.532900945735   109.57275122    61.78780007
 N     20  19  18     1.351086650213   118.17433654   237.12177259
 C     21  20  19     1.463234229391   122.56014681   197.36733908
 C     22  21  20     1.551965165773   112.64532860   272.94484403
 N     23  22  21     1.363528275344   113.81801746    66.24406019
 C     24  23  22     1.458658140798   121.85409564   171.22926348
 C     25  24  23     1.529984239825   111.46456564   246.25397261
 O     23  22  21     1.235712227898   122.25331660   245.26916869
 C     22  21  20     1.530070727185   109.70577871   147.69591357
 C     28  22  21     1.541379743798   115.03181706   194.76031974
 C     29  28  22     1.535845929276   112.30752188    62.81853957
 C     29  28  22     1.535069839145   109.70802046   186.54816519
 O     20  19  18     1.251092288172   119.12581436    59.57156208
 C     19  18  17     1.519886637585   112.44692985   291.06972992
 C     33  19  18     1.512338554003   116.42584497   258.07461400
 C     34  33  19     1.552424153060   108.22993621   282.12541949
 C     35  34  33     1.534769423794   113.72889542   294.32319106
 C     36  35  34     1.532442932620   113.63758915   164.86657239
 C     37  36  35     1.532798035930   113.30894897   177.61309545
 C     38  37  36     1.531953249672   113.85131670   173.81770805
 C     39  38  37     1.532364949301   113.85711360   178.31319328
 C     40  39  38     1.533544057001   113.76051004   174.87976981
 C     41  40  39     1.531423361986   113.46414790   179.97032651
 O     33  19  18     1.233306992780   121.77498776    82.56766088
 O     18  17  16     1.403219125985   112.83740882   310.55635393
 O     15  14  13     1.232542859719   121.87650786   201.41166744
 C     14  13  12     1.535067665536   112.75775324   124.64041245
 C     46  14  13     1.528231430743   113.09876520   296.89180070
 O     12  11  10     1.229606509889   120.76375203   160.52415071
 C     11  10   2     1.550923784484   110.27908093   166.63515951
 C     49  11  10     1.537048485560   112.27645950    69.16160199
 C     49  11  10     1.534221434674   111.28853868   194.95667836
 H      3   2   1     1.114402788618   109.14780137   209.99233720
 H      4   3   2     1.107241235154   112.16491577    92.37163634
 H      4   3   2     1.110951070082   109.18753131   332.42622428
 H      5   4   3     1.107314643893   113.04114975   159.02290889
 H      5   4   3     1.110207458776   110.40976133   280.13016530
 H      6   5   4     1.113401740274   110.73141867    83.30586041
 H      6   5   4     1.107220417286   113.89056388   204.12436466
 H     10   2   1     1.022804539646   118.56486414   168.73318555
 H     11  10   2     1.110482448577   108.55560481    47.05417243
 H     13  12  11     1.022495393731   117.23414628     0.97981149
 H     14  13  12     1.113573613043   104.68565230     5.87720208
 H     16  15  14     1.029894792174   120.37109585    12.38530233
 H     17  16  15     1.110803624349   107.32621620   152.71344716
 H     17  16  15     1.107287200474   109.35083091    34.48570270
 H     18  17  16     1.112050996444   107.86325246    68.34945853
 H     19  18  17     1.109461248497   103.83325320   172.88751195
 H     21  20  19     1.030593315022   116.70002854    13.67795548
 H     22  21  20     1.111125222771   105.49645152    28.43104006
 H     24  23  22     1.034837996412   117.44806791   356.23235920
 H     25  24  23     1.112551929570   104.56683483     4.85327249
 H     26  25  24     1.107209431619   109.96070036    57.95240001
 H     26  25  24     1.105943301545   110.38832705   178.67260806
 H     26  25  24     1.107981863738   110.70130041   297.23331934
 H     28  22  21     1.110357896410   108.08278230    72.78897327
 H     28  22  21     1.112447186278   107.91904394   316.67419530
 H     29  28  22     1.111210409462   107.09888416   303.39637274
 H     30  29  28     1.109237504371   112.71023241   299.62708034
 H     30  29  28     1.111894309871   110.87257468    60.30830586
 H     30  29  28     1.108980918507   110.97630714   179.58233728
 H     31  29  28     1.109029935276   111.42262130    57.97684672
 H     31  29  28     1.109052612199   111.34233711   178.40551457
 H     31  29  28     1.110788239930   110.93404421   298.00108751
 H     34  33  19     1.107852113244   108.71855801   161.91997910
 H     34  33  19     1.109985277503   110.35651771    42.19688599
 H     35  34  33     1.110696451040   108.60831756   171.26898072
 H     35  34  33     1.113229634475   109.01055698    56.80697431
 H     36  35  34     1.111449308916   109.83531461    43.00454830
 H     36  35  34     1.112586550986   109.35573991   288.22523175
 H     37  36  35     1.113519756215   110.07939536    54.52374969
 H     37  36  35     1.114693326634   108.80412871   299.31939682
 H     38  37  36     1.114311757747   109.12010525    51.77155039
 H     38  37  36     1.113431481416   109.41780989   296.95631525
 H     39  38  37     1.113555298007   109.65616383    55.25541661
 H     39  38  37     1.114169377560   108.90624383   300.33722927
 H     40  39  38     1.114199318178   109.26884293    52.76128782
 H     40  39  38     1.113852139596   109.44058045   297.85064769
 H     41  40  39     1.113248065615   109.19268011    57.15308521
 H     41  40  39     1.113314818506   108.85815998   302.37440269
 H     42  41  40     1.109022594335   111.80405324   179.68794701
 H     42  41  40     1.110495124213   111.31657364   299.97527818
 H     42  41  40     1.110509530594   111.21329337    59.46316435
 H     44  18  17     0.988000065128   106.54622036   281.37953294
 H     46  14  13     1.108206470677   106.86106561   173.65742952
 H     46  14  13     1.113665345918   108.73073972    60.11706399
 H     47  46  14     1.108451972847   111.41438279   179.48182137
 H     47  46  14     1.109396030392   111.22922775   299.97003425
 H     47  46  14     1.109709157841   111.21161952    59.29941878
 H     49  11  10     1.115267174011   105.21486490   311.42060030
 H     50  49  11     1.110309914626   112.70714909   307.18557132
 H     50  49  11     1.109521826181   110.80333904    67.55829796
 H     50  49  11     1.108309918471   110.70241147   186.90594301
 H     51  49  11     1.108408085827   111.19991987    58.51712332
 H     51  49  11     1.108790689276   110.41957007   178.53690822
 H     51  49  11     1.107375937983   110.78450769   299.23236459

---------------------------
INTERNAL COORDINATES (A.U.)
---------------------------
 O      0   0   0     0.000000000000     0.00000000     0.00000000
 C      1   0   0     2.331129084177     0.00000000     0.00000000
 C      2   1   0     2.901821328085   122.48040186     0.00000000
 C      3   2   1     2.930127763591   110.92319278    86.20225758
 C      4   3   2     2.906201174115   103.51996416   215.48225632
 C      5   4   3     2.898978681358   102.74690352    37.43964989
 N      3   2   1     2.754740836367   111.02823576   331.50994995
 C      7   3   2     2.589008708416   117.54806393   300.24852852
 O      8   7   3     2.333709497953   120.59078310   357.20243819
 N      2   1   3     2.585042731910   122.23141428   171.18752538
 C     10   2   1     2.763293831757   121.14285530     3.57105823
 C     11  10   2     2.926101465794   112.38567895   292.54982364
 N     12  11  10     2.589385202858   115.52127396   339.95023366
 C     13  12  11     2.749044296294   123.39251219   170.15437998
 C     14  13  12     2.933544434520   111.97110267   250.57059105
 N     15  14  13     2.580106323965   114.32538492    20.65351076
 C     16  15  14     2.727650043561   123.02424712   174.98893658
 C     17  16  15     2.914167259132   111.60870704   272.29933023
 C     18  17  16     2.971907713763   111.06070669   186.75269422
 C     19  18  17     2.896762977869   109.57275122    61.78780007
 N     20  19  18     2.553183752099   118.17433654   237.12177259
 C     21  20  19     2.765111963328   122.56014681   197.36733908
 C     22  21  20     2.932789132697   112.64532860   272.94484403
 N     23  22  21     2.576695016257   113.81801746    66.24406019
 C     24  23  22     2.756464409124   121.85409564   171.22926348
 C     25  24  23     2.891251202486   111.46456564   246.25397261
 O     23  22  21     2.335157691064   122.25331660   245.26916869
 C     22  21  20     2.891414639910   109.70577871   147.69591357
 C     28  22  21     2.912785584153   115.03181706   194.76031974
 C     29  28  22     2.902328190230   112.30752188    62.81853957
 C     29  28  22     2.900861592426   109.70802046   186.54816519
 O     20  19  18     2.364221792906   119.12581436    59.57156208
 C     19  18  17     2.872169499643   112.44692985   291.06972992
 C     33  19  18     2.857905688837   116.42584497   258.07461400
 C     34  33  19     2.933656492968   108.22993621   282.12541949
 C     35  34  33     2.900293889687   113.72889542   294.32319106
 C     36  35  34     2.895897458515   113.63758915   164.86657239
 C     37  36  35     2.896568506519   113.30894897   177.61309545
 C     38  37  36     2.894972091852   113.85131670   173.81770805
 C     39  38  37     2.895750091399   113.85711360   178.31319328
 C     40  39  38     2.897978282034   113.76051004   174.87976981
 C     41  40  39     2.893970749243   113.46414790   179.97032651
 O     33  19  18     2.330612455404   121.77498776    82.56766088
 O     18  17  16     2.651699853992   112.83740882   310.55635393
 O     15  14  13     2.329168453189   121.87650786   201.41166744
 C     14  13  12     2.900857484901   112.75775324   124.64041245
 C     46  14  13     2.887938873355   113.09876520   296.89180070
 O     12  11  10     2.323619556176   120.76375203   160.52415071
 C     11  10   2     2.930821207259   110.27908093   166.63515951
 C     49  11  10     2.904600692267   112.27645950    69.16160199
 C     49  11  10     2.899258340326   111.28853868   194.95667836
 H      3   2   1     2.105916073366   109.14780137   209.99233720
 H      4   3   2     2.092382698626   112.16491577    92.37163634
 H      4   3   2     2.099393270642   109.18753131   332.42622428
 H      5   4   3     2.092521421038   113.04114975   159.02290889
 H      5   4   3     2.097988048923   110.40976133   280.13016530
 H      6   5   4     2.104024366150   110.73141867    83.30586041
 H      6   5   4     2.092343358557   113.89056388   204.12436466
 H     10   2   1     1.932820468463   118.56486414   168.73318555
[...]
freq.      84.55  E(vib)   ...       0.48 
freq.      88.20  E(vib)   ...       0.48 
freq.      94.18  E(vib)   ...       0.47 
freq.      95.47  E(vib)   ...       0.47 
freq.      98.25  E(vib)   ...       0.46 
freq.     109.11  E(vib)   ...       0.45 
freq.     114.42  E(vib)   ...       0.44 
freq.     125.81  E(vib)   ...       0.43 
freq.     129.52  E(vib)   ...       0.43 
freq.     132.73  E(vib)   ...       0.42 
freq.     134.82  E(vib)   ...       0.42 
freq.     138.17  E(vib)   ...       0.42 
freq.     147.15  E(vib)   ...       0.41 
freq.     148.68  E(vib)   ...       0.41 
freq.     153.46  E(vib)   ...       0.40 
freq.     157.89  E(vib)   ...       0.40 
freq.     159.92  E(vib)   ...       0.39 
freq.     169.56  E(vib)   ...       0.38 
freq.     171.51  E(vib)   ...       0.38 
freq.     176.90  E(vib)   ...       0.38 
freq.     181.24  E(vib)   ...       0.37 
freq.     198.27  E(vib)   ...       0.35 
freq.     210.56  E(vib)   ...       0.34 
freq.     214.00  E(vib)   ...       0.34 
freq.     216.72  E(vib)   ...       0.34 
freq.     218.08  E(vib)   ...       0.33 
freq.     224.10  E(vib)   ...       0.33 
freq.     229.75  E(vib)   ...       0.32 
freq.     235.38  E(vib)   ...       0.32 
freq.     237.98  E(vib)   ...       0.32 
freq.     241.01  E(vib)   ...       0.31 
freq.     241.07  E(vib)   ...       0.31 
freq.     245.30  E(vib)   ...       0.31 
freq.     247.60  E(vib)   ...       0.31 
freq.     259.41  E(vib)   ...       0.30 
freq.     262.35  E(vib)   ...       0.29 
freq.     266.81  E(vib)   ...       0.29 
freq.     276.62  E(vib)   ...       0.28 
freq.     284.01  E(vib)   ...       0.28 
freq.     285.92  E(vib)   ...       0.27 
freq.     302.91  E(vib)   ...       0.26 
freq.     307.02  E(vib)   ...       0.26 
freq.     318.89  E(vib)   ...       0.25 
freq.     324.42  E(vib)   ...       0.25 
freq.     327.05  E(vib)   ...       0.24 
freq.     330.99  E(vib)   ...       0.24 
freq.     338.12  E(vib)   ...       0.24 
freq.     342.58  E(vib)   ...       0.23 
freq.     358.04  E(vib)   ...       0.22 
freq.     372.54  E(vib)   ...       0.21 
freq.     379.33  E(vib)   ...       0.21 
freq.     385.59  E(vib)   ...       0.20 
freq.     391.77  E(vib)   ...       0.20 
freq.     403.87  E(vib)   ...       0.19 
freq.     407.77  E(vib)   ...       0.19 
freq.     417.78  E(vib)   ...       0.18 
freq.     432.11  E(vib)   ...       0.18 
freq.     439.97  E(vib)   ...       0.17 
freq.     443.81  E(vib)   ...       0.17 
freq.     454.34  E(vib)   ...       0.16 
freq.     459.75  E(vib)   ...       0.16 
freq.     482.10  E(vib)   ...       0.15 
freq.     484.46  E(vib)   ...       0.15 
freq.     495.13  E(vib)   ...       0.14 
freq.     507.57  E(vib)   ...       0.14 
freq.     519.55  E(vib)   ...       0.13 
freq.     528.93  E(vib)   ...       0.13 
freq.     538.46  E(vib)   ...       0.12 
freq.     553.33  E(vib)   ...       0.12 
freq.     560.58  E(vib)   ...       0.11 
freq.     561.39  E(vib)   ...       0.11 
freq.     598.86  E(vib)   ...       0.10 
freq.     600.71  E(vib)   ...       0.10 
freq.     609.64  E(vib)   ...       0.10 
freq.     630.76  E(vib)   ...       0.09 
freq.     634.92  E(vib)   ...       0.09 
freq.     642.72  E(vib)   ...       0.09 
freq.     670.42  E(vib)   ...       0.08 
freq.     684.55  E(vib)   ...       0.07 
freq.     687.33  E(vib)   ...       0.07 
freq.     702.39  E(vib)   ...       0.07 
freq.     707.22  E(vib)   ...       0.07 
freq.     711.78  E(vib)   ...       0.07 
freq.     713.87  E(vib)   ...       0.07 
freq.     723.09  E(vib)   ...       0.07 
freq.     731.36  E(vib)   ...       0.06 
freq.     733.18  E(vib)   ...       0.06 
freq.     746.04  E(vib)   ...       0.06 
freq.     760.94  E(vib)   ...       0.06 
freq.     770.30  E(vib)   ...       0.05 
freq.     771.55  E(vib)   ...       0.05 
freq.     772.15  E(vib)   ...       0.05 
freq.     782.63  E(vib)   ...       0.05 
freq.     791.93  E(vib)   ...       0.05 
freq.     810.41  E(vib)   ...       0.05 
freq.     819.07  E(vib)   ...       0.05 
freq.     831.04  E(vib)   ...       0.04 
freq.     839.95  E(vib)   ...       0.04 
freq.     852.76  E(vib)   ...       0.04 
freq.     855.31  E(vib)   ...       0.04 
freq.     865.87  E(vib)   ...       0.04 
freq.     866.66  E(vib)   ...       0.04 
freq.     878.23  E(vib)   ...       0.04 
freq.     879.17  E(vib)   ...       0.04 
freq.     891.09  E(vib)   ...       0.04 
freq.     896.82  E(vib)   ...       0.03 
freq.     900.77  E(vib)   ...       0.03 
freq.     901.74  E(vib)   ...       0.03 
freq.     903.55  E(vib)   ...       0.03 
freq.     906.36  E(vib)   ...       0.03 
freq.     912.89  E(vib)   ...       0.03 
freq.     917.75  E(vib)   ...       0.03 
freq.     922.27  E(vib)   ...       0.03 
freq.     929.62  E(vib)   ...       0.03 
freq.     935.41  E(vib)   ...       0.03 
freq.     940.38  E(vib)   ...       0.03 
freq.     943.57  E(vib)   ...       0.03 
freq.     947.78  E(vib)   ...       0.03 
freq.     951.28  E(vib)   ...       0.03 
freq.     963.38  E(vib)   ...       0.03 
freq.     964.83  E(vib)   ...       0.03 
freq.     976.22  E(vib)   ...       0.03 
freq.     986.42  E(vib)   ...       0.02 
freq.     986.67  E(vib)   ...       0.02 
freq.     989.36  E(vib)   ...       0.02 
freq.     992.26  E(vib)   ...       0.02 
freq.    1011.42  E(vib)   ...       0.02 
freq.    1017.63  E(vib)   ...       0.02 
freq.    1019.60  E(vib)   ...       0.02 
freq.    1035.99  E(vib)   ...       0.02 
freq.    1037.24  E(vib)   ...       0.02 
freq.    1039.86  E(vib)   ...       0.02 
freq.    1050.02  E(vib)   ...       0.02 
freq.    1051.14  E(vib)   ...       0.02 
freq.    1052.73  E(vib)   ...       0.02 
freq.    1054.07  E(vib)   ...       0.02 
freq.    1059.59  E(vib)   ...       0.02 
freq.    1061.02  E(vib)   ...       0.02 
freq.    1065.53  E(vib)   ...       0.02 
freq.    1076.94  E(vib)   ...       0.02 
freq.    1080.42  E(vib)   ...       0.02 
freq.    1081.64  E(vib)   ...       0.02 
freq.    1082.23  E(vib)   ...       0.02 
freq.    1096.80  E(vib)   ...       0.02 
freq.    1104.75  E(vib)   ...       0.02 
freq.    1114.70  E(vib)   ...       0.01 
freq.    1121.52  E(vib)   ...       0.01 
freq.    1129.35  E(vib)   ...       0.01 
freq.    1130.39  E(vib)   ...       0.01 
freq.    1136.01  E(vib)   ...       0.01 
freq.    1140.21  E(vib)   ...       0.01 
freq.    1142.82  E(vib)   ...       0.01 
freq.    1143.57  E(vib)   ...       0.01 
freq.    1157.89  E(vib)   ...       0.01 
freq.    1165.66  E(vib)   ...       0.01 
freq.    1166.99  E(vib)   ...       0.01 
freq.    1172.36  E(vib)   ...       0.01 
freq.    1174.05  E(vib)   ...       0.01 
freq.    1176.13  E(vib)   ...       0.01 
freq.    1182.71  E(vib)   ...       0.01 
freq.    1190.49  E(vib)   ...       0.01 
freq.    1193.10  E(vib)   ...       0.01 
freq.    1202.02  E(vib)   ...       0.01 
freq.    1207.17  E(vib)   ...       0.01 
freq.    1208.91  E(vib)   ...       0.01 
freq.    1218.35  E(vib)   ...       0.01 
freq.    1227.11  E(vib)   ...       0.01 
freq.    1231.35  E(vib)   ...       0.01 
freq.    1234.10  E(vib)   ...       0.01 
freq.    1237.36  E(vib)   ...       0.01 
freq.    1241.27  E(vib)   ...       0.01 
freq.    1245.21  E(vib)   ...       0.01 
freq.    1250.85  E(vib)   ...       0.01 
freq.    1251.67  E(vib)   ...       0.01 
freq.    1255.69  E(vib)   ...       0.01 
freq.    1256.04  E(vib)   ...       0.01 
freq.    1267.82  E(vib)   ...       0.01 
freq.    1273.86  E(vib)   ...       0.01 
freq.    1277.41  E(vib)   ...       0.01 
freq.    1283.18  E(vib)   ...       0.01 
freq.    1284.16  E(vib)   ...       0.01 
freq.    1286.63  E(vib)   ...       0.01 
freq.    1289.44  E(vib)   ...       0.01 
freq.    1292.05  E(vib)   ...       0.01 
freq.    1294.54  E(vib)   ...       0.01 
freq.    1295.59  E(vib)   ...       0.01 
freq.    1297.71  E(vib)   ...       0.01 
freq.    1299.51  E(vib)   ...       0.01 
freq.    1300.05  E(vib)   ...       0.01 
freq.    1308.78  E(vib)   ...       0.01 
freq.    1311.24  E(vib)   ...       0.01 
freq.    1312.31  E(vib)   ...       0.01 
freq.    1318.10  E(vib)   ...       0.01 
freq.    1319.20  E(vib)   ...       0.01 
freq.    1320.69  E(vib)   ...       0.01 
freq.    1324.96  E(vib)   ...       0.01 
freq.    1326.49  E(vib)   ...       0.01 
freq.    1328.86  E(vib)   ...       0.01 
freq.    1330.51  E(vib)   ...       0.01 
freq.    1332.98  E(vib)   ...       0.01 
freq.    1337.07  E(vib)   ...       0.01 
freq.    1345.29  E(vib)   ...       0.01 
freq.    1347.46  E(vib)   ...       0.01 
freq.    1350.57  E(vib)   ...       0.01 
freq.    1351.91  E(vib)   ...       0.01 
freq.    1354.81  E(vib)   ...       0.01 
freq.    1357.53  E(vib)   ...       0.01 
freq.    1358.29  E(vib)   ...       0.01 
freq.    1361.15  E(vib)   ...       0.01 
freq.    1363.25  E(vib)   ...       0.01 
freq.    1364.47  E(vib)   ...       0.01 
freq.    1371.15  E(vib)   ...       0.01 
freq.    1377.99  E(vib)   ...       0.01 
freq.    1393.66  E(vib)   ...       0.00 
freq.    1401.79  E(vib)   ...       0.00 
freq.    1418.09  E(vib)   ...       0.00 
freq.    1421.73  E(vib)   ...       0.00 
freq.    1429.07  E(vib)   ...       0.00 
freq.    1432.84  E(vib)   ...       0.00 
freq.    1433.19  E(vib)   ...       0.00 
freq.    1435.54  E(vib)   ...       0.00 
freq.    1435.92  E(vib)   ...       0.00 
freq.    1436.41  E(vib)   ...       0.00 
freq.    1436.97  E(vib)   ...       0.00 
freq.    1438.84  E(vib)   ...       0.00 
freq.    1439.24  E(vib)   ...       0.00 
freq.    1439.76  E(vib)   ...       0.00 
freq.    1442.84  E(vib)   ...       0.00 
freq.    1443.63  E(vib)   ...       0.00 
freq.    1444.69  E(vib)   ...       0.00 
freq.    1446.37  E(vib)   ...       0.00 
freq.    1447.27  E(vib)   ...       0.00 
freq.    1451.04  E(vib)   ...       0.00 
freq.    1451.19  E(vib)   ...       0.00 
freq.    1451.71  E(vib)   ...       0.00 
freq.    1453.25  E(vib)   ...       0.00 
freq.    1455.66  E(vib)   ...       0.00 
freq.    1456.44  E(vib)   ...       0.00 
freq.    1460.12  E(vib)   ...       0.00 
freq.    1460.39  E(vib)   ...       0.00 
freq.    1460.71  E(vib)   ...       0.00 
freq.    1462.00  E(vib)   ...       0.00 
freq.    1465.29  E(vib)   ...       0.00 
freq.    1473.13  E(vib)   ...       0.00 
freq.    1477.51  E(vib)   ...       0.00 
freq.    1501.33  E(vib)   ...       0.00 
freq.    1502.97  E(vib)   ...       0.00 
freq.    1506.12  E(vib)   ...       0.00 
freq.    1616.80  E(vib)   ...       0.00 
freq.    1650.91  E(vib)   ...       0.00 
freq.    1673.95  E(vib)   ...       0.00 
freq.    1676.46  E(vib)   ...       0.00 
freq.    1679.16  E(vib)   ...       0.00 
freq.    1683.02  E(vib)   ...       0.00 
freq.    1692.55  E(vib)   ...       0.00 
freq.    2921.34  E(vib)   ...       0.00 
freq.    2924.39  E(vib)   ...       0.00 
freq.    2926.78  E(vib)   ...       0.00 
freq.    2929.50  E(vib)   ...       0.00 
freq.    2936.87  E(vib)   ...       0.00 
freq.    2936.96  E(vib)   ...       0.00 
freq.    2943.87  E(vib)   ...       0.00 
freq.    2943.93  E(vib)   ...       0.00 
freq.    2945.40  E(vib)   ...       0.00 
freq.    2945.68  E(vib)   ...       0.00 
freq.    2946.68  E(vib)   ...       0.00 
freq.    2949.02  E(vib)   ...       0.00 
freq.    2950.16  E(vib)   ...       0.00 
freq.    2952.14  E(vib)   ...       0.00 
freq.    2957.19  E(vib)   ...       0.00 
freq.    2957.69  E(vib)   ...       0.00 
freq.    2957.98  E(vib)   ...       0.00 
freq.    2960.46  E(vib)   ...       0.00 
freq.    2960.49  E(vib)   ...       0.00 
freq.    2965.84  E(vib)   ...       0.00 
freq.    2967.36  E(vib)   ...       0.00 
freq.    2969.48  E(vib)   ...       0.00 
freq.    2971.13  E(vib)   ...       0.00 
freq.    2971.62  E(vib)   ...       0.00 
freq.    2971.67  E(vib)   ...       0.00 
freq.    2971.69  E(vib)   ...       0.00 
freq.    2974.27  E(vib)   ...       0.00 
freq.    2975.47  E(vib)   ...       0.00 
freq.    2979.58  E(vib)   ...       0.00 
freq.    2982.57  E(vib)   ...       0.00 
freq.    2983.11  E(vib)   ...       0.00 
freq.    2983.62  E(vib)   ...       0.00 
freq.    2984.20  E(vib)   ...       0.00 
freq.    2987.90  E(vib)   ...       0.00 
freq.    2989.41  E(vib)   ...       0.00 
freq.    2989.77  E(vib)   ...       0.00 
freq.    3004.00  E(vib)   ...       0.00 
freq.    3005.66  E(vib)   ...       0.00 
freq.    3018.09  E(vib)   ...       0.00 
freq.    3018.34  E(vib)   ...       0.00 
freq.    3021.14  E(vib)   ...       0.00 
freq.    3022.82  E(vib)   ...       0.00 
freq.    3026.93  E(vib)   ...       0.00 
freq.    3028.76  E(vib)   ...       0.00 
freq.    3029.92  E(vib)   ...       0.00 
freq.    3033.76  E(vib)   ...       0.00 
freq.    3035.38  E(vib)   ...       0.00 
freq.    3036.12  E(vib)   ...       0.00 
freq.    3037.43  E(vib)   ...       0.00 
freq.    3037.62  E(vib)   ...       0.00 
freq.    3038.77  E(vib)   ...       0.00 
freq.    3039.33  E(vib)   ...       0.00 
freq.    3039.99  E(vib)   ...       0.00 
freq.    3045.72  E(vib)   ...       0.00 
freq.    3047.08  E(vib)   ...       0.00 
freq.    3055.46  E(vib)   ...       0.00 
freq.    3057.24  E(vib)   ...       0.00 
freq.    3067.82  E(vib)   ...       0.00 
freq.    3355.06  E(vib)   ...       0.00 
freq.    3391.27  E(vib)   ...       0.00 
freq.    3408.67  E(vib)   ...       0.00 
freq.    3484.00  E(vib)   ...       0.00 
freq.    3491.58  E(vib)   ...       0.00 
freq.    3497.32  E(vib)   ...       0.00 

------------
INNER ENERGY
------------

The inner energy is: U= E(el) + E(ZPE) + E(vib) + E(rot) + E(trans)
    E(el)   - is the total energy from the electronic structure calculation
              = E(kin-el) + E(nuc-el) + E(el-el) + E(nuc-nuc)
    E(ZPE)  - the the zero temperature vibrational energy from the frequency calculation
    E(vib)  - the the finite temperature correction to E(ZPE) due to population
              of excited vibrational states
    E(rot)  - is the rotational thermal energy
    E(trans)- is the translational thermal energy

Summary of contributions to the inner energy U:
Electronic energy                ...  -2380.08224869 Eh
Zero point energy                ...      0.97734742 Eh     613.29 kcal/mol
Thermal vibrational correction   ...      0.05574337 Eh      34.98 kcal/mol
Thermal rotational correction    ...      0.00141627 Eh       0.89 kcal/mol
Thermal translational correction ...      0.00141627 Eh       0.89 kcal/mol
-----------------------------------------------------------------------
Total thermal energy                  -2379.04632536 Eh


Summary of corrections to the electronic energy:
(perhaps to be used in another calculation)
Total thermal correction                  0.05857591 Eh      36.76 kcal/mol
Non-thermal (ZPE) correction              0.97734742 Eh     613.29 kcal/mol
-----------------------------------------------------------------------
Total correction                          1.03592333 Eh     650.05 kcal/mol


--------
ENTHALPY
--------

The enthalpy is H = U + kB*T
                kB is Boltzmann's constant
Total free energy                 ...  -2379.04632536 Eh 
Thermal Enthalpy correction       ...      0.00094421 Eh       0.59 kcal/mol
-----------------------------------------------------------------------
Total Enthalpy                    ...  -2379.04538115 Eh


Note: Only C1 symmetry has been detected, increase convergence thresholds 
      if your molecule has a higher symmetry. Symmetry factor of 1.0 is   
      used for the rotational entropy correction. 
 

Note: Rotational entropy computed according to Herzberg 
Infrared and Raman Spectra, Chapter V,1, Van Nostrand Reinhold, 1945 
Point Group:  C1, Symmetry Number:   1  
Rotational constants in cm-1:     0.003364     0.000940     0.000807 

Vibrational entropy computed according to the QRRHO of S. Grimme
Chem.Eur.J. 2012 18 9955


-------
ENTROPY
-------

The entropy contributions are T*S = T*(S(el)+S(vib)+S(rot)+S(trans))
     S(el)   - electronic entropy
     S(vib)  - vibrational entropy
     S(rot)  - rotational entropy
     S(trans)- translational entropy
The entropies will be listed as mutliplied by the temperature to get
units of energy

Electronic entropy                ...      0.00000000 Eh      0.00 kcal/mol
Vibrational entropy               ...      0.10263468 Eh     64.40 kcal/mol
Rotational entropy                ...      0.01885175 Eh     11.83 kcal/mol
Translational entropy             ...      0.02166895 Eh     13.60 kcal/mol
-----------------------------------------------------------------------
Final entropy term                ...      0.14315538 Eh     89.83 kcal/mol

In case the symmetry of your molecule has not been determined correctly
or in case you have a reason to use a different symmetry number we print 
out the resulting rotational entropy values for sn=1,12 :
 --------------------------------------------------------
|  sn= 1 | S(rot)=       0.01885175 Eh     11.83 kcal/mol|
|  sn= 2 | S(rot)=       0.01819729 Eh     11.42 kcal/mol|
|  sn= 3 | S(rot)=       0.01781446 Eh     11.18 kcal/mol|
|  sn= 4 | S(rot)=       0.01754283 Eh     11.01 kcal/mol|
|  sn= 5 | S(rot)=       0.01733215 Eh     10.88 kcal/mol|
|  sn= 6 | S(rot)=       0.01716000 Eh     10.77 kcal/mol|
|  sn= 7 | S(rot)=       0.01701446 Eh     10.68 kcal/mol|
|  sn= 8 | S(rot)=       0.01688838 Eh     10.60 kcal/mol|
|  sn= 9 | S(rot)=       0.01677717 Eh     10.53 kcal/mol|
|  sn=10 | S(rot)=       0.01667769 Eh     10.47 kcal/mol|
|  sn=11 | S(rot)=       0.01658770 Eh     10.41 kcal/mol|
|  sn=12 | S(rot)=       0.01650555 Eh     10.36 kcal/mol|
 --------------------------------------------------------


-------------------
GIBBS FREE ENERGY
-------------------

The Gibbs free energy is G = H - T*S

Total enthalpy                    ...  -2379.04538115 Eh 
Total entropy correction          ...     -0.14315538 Eh    -89.83 kcal/mol
-----------------------------------------------------------------------
Final Gibbs free energy         ...  -2379.18853653 Eh

For completeness - the Gibbs free energy minus the electronic energy
G-E(el)                           ...      0.89371216 Eh    560.81 kcal/mol

--------------------------------------------------------------------------
WARNING: No preset parameters were found for the device that Open MPI
detected:

  Local host:            eu-g1-010-1
  Device name:           mlx5_0
  Device vendor ID:      0x02c9
  Device vendor part ID: 4123

Default device parameters will be used, which may result in lower
performance.  You can edit any of the files specified by the
btl_openib_device_param_files MCA parameter to set values for your
device.

NOTE: You can turn off this warning by setting the MCA parameter
      btl_openib_warn_no_device_params_found to 0.
--------------------------------------------------------------------------
--------------------------------------------------------------------------
WARNING: There was an error initializing an OpenFabrics device.

  Local host:   eu-g1-010-1
  Local device: mlx5_0
--------------------------------------------------------------------------

Timings for individual modules:

Sum of individual times         ...    36778.505 sec (= 612.975 min)
GTO integral calculation        ...      101.692 sec (=   1.695 min)   0.3 %
SCF iterations                  ...     3229.311 sec (=  53.822 min)   8.8 %
SCF Gradient evaluation         ...      982.695 sec (=  16.378 min)   2.7 %
Geometry relaxation             ...       42.438 sec (=   0.707 min)   0.1 %
Analytical frequency calculation...    32422.368 sec (= 540.373 min)  88.2 %
                             ****ORCA TERMINATED NORMALLY****
TOTAL RUN TIME: 0 days 10 hours 13 minutes 58 seconds 533 msec
