
                                 *****************
                                 * O   R   C   A *
                                 *****************

           --- An Ab Initio, DFT and Semiempirical electronic structure package ---

                  #######################################################
                  #                        -***-                        #
                  #          Department of theory and spectroscopy      #
                  #               Directorship: Frank Neese             #
                  #        Max Planck Institute fuer Kohlenforschung    #
                  #                Kaiser Wilhelm Platz 1               #
                  #                 D-45470 Muelheim/Ruhr               #
                  #                      Germany                        #
                  #                                                     #
                  #                  All rights reserved                #
                  #                        -***-                        #
                  #######################################################


                         Program Version 4.2.0 -  RELEASE  -


 With contributions from (in alphabetic order):
   Daniel Aravena         : Magnetic Suceptibility
   Michael Atanasov       : Ab Initio Ligand Field Theory (pilot matlab implementation)
   Alexander A. Auer      : GIAO ZORA, VPT2
   Ute Becker             : Parallelization
   Giovanni Bistoni       : ED, misc. LED, open-shell LED, HFLED
   Martin Brehm           : Molecular dynamics
   Dmytro Bykov           : SCF Hessian
   Vijay G. Chilkuri      : MRCI spin determinant printing, contributions to CSF-ICE
   Dipayan Datta          : RHF DLPNO-CCSD density
   Achintya Kumar Dutta   : EOM-CC, STEOM-CC
   Dmitry Ganyushin       : Spin-Orbit,Spin-Spin,Magnetic field MRCI
   Miquel Garcia          : C-PCM Hessian, Gaussian charge scheme
   Yang Guo               : DLPNO-NEVPT2, CIM, IAO-localization
   Andreas Hansen         : Spin unrestricted coupled pair/coupled cluster methods
   Benjamin Helmich-Paris : CASSCF linear response (MC-RPA)
   Lee Huntington         : MR-EOM, pCC
   Robert Izsak           : Overlap fitted RIJCOSX, COSX-SCS-MP3, EOM
   Christian Kollmar      : KDIIS, OOCD, Brueckner-CCSD(T), CCSD density
   Simone Kossmann        : Meta GGA functionals, TD-DFT gradient, OOMP2, MP2 Hessian
   Martin Krupicka        : AUTO-CI
   Lucas Lang             : DCDCAS
   Dagmar Lenk            : GEPOL surface, SMD
   Dimitrios Liakos       : Extrapolation schemes; Compound Job, initial MDCI parallelization
   Dimitrios Manganas     : Further ROCIS development; embedding schemes
   Dimitrios Pantazis     : SARC Basis sets
   Taras Petrenko         : DFT Hessian,TD-DFT gradient, ASA, ECA, R-Raman, ABS, FL, XAS/XES, NRVS
   Peter Pinski           : DLPNO-MP2, DLPNO-MP2 Gradient
   Christoph Reimann      : Effective Core Potentials
   Marius Retegan         : Local ZFS, SOC
   Christoph Riplinger    : Optimizer, TS searches, QM/MM, DLPNO-CCSD(T), (RO)-DLPNO pert. Triples
   Tobias Risthaus        : Range-separated hybrids, TD-DFT gradient, RPA, STAB
   Michael Roemelt        : Original ROCIS implementation
   Masaaki Saitow         : Open-shell DLPNO-CCSD energy and density
   Barbara Sandhoefer     : DKH picture change effects
   Avijit Sen             : IP-ROCIS
   Kantharuban Sivalingam : CASSCF convergence, NEVPT2, FIC-MRCI
   Bernardo de Souza      : ESD, SOC TD-DFT
   Georgi Stoychev        : AutoAux, RI-MP2 NMR
   Willem Van den Heuvel  : Paramagnetic NMR
   Boris Wezisla          : Elementary symmetry handling
   Frank Wennmohs         : Technical directorship


 We gratefully acknowledge several colleagues who have allowed us to
 interface, adapt or use parts of their codes:
   Stefan Grimme, W. Hujo, H. Kruse,             : VdW corrections, initial TS optimization,
                  C. Bannwarth                     DFT functionals, gCP, sTDA/sTD-DF
   Ed Valeev, F. Pavosevic, A. Kumar             : LibInt (2-el integral package), F12 methods
   Garnet Chan, S. Sharma, J. Yang, R. Olivares  : DMRG
   Ulf Ekstrom                                   : XCFun DFT Library
   Mihaly Kallay                                 : mrcc  (arbitrary order and MRCC methods)
   Andreas Klamt, Michael Diedenhofen            : otool_cosmo (COSMO solvation model)
   Jiri Pittner, Ondrej Demel                    : Mk-CCSD
   Frank Weinhold                                : gennbo (NPA and NBO analysis)
   Christopher J. Cramer and Donald G. Truhlar   : smd solvation model
   Lars Goerigk                                  : TD-DFT with DH, B97 family of functionals
   V. Asgeirsson, H. Jonsson                     : NEB implementation
   FAccTs GmbH                                   : IRC, NEB, NEB-TS, Multilevel, MM, QM/MM, CI optimization
   S Lehtola, MJT Oliveira, MAL Marques          : LibXC Library


 Your calculation uses the libint2 library for the computation of 2-el integrals
 For citations please refer to: http://libint.valeyev.net

 Your ORCA version has been built with support for libXC version: 4.2.3
 For citations please refer to: https://tddft.org/programs/libxc/

 This ORCA versions uses:
   CBLAS   interface :  Fast vector & matrix operations
   LAPACKE interface :  Fast linear algebra routines
   SCALAPACK package :  Parallel linear algebra routines




***************************************
The coordinates will be read from file: 2_old.xyz
***************************************


Your calculation utilizes the atom-pairwise dispersion correction
with the Becke-Johnson damping scheme (D3BJ)
Cite in your paper:
S.Grimme, S.Ehrlich, L.Goerigk, J Comput Chem, (2011), 32, 1456–1465 
S.Grimme, J.Antony, S.Ehrlich and H.Krieg, J.Chem.Phys., 132, (2010), 154104 
   

----- Orbital basis set information -----
Your calculation utilizes the basis: def2-TZVP
   F. Weigend and R. Ahlrichs, Phys. Chem. Chem. Phys. 7, 3297 (2005).

----- AuxJ basis set information -----
Your calculation utilizes the auxiliary basis: def2/J
   F. Weigend, Phys. Chem. Chem. Phys. 8, 1057 (2006).

================================================================================
                                        WARNINGS
                       Please study these warnings very carefully!
================================================================================


WARNING: Geometry Optimization
  ===> : Switching off AutoStart
         For restart on a previous wavefunction, please use MOREAD

INFO   : the flag for use of LIBINT has been found!

================================================================================
                                       INPUT FILE
================================================================================
NAME = 2.inp
|  1> !RI BP86 def2-tzvp def2/J D3BJ TIGHTSCF TightOpt Grid5 FinalGrid6 freq
|  2> %maxcore 4000
|  3> %pal nprocs 24
|  4> end
|  5> * xyzfile 0 1 2_old.xyz 
|  6> 
|  7>                          ****END OF INPUT****
================================================================================

                       *****************************
                       * Geometry Optimization Run *
                       *****************************

Geometry optimization settings:
Update method            Update   .... BFGS
Choice of coordinates    CoordSys .... Z-matrix Internals
Initial Hessian          InHess   .... Almoef's Model

Convergence Tolerances:
Energy Change            TolE     ....  1.0000e-06 Eh
Max. Gradient            TolMAXG  ....  1.0000e-04 Eh/bohr
RMS Gradient             TolRMSG  ....  3.0000e-05 Eh/bohr
Max. Displacement        TolMAXD  ....  1.0000e-03 bohr
RMS Displacement         TolRMSD  ....  6.0000e-04 bohr
Strict Convergence                ....  False
------------------------------------------------------------------------------
                        ORCA OPTIMIZATION COORDINATE SETUP
------------------------------------------------------------------------------

The optimization will be done in new redundant internal coordinates
Making redundant internal coordinates   ...  (new redundants) done
Evaluating the initial hessian          ...  (Almloef) done
Evaluating the coordinates              ...  done
Calculating the B-matrix                .... done
Calculating the G-matrix                .... done
Diagonalizing the G-matrix              .... done
Small eigenvalue found = 2.804e-04
Small eigenvalue found = 1.472e-03
Small eigenvalue found = 2.212e-03
Small eigenvalue found = 2.922e-03
Small eigenvalue found = 3.665e-03
Small eigenvalue found = 5.640e-03
Small eigenvalue found = 6.711e-03
Small eigenvalue found = 7.691e-03
Small eigenvalue found = 9.455e-03
Small eigenvalue found = 9.973e-03
Small eigenvalue found = 1.252e-02
Small eigenvalue found = 1.442e-02
Small eigenvalue found = 1.518e-02
Small eigenvalue found = 1.963e-02
Small eigenvalue found = 2.027e-02
Small eigenvalue found = 2.168e-02
Small eigenvalue found = 2.356e-02
Small eigenvalue found = 2.647e-02
Small eigenvalue found = 2.797e-02
The first mode is                       ....  326
The number of degrees of freedom        ....  339

    -----------------------------------------------------------------
                    Redundant Internal Coordinates


    -----------------------------------------------------------------
         Definition                    Initial Value    Approx d2E/dq
    -----------------------------------------------------------------
      1. B(C   1,O   0)                  1.2314         1.002052   
      2. B(C   2,C   1)                  1.5332         0.369171   
      3. B(C   3,C   2)                  1.5462         0.352028   
      4. B(C   4,C   3)                  1.5371         0.363910   
      5. B(C   5,C   4)                  1.5347         0.367121   
      6. B(N   6,C   2)                  1.4785         0.404324   
      7. B(N   6,C   5)                  1.4749         0.409667   
      8. B(C   7,N   6)                  1.3642         0.615231   
      9. B(O   8,C   7)                  1.2469         0.946616   
     10. B(N   9,C   1)                  1.3644         0.614747   
     11. B(C  10,N   9)                  1.4554         0.440010   
     12. B(C  11,C  10)                  1.5432         0.355829   
     13. B(N  12,C  11)                  1.3814         0.577505   
     14. B(C  13,N  12)                  1.4556         0.439728   
     15. B(C  14,C  13)                  1.5331         0.369394   
     16. B(N  15,C  14)                  1.3577         0.630073   
     17. B(C  16,N  15)                  1.4627         0.428416   
     18. B(C  17,C  16)                  1.5527         0.343637   
     19. B(C  18,C  17)                  1.5730         0.318960   
     20. B(C  19,C  18)                  1.5458         0.352475   
     21. B(N  20,C  19)                  1.3734         0.594867   
     22. B(C  21,N  20)                  1.4527         0.444468   
     23. B(C  22,C  21)                  1.5478         0.349969   
     24. B(N  23,C  22)                  1.3675         0.607916   
     25. B(C  24,N  23)                  1.4427         0.461081   
     26. B(C  24,C   7)                  1.5348         0.367082   
     27. B(C  25,C  24)                  1.5462         0.351951   
     28. B(O  26,C  22)                  1.2314         1.001975   
     29. B(C  27,C  21)                  1.5341         0.368029   
     30. B(C  28,C  27)                  1.5398         0.360348   
     31. B(C  29,C  28)                  1.5354         0.366300   
     32. B(C  30,C  28)                  1.5356         0.365931   
     33. B(O  31,C  19)                  1.2331         0.995934   
     34. B(C  32,C  18)                  1.5323         0.370457   
     35. B(C  33,C  32)                  1.5079         0.405142   
     36. B(C  34,C  33)                  1.5408         0.358996   
     37. B(C  35,C  34)                  1.5331         0.369303   
     38. B(C  36,C  35)                  1.5311         0.372115   
     39. B(C  37,C  36)                  1.5319         0.370962   
     40. B(C  38,C  37)                  1.5349         0.366855   
     41. B(C  39,C  38)                  1.5324         0.370231   
     42. B(C  40,C  39)                  1.5331         0.369282   
     43. B(C  41,C  40)                  1.5316         0.371376   
     44. B(O  42,C  32)                  1.2354         0.987545   
     45. B(O  43,C  17)                  1.4033         0.532935   
     46. B(O  44,C  14)                  1.2438         0.957449   
     47. B(C  45,C  13)                  1.5418         0.357701   
     48. B(C  46,C  45)                  1.5275         0.377068   
     49. B(O  47,C  11)                  1.2305         1.005305   
     50. B(C  48,C  10)                  1.5521         0.344504   
     51. B(C  49,C  48)                  1.5355         0.366155   
     52. B(C  50,C  48)                  1.5351         0.366616   
     53. B(H  51,C   2)                  1.1046         0.341305   
     54. B(H  52,C   3)                  1.1094         0.335351   
     55. B(H  53,C   3)                  1.1061         0.339474   
     56. B(H  54,C   4)                  1.1104         0.334100   
     57. B(H  55,C   4)                  1.1068         0.338585   
     58. B(H  56,C   5)                  1.1082         0.336845   
     59. B(H  57,C   5)                  1.1121         0.331998   
     60. B(H  58,N   9)                  1.0222         0.413710   
     61. B(H  59,C  10)                  1.1133         0.330592   
     62. B(H  60,N  12)                  1.0322         0.398775   
     63. B(H  61,C  13)                  1.1141         0.329590   
     64. B(H  62,N  15)                  1.0240         0.411023   
     65. B(H  63,C  16)                  1.1109         0.333505   
     66. B(H  64,C  16)                  1.1077         0.337379   
     67. B(H  65,C  17)                  1.1054         0.340323   
     68. B(H  66,C  18)                  1.1183         0.324508   
     69. B(H  67,N  20)                  1.0360         0.393248   
     70. B(H  68,C  21)                  1.1106         0.333854   
     71. B(H  69,N  23)                  1.0250         0.409561   
     72. B(H  70,C  24)                  1.1131         0.330762   
     73. B(H  71,C  25)                  1.1064         0.339009   
     74. B(H  72,C  25)                  1.1070         0.338301   
     75. B(H  73,C  25)                  1.1078         0.337270   
     76. B(H  74,C  27)                  1.1102         0.334395   
     77. B(H  75,C  27)                  1.1122         0.331910   
     78. B(H  76,C  28)                  1.1134         0.330441   
     79. B(H  77,O  44)                  4.2020         0.000003   
     80. B(H  77,C  29)                  1.1096         0.335022   
     81. B(H  78,C  29)                  1.1114         0.332920   
     82. B(H  79,C  29)                  1.1092         0.335562   
     83. B(H  80,C  30)                  1.1089         0.335961   
     84. B(H  81,C  30)                  1.1092         0.335615   
     85. B(H  82,C  30)                  1.1117         0.332480   
     86. B(H  83,C  33)                  1.1108         0.333593   
     87. B(H  84,C  33)                  1.1084         0.336601   
     88. B(H  85,H  73)                  2.6767         0.000203   
     89. B(H  85,C  34)                  1.1111         0.333234   
     90. B(H  86,C  34)                  1.1117         0.332559   
     91. B(H  87,C  35)                  1.1131         0.330808   
     92. B(H  88,H  60)                  4.0477         0.000001   
     93. B(H  88,C  35)                  1.1128         0.331144   
     94. B(H  89,C  36)                  1.1149         0.328667   
     95. B(H  90,C  36)                  1.1141         0.329627   
     96. B(H  91,C  37)                  1.1128         0.331156   
     97. B(H  92,C  37)                  1.1130         0.330921   
     98. B(H  93,H  51)                  2.0650         0.001918   
     99. B(H  93,C  38)                  1.1163         0.326996   
    100. B(H  94,C  38)                  1.1135         0.330272   
    101. B(H  95,C  39)                  1.1137         0.330050   
    102. B(H  96,C  39)                  1.1130         0.330873   
    103. B(H  97,C  40)                  1.1144         0.329191   
    104. B(H  98,C  40)                  1.1134         0.330481   
    105. B(H  99,C  41)                  1.1092         0.335544   
    106. B(H 100,C  41)                  1.1106         0.333908   
    107. B(H 101,C  41)                  1.1103         0.334250   
    108. B(H 102,O  43)                  0.9886         0.468034   
    109. B(H 103,C  45)                  1.1079         0.337208   
    110. B(H 104,N  23)                  2.4264         0.002379   
    111. B(H 104,C  45)                  1.1104         0.334084   
    112. B(H 105,C  46)                  1.1081         0.336943   
    113. B(H 106,C  46)                  1.1085         0.336387   
    114. B(H 107,C  46)                  1.1112         0.333154   
    115. B(H 108,C  48)                  1.1130         0.330908   
    116. B(H 109,C  49)                  1.1112         0.333133   
    117. B(H 110,C  49)                  1.1078         0.337323   
    118. B(H 111,C  49)                  1.1086         0.336359   
    119. B(H 112,C  50)                  1.1098         0.334853   
    120. B(H 113,C  50)                  1.1091         0.335639   
    121. B(H 114,C  50)                  1.1058         0.339790   
    122. A(O   0,C   1,N   9)          123.5347         0.466642   
    123. A(C   2,C   1,N   9)          115.8732         0.392749   
    124. A(O   0,C   1,C   2)          120.5694         0.428267   
    125. A(C   1,C   2,H  51)          104.4450         0.320858   
    126. A(N   6,C   2,H  51)          109.2655         0.323733   
    127. A(C   1,C   2,N   6)          115.3971         0.365267   
    128. A(C   1,C   2,C   3)          112.6889         0.358962   
    129. A(C   3,C   2,H  51)          111.9253         0.318376   
    130. A(C   3,C   2,N   6)          103.2980         0.362309   
    131. A(C   4,C   3,H  53)          114.0799         0.319825   
    132. A(C   4,C   3,H  52)          110.4971         0.319187   
    133. A(C   2,C   3,C   4)          103.7137         0.358086   
    134. A(C   2,C   3,H  53)          111.8650         0.318097   
    135. A(C   2,C   3,H  52)          109.2630         0.317464   
    136. A(H  52,C   3,H  53)          107.3742         0.284979   
    137. A(H  54,C   4,H  55)          107.6504         0.284697   
    138. A(C   3,C   4,H  55)          113.4844         0.319688   
    139. A(C   3,C   4,C   5)          102.6805         0.360655   
    140. A(C   3,C   4,H  54)          110.3775         0.318992   
    141. A(C   5,C   4,H  55)          112.3884         0.320147   
    142. A(C   5,C   4,H  54)          110.2373         0.319450   
    143. A(H  56,C   5,H  57)          107.6828         0.284190   
    144. A(C   4,C   5,N   6)          102.5674         0.365740   
    145. A(C   4,C   5,H  56)          113.8361         0.319877   
    146. A(N   6,C   5,H  57)          111.1279         0.322963   
    147. A(N   6,C   5,H  56)          110.9036         0.323732   
    148. A(C   4,C   5,H  57)          110.7330         0.319121   
    149. A(C   5,N   6,C   7)          127.4474         0.397485   
    150. A(C   2,N   6,C   7)          119.7929         0.396570   
    151. A(C   2,N   6,C   5)          112.2571         0.369525   
    152. A(O   8,C   7,C  24)          120.8107         0.423495   
    153. A(N   6,C   7,O   8)          121.0308         0.461875   
    154. A(N   6,C   7,C  24)          118.0508         0.392413   
    155. A(C   1,N   9,C  10)          122.3228         0.402459   
    156. A(C  10,N   9,H  58)          119.2723         0.336007   
    157. A(C   1,N   9,H  58)          118.0789         0.355428   
    158. A(C  48,C  10,H  59)          107.8539         0.315615   
    159. A(C  11,C  10,H  59)          107.9913         0.317280   
    160. A(N   9,C  10,C  11)          109.8094         0.368270   
    161. A(N   9,C  10,C  48)          111.7573         0.366233   
    162. A(N   9,C  10,H  59)          104.5756         0.326549   
    163. A(C  11,C  10,C  48)          114.3032         0.355416   
    164. A(N  12,C  11,O  47)          122.2387         0.461611   
    165. A(C  10,C  11,O  47)          122.7228         0.425699   
    166. A(C  10,C  11,N  12)          115.0385         0.385998   
    167. A(C  13,N  12,H  60)          117.1861         0.333924   
    168. A(C  11,N  12,C  13)          119.2341         0.398012   
    169. A(C  11,N  12,H  60)          119.4046         0.349510   
    170. A(C  14,C  13,C  45)          110.4434         0.359977   
    171. A(N  12,C  13,H  61)          104.8393         0.326352   
    172. A(C  14,C  13,H  61)          106.1782         0.319064   
    173. A(N  12,C  13,C  14)          113.5726         0.370604   
    174. A(C  45,C  13,H  61)          109.0051         0.317395   
    175. A(N  12,C  13,C  45)          112.3703         0.368561   
    176. A(C  13,C  14,N  15)          116.6299         0.394488   
    177. A(N  15,C  14,O  44)          123.2374         0.464859   
    178. A(C  13,C  14,O  44)          120.1324         0.424835   
    179. A(C  14,N  15,H  62)          115.8693         0.356523   
    180. A(C  16,N  15,H  62)          119.6190         0.334157   
    181. A(C  14,N  15,C  16)          123.8965         0.402312   
    182. A(H  63,C  16,H  64)          108.0963         0.284460   
    183. A(C  17,C  16,H  64)          108.5060         0.316530   
    184. A(N  15,C  16,H  63)          110.3236         0.325587   
    185. A(C  17,C  16,H  63)          106.8768         0.315936   
    186. A(N  15,C  16,C  17)          115.2872         0.364405   
    187. A(N  15,C  16,H  64)          107.5444         0.326206   
    188. A(O  43,C  17,H  65)          105.9362         0.338712   
    189. A(C  18,C  17,H  65)          108.1473         0.313165   
    190. A(C  16,C  17,H  65)          106.9769         0.316978   
    191. A(C  16,C  17,C  18)          111.3993         0.348753   
    192. A(C  18,C  17,O  43)          114.1869         0.373515   
    193. A(C  16,C  17,O  43)          109.7856         0.378355   
    194. A(C  19,C  18,H  66)          103.3407         0.315836   
    195. A(C  17,C  18,H  66)          106.4833         0.310764   
    196. A(C  17,C  18,C  32)          112.5202         0.353209   
    197. A(C  17,C  18,C  19)          113.1214         0.350250   
    198. A(C  19,C  18,C  32)          116.7832         0.359252   
    199. A(C  32,C  18,H  66)          103.0137         0.318405   
    200. A(C  18,C  19,N  20)          112.4354         0.387355   
    201. A(N  20,C  19,O  31)          122.1713         0.463323   
    202. A(C  18,C  19,O  31)          125.2154         0.424267   
    203. A(C  19,N  20,H  67)          120.6377         0.350435   
    204. A(C  19,N  20,C  21)          122.0250         0.400846   
    205. A(C  21,N  20,H  67)          117.2025         0.333745   
    206. A(C  27,C  21,H  68)          110.1686         0.319541   
    207. A(C  22,C  21,H  68)          104.7737         0.316930   
    208. A(N  20,C  21,H  68)          106.6743         0.327622   
    209. A(N  20,C  21,C  22)          111.8952         0.367858   
    210. A(C  22,C  21,C  27)          110.8191         0.358415   
    211. A(N  20,C  21,C  27)          112.1616         0.371052   
    212. A(C  21,C  22,N  23)          114.3494         0.388340   
    213. A(C  21,C  22,O  26)          122.5035         0.424184   
    214. A(N  23,C  22,O  26)          123.1436         0.465681   
    215. A(C  22,N  23,C  24)          123.6795         0.404995   
    216. A(C  24,N  23,H  69)          116.2249         0.338067   
    217. A(C  22,N  23,H  69)          119.8198         0.354150   
    218. A(C  25,C  24,H  70)          108.6816         0.316741   
    219. A(N  23,C  24,H  70)          108.8670         0.329105   
    220. A(C   7,C  24,H  70)          110.8689         0.318922   
    221. A(N  23,C  24,C  25)          111.0745         0.370543   
    222. A(C   7,C  24,N  23)          106.9062         0.373238   
    223. A(C   7,C  24,C  25)          110.4344         0.358602   
    224. A(H  71,C  25,H  73)          109.0449         0.285171   
    225. A(C  24,C  25,H  73)          109.9850         0.317748   
    226. A(H  71,C  25,H  72)          108.3625         0.285307   
    227. A(C  24,C  25,H  72)          112.5542         0.317906   
    228. A(C  24,C  25,H  71)          108.0423         0.318014   
    229. A(H  72,C  25,H  73)          108.7841         0.285078   
    230. A(C  28,C  27,H  75)          109.1730         0.318140   
    231. A(C  21,C  27,C  28)          114.3451         0.360203   
    232. A(H  74,C  27,H  75)          106.4232         0.283856   
    233. A(C  21,C  27,H  75)          108.8517         0.319236   
    234. A(C  28,C  27,H  74)          110.6372         0.318527   
    235. A(C  21,C  27,H  74)          107.0945         0.319625   
    236. A(C  29,C  28,C  30)          111.5319         0.360858   
    237. A(C  27,C  28,C  30)          112.3584         0.359852   
    238. A(C  27,C  28,C  29)          109.8600         0.359914   
    239. A(C  30,C  28,H  76)          107.8407         0.318708   
    240. A(C  29,C  28,H  76)          107.6110         0.318760   
    241. A(C  27,C  28,H  76)          107.4180         0.317910   
    242. A(C  28,C  29,H  79)          111.3208         0.319561   
    243. A(H  78,C  29,H  79)          107.6275         0.284144   
    244. A(H  77,C  29,H  79)          107.7421         0.284422   
    245. A(H  77,C  29,H  78)          107.6265         0.284073   
    246. A(C  28,C  29,H  78)          110.9331         0.319149   
    247. A(C  28,C  29,H  77)          111.4105         0.319477   
    248. A(H  81,C  30,H  82)          107.5388         0.284092   
    249. A(H  80,C  30,H  82)          107.8426         0.284138   
    250. A(C  28,C  30,H  82)          110.9537         0.319028   
    251. A(H  80,C  30,H  81)          107.2191         0.284553   
    252. A(C  28,C  30,H  81)          110.8489         0.319517   
    253. A(C  28,C  30,H  80)          112.2293         0.319571   
    254. A(C  33,C  32,O  42)          120.6344         0.434341   
    255. A(C  18,C  32,O  42)          119.3971         0.427415   
    256. A(C  18,C  32,C  33)          119.9298         0.367906   
    257. A(C  32,C  33,C  34)          115.4584         0.365929   
    258. A(C  34,C  33,H  84)          110.6659         0.318673   
    259. A(H  83,C  33,H  84)          110.0021         0.284370   
    260. A(C  32,C  33,H  84)          106.4847         0.325046   
    261. A(C  34,C  33,H  83)          108.2689         0.318207   
    262. A(C  32,C  33,H  83)          105.7993         0.324567   
    263. A(C  33,C  34,C  35)          113.8908         0.360184   
    264. A(H  85,C  34,H  86)          105.3287         0.283789   
    265. A(C  35,C  34,H  86)          109.3936         0.319518   
    266. A(C  33,C  34,H  86)          107.2734         0.318046   
    267. A(C  35,C  34,H  85)          110.3829         0.319624   
    268. A(C  33,C  34,H  85)          110.1688         0.318151   
    269. A(C  34,C  35,C  36)          113.3148         0.362396   
    270. A(H  87,C  35,H  88)          105.8908         0.283279   
    271. A(C  36,C  35,H  88)          109.1474         0.319692   
    272. A(C  34,C  35,H  88)          109.9863         0.319296   
    273. A(C  36,C  35,H  87)          108.9023         0.319639   
    274. A(C  34,C  35,H  87)          109.3259         0.319243   
    275. A(C  35,C  36,C  37)          113.7709         0.362673   
    276. A(H  89,C  36,H  90)          105.4068         0.282792   
    277. A(C  37,C  36,H  90)          109.6407         0.319290   
    278. A(C  35,C  36,H  90)          109.1548         0.319452   
    279. A(C  37,C  36,H  89)          109.3870         0.319138   
    280. A(C  35,C  36,H  89)          109.1426         0.319300   
    281. A(C  36,C  37,C  38)          113.7725         0.361793   
    282. A(H  91,C  37,H  92)          105.2955         0.283296   
    283. A(C  38,C  37,H  92)          109.1787         0.318914   
    284. A(C  36,C  37,H  92)          109.4878         0.319494   
    285. A(C  38,C  37,H  91)          109.2525         0.318951   
    286. A(C  36,C  37,H  91)          109.5075         0.319531   
    287. A(C  37,C  38,C  39)          113.4516         0.361671   
    288. A(H  93,C  38,H  94)          104.6307         0.282654   
    289. A(C  39,C  38,H  94)          110.3172         0.319289   
    290. A(C  37,C  38,H  94)          109.8529         0.318812   
    291. A(C  39,C  38,H  93)          108.9101         0.318770   
    292. A(C  37,C  38,H  93)          109.2957         0.318294   
    293. A(C  38,C  39,C  40)          113.9510         0.362078   
    294. A(H  95,C  39,H  96)          105.3542         0.283142   
    295. A(C  40,C  39,H  96)          109.8840         0.319250   
    296. A(C  38,C  39,H  96)          108.6296         0.319384   
    297. A(C  40,C  39,H  95)          109.4222         0.319120   
    298. A(C  38,C  39,H  95)          109.2420         0.319254   
    299. A(C  39,C  40,C  41)          113.3548         0.362269   
    300. A(H  97,C  40,H  98)          105.3306         0.282976   
    301. A(C  41,C  40,H  98)          109.8090         0.319483   
    302. A(C  39,C  40,H  98)          109.5337         0.319188   
    303. A(C  41,C  40,H  97)          109.4765         0.319279   
    304. A(C  39,C  40,H  97)          109.0219         0.318985   
    305. A(H 100,C  41,H 101)          107.0337         0.284101   
    306. A(H  99,C  41,H 101)          107.5414         0.284317   
    307. A(C  40,C  41,H 101)          111.1999         0.320076   
    308. A(H  99,C  41,H 100)          107.7227         0.284272   
    309. A(C  40,C  41,H 100)          111.1516         0.320022   
    310. A(C  40,C  41,H  99)          111.9626         0.320278   
    311. A(C  17,O  43,H 102)          104.3741         0.354259   
    312. A(C  13,C  45,C  46)          113.7463         0.361241   
    313. A(C  46,C  45,H 104)          110.4280         0.320846   
    314. A(C  13,C  45,H 104)          108.7186         0.318096   
    315. A(C  46,C  45,H 103)          110.7681         0.321335   
    316. A(C  13,C  45,H 103)          106.9285         0.318579   
    317. A(H 103,C  45,H 104)          105.8929         0.284514   
    318. A(H 106,C  46,H 107)          106.6902         0.284283   
    319. A(H 105,C  46,H 107)          107.1934         0.284356   
    320. A(C  45,C  46,H 107)          111.8095         0.320700   
    321. A(H 105,C  46,H 106)          108.1915         0.284784   
    322. A(C  45,C  46,H 106)          111.8433         0.321207   
    323. A(C  45,C  46,H 105)          110.8771         0.321294   
    324. A(C  50,C  48,H 108)          107.6769         0.318878   
    325. A(C  49,C  48,H 108)          108.0815         0.318813   
    326. A(C  10,C  48,H 108)          103.6266         0.315664   
    327. A(C  49,C  48,C  50)          112.3260         0.360949   
    328. A(C  10,C  48,C  50)          112.3418         0.357223   
    329. A(C  10,C  48,C  49)          112.2196         0.357146   
    330. A(H 110,C  49,H 111)          108.0288         0.284830   
    331. A(H 109,C  49,H 111)          106.9442         0.284277   
    332. A(C  48,C  49,H 111)          110.7224         0.319664   
    333. A(H 109,C  49,H 110)          108.3147         0.284403   
    334. A(C  48,C  49,H 110)          110.8443         0.319814   
    335. A(C  48,C  49,H 109)          111.8202         0.319162   
    336. A(H 113,C  50,H 114)          108.7733         0.285058   
    337. A(H 112,C  50,H 114)          108.2104         0.284954   
    338. A(C  48,C  50,H 114)          110.7836         0.320261   
    339. A(H 112,C  50,H 113)          107.5850         0.284410   
    340. A(C  48,C  50,H 113)          110.3160         0.319618   
    341. A(C  48,C  50,H 112)          111.0721         0.319496   
    342. D(H  51,C   2,C   1,N   9)   -146.1739         0.010209   
    343. D(C   3,C   2,C   1,N   9)     92.1159         0.010209   
    344. D(N   6,C   2,C   1,N   9)    -26.2092         0.010209   
    345. D(N   6,C   2,C   1,O   0)    155.4614         0.010209   
    346. D(C   3,C   2,C   1,O   0)    -86.2135         0.010209   
    347. D(H  51,C   2,C   1,O   0)     35.4968         0.010209   
    348. D(C   4,C   3,C   2,N   6)     26.3777         0.009975   
    349. D(H  53,C   3,C   2,H  51)    -92.7975         0.009975   
    350. D(H  53,C   3,C   2,C   1)     24.5726         0.009975   
    351. D(C   4,C   3,C   2,H  51)    143.8039         0.009975   
    352. D(H  53,C   3,C   2,N   6)    149.7764         0.009975   
    353. D(H  52,C   3,C   2,H  51)     25.9583         0.009975   
    354. D(C   4,C   3,C   2,C   1)    -98.8261         0.009975   
    355. D(H  52,C   3,C   2,C   1)    143.3283         0.009975   
    356. D(H  52,C   3,C   2,N   6)    -91.4679         0.009975   
    357. D(H  55,C   4,C   3,H  53)     77.6992         0.010609   
    358. D(H  55,C   4,C   3,H  52)    -43.3813         0.010609   
    359. D(H  54,C   4,C   3,H  52)   -164.3155         0.010609   
    360. D(H  55,C   4,C   3,C   2)   -160.3666         0.010609   
    361. D(H  54,C   4,C   3,H  53)    -43.2349         0.010609   
    362. D(C   5,C   4,C   3,C   2)    -38.8043         0.010609   
    363. D(H  54,C   4,C   3,C   2)     78.6993         0.010609   
    364. D(C   5,C   4,C   3,H  53)   -160.7385         0.010609   
    365. D(C   5,C   4,C   3,H  52)     78.1809         0.010609   
    366. D(N   6,C   5,C   4,C   3)     35.7803         0.010785   
    367. D(H  57,C   5,C   4,C   3)    -82.8565         0.010785   
    368. D(H  56,C   5,C   4,H  55)    -82.0366         0.010785   
    369. D(H  56,C   5,C   4,C   3)    155.6569         0.010785   
    370. D(H  57,C   5,C   4,H  54)    159.5406         0.010785   
    371. D(H  56,C   5,C   4,H  54)     38.0539         0.010785   
    372. D(H  57,C   5,C   4,H  55)     39.4500         0.010785   
    373. D(N   6,C   5,C   4,H  54)    -81.8227         0.010785   
    374. D(N   6,C   5,C   4,H  55)    158.0868         0.010785   
    375. D(C   5,N   6,C   2,C   3)     -3.8292         0.013952   
    376. D(C   7,N   6,C   5,H  57)    -73.5976         0.014317   
    377. D(C   7,N   6,C   5,H  56)     46.1493         0.014317   
    378. D(C   7,N   6,C   5,C   4)    168.0438         0.014317   
    379. D(C   2,N   6,C   5,H  57)     98.1581         0.014317   
    380. D(C   2,N   6,C   5,H  56)   -142.0950         0.014317   
    381. D(C   7,N   6,C   2,H  51)     49.3545         0.013952   
    382. D(C   2,N   6,C   5,C   4)    -20.2005         0.014317   
    383. D(C   7,N   6,C   2,C   3)    168.6330         0.013952   
    384. D(C   5,N   6,C   2,C   1)    119.6045         0.013952   
    385. D(C   7,N   6,C   2,C   1)    -67.9333         0.013952   
    386. D(C   5,N   6,C   2,H  51)   -123.1077         0.013952   
    387. D(C  24,C   7,N   6,C   5)     12.3807         0.030613   
    388. D(C  24,C   7,N   6,C   2)   -158.8230         0.030613   
    389. D(O   8,C   7,N   6,C   5)   -171.3617         0.030613   
    390. D(O   8,C   7,N   6,C   2)     17.4346         0.030613   
    391. D(H  58,N   9,C   1,O   0)   -178.7402         0.030561   
    392. D(C  10,N   9,C   1,C   2)    176.3761         0.030561   
    393. D(H  58,N   9,C   1,C   2)      2.9855         0.030561   
    394. D(C  10,N   9,C   1,O   0)     -5.3495         0.030561   
    395. D(H  59,C  10,N   9,C   1)     -8.9468         0.016509   
    396. D(C  48,C  10,N   9,H  58)    -79.2177         0.016509   
    397. D(C  48,C  10,N   9,C   1)    107.4678         0.016509   
    398. D(C  11,C  10,N   9,C   1)   -124.5973         0.016509   
    399. D(H  59,C  10,N   9,H  58)    164.3678         0.016509   
    400. D(C  11,C  10,N   9,H  58)     48.7173         0.016509   
    401. D(O  47,C  11,C  10,N   9)   -149.5982         0.009539   
    402. D(N  12,C  11,C  10,H  59)    -83.1624         0.009539   
    403. D(N  12,C  11,C  10,C  48)    156.8144         0.009539   
    404. D(N  12,C  11,C  10,N   9)     30.3042         0.009539   
    405. D(O  47,C  11,C  10,H  59)     96.9352         0.009539   
    406. D(O  47,C  11,C  10,C  48)    -23.0880         0.009539   
    407. D(H  60,N  12,C  11,O  47)    174.4221         0.026735   
    408. D(H  60,N  12,C  11,C  10)     -5.4808         0.026735   
    409. D(C  13,N  12,C  11,O  47)     18.0159         0.026735   
    410. D(C  13,N  12,C  11,C  10)   -161.8869         0.026735   
    411. D(H  61,C  13,N  12,C  11)    -18.8776         0.016488   
    412. D(H  61,C  13,N  12,H  60)   -175.7991         0.016488   
    413. D(C  45,C  13,N  12,H  60)    -57.5473         0.016488   
    414. D(C  45,C  13,N  12,C  11)     99.3741         0.016488   
    415. D(C  14,C  13,N  12,C  11)   -134.3504         0.016488   
    416. D(C  14,C  13,N  12,H  60)     68.7282         0.016488   
    417. D(O  44,C  14,C  13,C  45)    -35.5315         0.010221   
    418. D(O  44,C  14,C  13,N  12)   -162.8175         0.010221   
    419. D(N  15,C  14,C  13,H  61)    -97.6988         0.010221   
    420. D(N  15,C  14,C  13,C  45)    144.2659         0.010221   
    421. D(O  44,C  14,C  13,H  61)     82.5038         0.010221   
    422. D(N  15,C  14,C  13,N  12)     16.9799         0.010221   
    423. D(H  62,N  15,C  14,O  44)   -179.2203         0.032229   
    424. D(H  62,N  15,C  14,C  13)      0.9893         0.032229   
    425. D(C  16,N  15,C  14,O  44)     -8.2739         0.032229   
    426. D(C  16,N  15,C  14,C  13)    171.9356         0.032229   
    427. D(H  64,C  16,N  15,H  62)    -12.5196         0.015648   
    428. D(H  64,C  16,N  15,C  14)    176.8541         0.015648   
    429. D(H  63,C  16,N  15,H  62)    105.1578         0.015648   
    430. D(H  63,C  16,N  15,C  14)    -65.4685         0.015648   
    431. D(C  17,C  16,N  15,C  14)     55.6877         0.015648   
    432. D(C  17,C  16,N  15,H  62)   -133.6860         0.015648   
    433. D(H  65,C  17,C  16,H  64)    175.6083         0.009543   
    434. D(H  65,C  17,C  16,H  63)     59.2591         0.009543   
    435. D(H  65,C  17,C  16,N  15)    -63.7480         0.009543   
    436. D(O  43,C  17,C  16,H  64)     61.0945         0.009543   
    437. D(O  43,C  17,C  16,H  63)    -55.2547         0.009543   
    438. D(O  43,C  17,C  16,N  15)   -178.2618         0.009543   
    439. D(C  18,C  17,C  16,H  64)    -66.3963         0.009543   
    440. D(C  18,C  17,C  16,H  63)    177.2545         0.009543   
    441. D(C  18,C  17,C  16,N  15)     54.2474         0.009543   
    442. D(H  66,C  18,C  17,H  65)     96.1653         0.008346   
    443. D(H  66,C  18,C  17,O  43)   -146.1919         0.008346   
    444. D(H  66,C  18,C  17,C  16)    -21.1228         0.008346   
    445. D(C  32,C  18,C  17,O  43)    -34.0497         0.008346   
    446. D(C  32,C  18,C  17,C  16)     91.0194         0.008346   
    447. D(C  32,C  18,C  17,H  65)   -151.6924         0.008346   
    448. D(C  19,C  18,C  17,H  65)    -16.6640         0.008346   
    449. D(C  19,C  18,C  17,O  43)    100.9787         0.008346   
    450. D(C  19,C  18,C  17,C  16)   -133.9522         0.008346   
    451. D(O  31,C  19,C  18,H  66)    117.6341         0.009376   
    452. D(O  31,C  19,C  18,C  32)      5.3660         0.009376   
    453. D(O  31,C  19,C  18,C  17)   -127.6369         0.009376   
    454. D(N  20,C  19,C  18,H  66)    -57.5859         0.009376   
    455. D(N  20,C  19,C  18,C  17)     57.1432         0.009376   
    456. D(N  20,C  19,C  18,C  32)   -169.8540         0.009376   
    457. D(H  67,N  20,C  19,O  31)    167.6589         0.028479   
    458. D(H  67,N  20,C  19,C  18)    -16.9544         0.028479   
    459. D(C  21,N  20,C  19,O  31)     -8.0011         0.028479   
    460. D(C  21,N  20,C  19,C  18)    167.3857         0.028479   
    461. D(H  68,C  21,N  20,H  67)   -156.3348         0.016848   
    462. D(H  68,C  21,N  20,C  19)     19.4669         0.016848   
    463. D(C  27,C  21,N  20,H  67)    -35.6291         0.016848   
    464. D(C  27,C  21,N  20,C  19)    140.1726         0.016848   
    465. D(C  22,C  21,N  20,H  67)     89.6319         0.016848   
    466. D(C  22,C  21,N  20,C  19)    -94.5664         0.016848   
    467. D(N  23,C  22,C  21,C  27)    130.8009         0.009255   
    468. D(N  23,C  22,C  21,N  20)      4.8024         0.009255   
    469. D(O  26,C  22,C  21,H  68)     68.9448         0.009255   
    470. D(O  26,C  22,C  21,C  27)    -49.8555         0.009255   
    471. D(O  26,C  22,C  21,N  20)   -175.8540         0.009255   
    472. D(N  23,C  22,C  21,H  68)   -110.3988         0.009255   
    473. D(H  69,N  23,C  22,O  26)   -179.2499         0.032438   
    474. D(H  69,N  23,C  22,C  21)      0.0890         0.032438   
    475. D(C  24,N  23,C  22,O  26)     -5.5151         0.032438   
    476. D(C  24,N  23,C  22,C  21)    173.8237         0.032438   
    477. D(H  70,C  24,N  23,H  69)   -138.8520         0.019466   
    478. D(H  70,C  24,N  23,C  22)     47.2066         0.019466   
    479. D(C  25,C  24,N  23,H  69)    101.5146         0.019466   
    480. D(C  25,C  24,N  23,C  22)    -72.4268         0.019466   
    481. D(C   7,C  24,N  23,H  69)    -19.0286         0.019466   
    482. D(C   7,C  24,N  23,C  22)    167.0300         0.019466   
    483. D(H  70,C  24,C   7,O   8)    133.5999         0.010102   
    484. D(H  70,C  24,C   7,N   6)    -50.1339         0.010102   
    485. D(C  25,C  24,C   7,O   8)   -105.8787         0.010102   
    486. D(C  25,C  24,C   7,N   6)     70.3875         0.010102   
    487. D(N  23,C  24,C   7,O   8)     15.0722         0.010102   
    488. D(N  23,C  24,C   7,N   6)   -168.6615         0.010102   
    489. D(H  73,C  25,C  24,H  70)    179.6781         0.009971   
    490. D(H  73,C  25,C  24,N  23)    -60.5780         0.009971   
    491. D(H  73,C  25,C  24,C   7)     57.8567         0.009971   
    492. D(H  72,C  25,C  24,H  70)     58.2080         0.009971   
    493. D(H  72,C  25,C  24,N  23)    177.9519         0.009971   
    494. D(H  72,C  25,C  24,C   7)    -63.6135         0.009971   
    495. D(H  71,C  25,C  24,H  70)    -61.3988         0.009971   
    496. D(H  71,C  25,C  24,N  23)     58.3452         0.009971   
    497. D(H  71,C  25,C  24,C   7)    176.7798         0.009971   
    498. D(H  75,C  27,C  21,H  68)   -176.2789         0.010835   
    499. D(H  75,C  27,C  21,C  22)    -60.7921         0.010835   
    500. D(H  75,C  27,C  21,N  20)     65.0576         0.010835   
    501. D(H  74,C  27,C  21,H  68)    -61.5978         0.010835   
    502. D(H  74,C  27,C  21,C  22)     53.8890         0.010835   
    503. D(H  74,C  27,C  21,N  20)    179.7387         0.010835   
    504. D(C  28,C  27,C  21,H  68)     61.3503         0.010835   
    505. D(C  28,C  27,C  21,C  22)    176.8371         0.010835   
    506. D(C  28,C  27,C  21,N  20)    -57.3132         0.010835   
    507. D(H  76,C  28,C  27,H  75)    -59.2076         0.010416   
    508. D(H  76,C  28,C  27,H  74)   -176.0034         0.010416   
    509. D(H  76,C  28,C  27,C  21)     62.9880         0.010416   
    510. D(C  30,C  28,C  27,H  75)   -177.6475         0.010416   
    511. D(C  30,C  28,C  27,H  74)     65.5567         0.010416   
    512. D(C  30,C  28,C  27,C  21)    -55.4519         0.010416   
    513. D(C  29,C  28,C  27,H  75)     57.5659         0.010416   
    514. D(C  29,C  28,C  27,H  74)    -59.2299         0.010416   
    515. D(C  29,C  28,C  27,C  21)    179.7615         0.010416   
    516. D(H  79,C  29,C  28,C  30)     58.1464         0.010740   
    517. D(H  79,C  29,C  28,C  27)   -176.5919         0.010740   
    518. D(H  78,C  29,C  28,H  76)   -179.7641         0.010740   
    519. D(H  78,C  29,C  28,C  30)    -61.6783         0.010740   
    520. D(H  78,C  29,C  28,C  27)     63.5834         0.010740   
    521. D(H  77,C  29,C  28,H  76)     60.3528         0.010740   
    522. D(H  77,C  29,C  28,C  30)    178.4386         0.010740   
    523. D(H  79,C  29,C  28,H  76)    -59.9395         0.010740   
    524. D(H  77,C  29,C  28,C  27)    -56.2996         0.010740   
    525. D(H  82,C  30,C  28,H  76)   -176.4176         0.010719   
    526. D(H  82,C  30,C  28,C  29)     65.6345         0.010719   
    527. D(H  82,C  30,C  28,C  27)    -58.2270         0.010719   
    528. D(H  81,C  30,C  28,H  76)     64.1668         0.010719   
    529. D(H  81,C  30,C  28,C  29)    -53.7811         0.010719   
    530. D(H  81,C  30,C  28,C  27)   -177.6426         0.010719   
    531. D(H  80,C  30,C  28,H  76)    -55.6908         0.010719   
    532. D(H  80,C  30,C  28,C  29)   -173.6387         0.010719   
    533. D(H  80,C  30,C  28,C  27)     62.4998         0.010719   
    534. D(O  42,C  32,C  18,H  66)     96.3689         0.010275   
    535. D(O  42,C  32,C  18,C  19)   -151.1769         0.010275   
    536. D(O  42,C  32,C  18,C  17)    -17.9041         0.010275   
    537. D(C  33,C  32,C  18,H  66)    -81.3834         0.010275   
    538. D(C  33,C  32,C  18,C  19)     31.0708         0.010275   
    539. D(C  33,C  32,C  18,C  17)    164.3437         0.010275   
    540. D(H  84,C  33,C  32,O  42)      2.8761         0.012168   
    541. D(H  84,C  33,C  32,C  18)   -179.3999         0.012168   
    542. D(H  83,C  33,C  32,O  42)    119.9061         0.012168   
    543. D(H  83,C  33,C  32,C  18)    -62.3698         0.012168   
    544. D(C  34,C  33,C  32,O  42)   -120.3890         0.012168   
    545. D(C  34,C  33,C  32,C  18)     57.3351         0.012168   
    546. D(H  86,C  34,C  33,H  84)     62.5092         0.010344   
    547. D(H  86,C  34,C  33,H  83)    -58.1214         0.010344   
    548. D(H  86,C  34,C  33,C  32)   -176.4624         0.010344   
    549. D(H  85,C  34,C  33,H  84)    176.6602         0.010344   
    550. D(H  85,C  34,C  33,H  83)     56.0297         0.010344   
    551. D(H  85,C  34,C  33,C  32)    -62.3114         0.010344   
    552. D(C  35,C  34,C  33,H  84)    -58.6932         0.010344   
    553. D(C  35,C  34,C  33,H  83)   -179.3237         0.010344   
    554. D(C  35,C  34,C  33,C  32)     62.3352         0.010344   
    555. D(H  88,C  35,C  34,H  86)    166.1020         0.010905   
    556. D(H  88,C  35,C  34,H  85)     50.6486         0.010905   
    557. D(H  88,C  35,C  34,C  33)    -73.8833         0.010905   
    558. D(H  87,C  35,C  34,H  86)    -78.0300         0.010905   
    559. D(H  87,C  35,C  34,H  85)    166.5166         0.010905   
    560. D(H  87,C  35,C  34,C  33)     41.9847         0.010905   
    561. D(C  36,C  35,C  34,H  86)     43.6361         0.010905   
    562. D(C  36,C  35,C  34,H  85)    -71.8173         0.010905   
    563. D(C  36,C  35,C  34,C  33)    163.6508         0.010905   
    564. D(H  90,C  36,C  35,H  87)     63.7350         0.011062   
    565. D(H  90,C  36,C  35,C  34)    -58.1680         0.011062   
    566. D(H  89,C  36,C  35,H  88)    -66.3727         0.011062   
    567. D(H  89,C  36,C  35,H  87)    178.4607         0.011062   
    568. D(H  89,C  36,C  35,C  34)     56.5577         0.011062   
    569. D(C  37,C  36,C  35,H  88)     56.0957         0.011062   
    570. D(C  37,C  36,C  35,H  87)    -59.0709         0.011062   
    571. D(H  90,C  36,C  35,H  88)    178.9017         0.011062   
    572. D(C  37,C  36,C  35,C  34)    179.0261         0.011062   
    573. D(H  92,C  37,C  36,H  90)    176.2991         0.010997   
    574. D(H  92,C  37,C  36,H  89)     61.1721         0.010997   
    575. D(H  92,C  37,C  36,C  35)    -61.1617         0.010997   
    576. D(H  91,C  37,C  36,H  90)    -68.7250         0.010997   
    577. D(H  91,C  37,C  36,H  89)    176.1480         0.010997   
    578. D(H  91,C  37,C  36,C  35)     53.8142         0.010997   
    579. D(C  38,C  37,C  36,H  90)     53.8423         0.010997   
    580. D(C  38,C  37,C  36,H  89)    -61.2847         0.010997   
    581. D(C  38,C  37,C  36,C  35)    176.3815         0.010997   
    582. D(H  94,C  38,C  37,H  92)    169.7266         0.010770   
    583. D(H  94,C  38,C  37,H  91)     55.0608         0.010770   
    584. D(H  94,C  38,C  37,C  36)    -67.6466         0.010770   
    585. D(H  93,C  38,C  37,H  92)    -76.0092         0.010770   
    586. D(H  93,C  38,C  37,H  91)    169.3249         0.010770   
    587. D(H  93,C  38,C  37,C  36)     46.6176         0.010770   
    588. D(C  39,C  38,C  37,H  92)     45.7378         0.010770   
    589. D(C  39,C  38,C  37,H  91)    -68.9280         0.010770   
    590. D(C  39,C  38,C  37,C  36)    168.3646         0.010770   
    591. D(H  95,C  39,C  38,H  94)    -63.1374         0.010957   
    592. D(H  95,C  39,C  38,H  93)   -177.4397         0.010957   
    593. D(H  95,C  39,C  38,C  37)     60.5983         0.010957   
    594. D(C  40,C  39,C  38,H  94)     59.5762         0.010957   
    595. D(C  40,C  39,C  38,H  93)    -54.7261         0.010957   
    596. D(C  40,C  39,C  38,C  37)   -176.6881         0.010957   
    597. D(H  96,C  39,C  38,H  94)   -177.5706         0.010957   
    598. D(H  96,C  39,C  38,H  93)     68.1271         0.010957   
    599. D(H  96,C  39,C  38,C  37)    -53.8349         0.010957   
    600. D(H  98,C  40,C  39,H  95)     63.8365         0.010904   
    601. D(H  98,C  40,C  39,C  38)    -58.7786         0.010904   
    602. D(H  97,C  40,C  39,H  96)    -66.1694         0.010904   
    603. D(H  97,C  40,C  39,H  95)    178.6112         0.010904   
    604. D(H  97,C  40,C  39,C  38)     55.9962         0.010904   
    605. D(C  41,C  40,C  39,H  96)     56.0402         0.010904   
    606. D(C  41,C  40,C  39,H  95)    -59.1792         0.010904   
    607. D(H  98,C  40,C  39,H  96)    179.0559         0.010904   
    608. D(C  41,C  40,C  39,C  38)    178.2058         0.010904   
    609. D(H 101,C  41,C  40,H  98)    -62.7177         0.011020   
    610. D(H 101,C  41,C  40,H  97)   -177.8975         0.011020   
    611. D(H 101,C  41,C  40,C  39)     60.1461         0.011020   
    612. D(H 100,C  41,C  40,H  98)    178.1412         0.011020   
    613. D(H 100,C  41,C  40,H  97)     62.9613         0.011020   
    614. D(H 100,C  41,C  40,C  39)    -58.9951         0.011020   
    615. D(H  99,C  41,C  40,H  98)     57.6127         0.011020   
    616. D(H  99,C  41,C  40,H  97)    -57.5672         0.011020   
    617. D(H  99,C  41,C  40,C  39)   -179.5236         0.011020   
    618. D(H 102,O  43,C  17,H  65)    171.5346         0.022566   
    619. D(H 102,O  43,C  17,C  18)     52.6316         0.022566   
    620. D(H 102,O  43,C  17,C  16)    -73.2877         0.022566   
    621. D(H 104,C  45,C  13,H  61)   -177.2844         0.010275   
    622. D(H 104,C  45,C  13,C  14)    -60.9962         0.010275   
    623. D(H 104,C  45,C  13,N  12)     66.9512         0.010275   
    624. D(H 103,C  45,C  13,H  61)    -63.3706         0.010275   
    625. D(H 103,C  45,C  13,C  14)     52.9176         0.010275   
    626. D(H 103,C  45,C  13,N  12)   -179.1350         0.010275   
    627. D(C  46,C  45,C  13,H  61)     59.2335         0.010275   
    628. D(C  46,C  45,C  13,C  14)    175.5217         0.010275   
    629. D(C  46,C  45,C  13,N  12)    -56.5309         0.010275   
    630. D(H 107,C  46,C  45,H 104)    -60.6626         0.011341   
    631. D(H 107,C  46,C  45,H 103)   -177.6484         0.011341   
    632. D(H 107,C  46,C  45,C  13)     61.8840         0.011341   
    633. D(H 106,C  46,C  45,H 104)    179.7552         0.011341   
    634. D(H 106,C  46,C  45,H 103)     62.7695         0.011341   
    635. D(H 106,C  46,C  45,C  13)    -57.6981         0.011341   
    636. D(H 105,C  46,C  45,H 104)     58.9006         0.011341   
    637. D(H 105,C  46,C  45,H 103)    -58.0852         0.011341   
    638. D(H 105,C  46,C  45,C  13)   -178.5528         0.011341   
    639. D(H 108,C  48,C  10,H  59)     65.4437         0.009587   
    640. D(H 108,C  48,C  10,C  11)   -174.4564         0.009587   
    641. D(H 108,C  48,C  10,N   9)    -48.9638         0.009587   
    642. D(C  50,C  48,C  10,H  59)    -50.4964         0.009587   
    643. D(C  50,C  48,C  10,C  11)     69.6036         0.009587   
    644. D(C  50,C  48,C  10,N   9)   -164.9038         0.009587   
    645. D(C  49,C  48,C  10,H  59)   -178.1969         0.009587   
    646. D(C  49,C  48,C  10,C  11)    -58.0969         0.009587   
    647. D(C  49,C  48,C  10,N   9)     67.3957         0.009587   
    648. D(H 111,C  49,C  48,C  50)     58.6754         0.010732   
    649. D(H 111,C  49,C  48,C  10)   -173.6156         0.010732   
    650. D(H 110,C  49,C  48,H 108)   -179.8455         0.010732   
    651. D(H 110,C  49,C  48,C  50)    -61.2003         0.010732   
    652. D(H 110,C  49,C  48,C  10)     66.5087         0.010732   
    653. D(H 109,C  49,C  48,H 108)     59.1813         0.010732   
    654. D(H 109,C  49,C  48,C  50)    177.8266         0.010732   
    655. D(H 111,C  49,C  48,H 108)    -59.9699         0.010732   
    656. D(H 109,C  49,C  48,C  10)    -54.4645         0.010732   
    657. D(H 114,C  50,C  48,H 108)    179.6660         0.010757   
    658. D(H 114,C  50,C  48,C  49)     60.7830         0.010757   
    659. D(H 114,C  50,C  48,C  10)    -66.8611         0.010757   
    660. D(H 113,C  50,C  48,H 108)     59.1637         0.010757   
    661. D(H 113,C  50,C  48,C  49)    -59.7193         0.010757   
    662. D(H 113,C  50,C  48,C  10)    172.6366         0.010757   
    663. D(H 112,C  50,C  48,H 108)    -60.0390         0.010757   
    664. D(H 112,C  50,C  48,C  49)   -178.9220         0.010757   
    665. D(H 112,C  50,C  48,C  10)     53.4339         0.010757   
    -----------------------------------------------------------------

Number of atoms                         .... 115
Number of degrees of freedom            .... 665

         *************************************************************
         *                GEOMETRY OPTIMIZATION CYCLE   1            *
         *************************************************************
---------------------------------
CARTESIAN COORDINATES (ANGSTROEM)
---------------------------------
  O     -3.181552    1.783370   -1.160003
  C     -2.018114    2.181056   -1.091899
  C     -1.478792    2.795671    0.205085
  C     -1.767783    4.310807    0.312296
  C     -0.449282    4.965473   -0.130140
  C      0.609372    4.047774    0.496371
  N     -0.013286    2.715551    0.383254
  C      0.580373    1.503099    0.579644
  O     -0.013628    0.443468    0.298366
  N     -1.146415    2.144505   -2.140913
  C     -1.484764    1.522684   -3.412596
  C     -0.430334    0.453679   -3.768995
  N      0.162038   -0.167009   -2.686324
  C      1.417336   -0.879487   -2.874545
  C      1.446050   -2.258330   -2.205029
  N      0.247128   -2.787879   -1.850710
  C      0.071968   -4.154848   -1.360562
  C      0.928945   -4.530010   -0.121271
  C      0.708096   -3.513132    1.058386
  C      2.028405   -3.048590    1.714557
  N      2.889236   -2.475036    0.811158
  C      4.062547   -1.728886    1.231800
  C      3.780802   -0.209278    1.315449
  N      2.477879    0.136081    1.085114
  C      1.966391    1.476359    1.238253
  C      1.862170    1.864475    2.731349
  O      4.658535    0.612859    1.580225
  C      5.277815   -2.009748    0.338708
  C      5.678030   -3.494551    0.259910
  C      6.895722   -3.658392   -0.660793
  C      5.933009   -4.105158    1.645658
  O      2.274926   -3.088743    2.922076
  C     -0.417647   -3.946107    2.003437
  C     -0.545211   -3.307964    3.363701
  C     -0.698474   -1.774769    3.364290
  C     -1.964096   -1.277010    2.656529
  C     -2.316663    0.173993    2.994834
  C     -3.566581    0.689723    2.274781
  C     -3.970735    2.113961    2.680058
  C     -5.036615    2.728704    1.766611
  C     -5.390774    4.179779    2.112282
  C     -6.424919    4.794662    1.164504
  O     -1.238204   -4.787856    1.623547
  O      0.701634   -5.870718    0.225211
  O      2.530759   -2.834017   -2.007418
  C      2.637491   -0.043711   -2.438760
  C      2.742411    1.306338   -3.145522
  O     -0.134136    0.172546   -4.929787
  C     -1.724128    2.579266   -4.523994
  C     -0.437885    3.329505   -4.898642
  C     -2.431520    1.986070   -5.750495
  H     -1.975462    2.223179    1.008637
  H     -1.993410    4.566561    1.367953
  H     -2.644300    4.606871   -0.293859
  H     -0.363069    4.951566   -1.237101
  H     -0.345641    6.016335    0.201353
  H      1.587678    4.072415   -0.023587
  H      0.785450    4.318921    1.560459
  H     -0.192914    2.478854   -1.986041
  H     -2.450627    1.002883   -3.222091
  H     -0.055080    0.161936   -1.732304
  H      1.478099   -1.065631   -3.971302
  H     -0.575758   -2.222360   -2.077895
  H      0.321870   -4.885936   -2.158762
  H     -0.997224   -4.281788   -1.100168
  H      1.988209   -4.472206   -0.431873
  H      0.304901   -2.576708    0.598815
  H      2.758382   -2.617563   -0.206644
  H      4.276936   -2.035157    2.277586
  H      1.786206   -0.591998    0.880072
  H      2.659296    2.185997    0.732920
  H      2.869854    1.775912    3.179585
  H      1.505989    2.902526    2.876363
  H      1.171762    1.174044    3.254730
  H      6.118054   -1.398221    0.729205
  H      5.065122   -1.633884   -0.686209
  H      4.828430   -4.044558   -0.204122
  H      6.699374   -3.241378   -1.670183
  H      7.781457   -3.131159   -0.245311
  H      7.167724   -4.726714   -0.783477
  H      5.025120   -4.094565    2.282258
  H      6.259940   -5.161382    1.557549
  H      6.732593   -3.550709    2.183411
  H      0.389003   -3.564735    3.907040
  H     -1.414369   -3.788149    3.856113
  H      0.203840   -1.299398    2.923373
  H     -0.715299   -1.445128    4.425816
  H     -2.821842   -1.930356    2.932916
  H     -1.847760   -1.376905    1.554326
  H     -1.449358    0.828622    2.745511
  H     -2.452774    0.269808    4.096399
  H     -4.417403   -0.001572    2.465987
  H     -3.401975    0.655452    1.174551
  H     -3.067322    2.769569    2.674011
  H     -4.317086    2.122096    3.738329
  H     -5.957547    2.103563    1.804748
  H     -4.681423    2.666262    0.713614
  H     -4.461094    4.794117    2.096903
  H     -5.761371    4.232872    3.160815
  H     -6.657645    5.846149    1.430203
  H     -6.062923    4.783437    0.114661
  H     -7.377848    4.225295    1.186060
  H     -0.200860   -5.870283    0.628830
  H      3.537085   -0.660212   -2.633835
  H      2.598202    0.097094   -1.338011
  H      3.647402    1.854837   -2.816871
  H      2.787653    1.192692   -4.247295
  H      1.867475    1.955633   -2.927337
  H     -2.421824    3.305269   -4.049719
  H      0.046499    3.788145   -4.009957
  H      0.290773    2.647170   -5.378921
  H     -0.656446    4.152635   -5.608293
  H     -3.367290    1.465752   -5.458551
  H     -2.703888    2.790140   -6.464286
  H     -1.778078    1.258402   -6.266551

----------------------------
CARTESIAN COORDINATES (A.U.)
----------------------------
  NO LB      ZA    FRAG     MASS         X           Y           Z
   0 O     8.0000    0    15.999   -6.012261    3.370081   -2.192088
   1 C     6.0000    0    12.011   -3.813683    4.121598   -2.063390
   2 C     6.0000    0    12.011   -2.794512    5.283053    0.387554
   3 C     6.0000    0    12.011   -3.340626    8.146245    0.590154
   4 C     6.0000    0    12.011   -0.849019    9.383385   -0.245929
   5 C     6.0000    0    12.011    1.151547    7.649184    0.938006
   6 N     7.0000    0    14.007   -0.025108    5.131649    0.724245
   7 C     6.0000    0    12.011    1.096745    2.840446    1.095369
   8 O     8.0000    0    15.999   -0.025753    0.838032    0.563830
   9 N     7.0000    0    14.007   -2.166410    4.052527   -4.045739
  10 C     6.0000    0    12.011   -2.805798    2.877456   -6.448872
  11 C     6.0000    0    12.011   -0.813214    0.857329   -7.122369
  12 N     7.0000    0    14.007    0.306207   -0.315601   -5.076416
  13 C     6.0000    0    12.011    2.678378   -1.661989   -5.432104
  14 C     6.0000    0    12.011    2.732639   -4.267624   -4.166901
  15 N     7.0000    0    14.007    0.467005   -5.268327   -3.497335
  16 C     6.0000    0    12.011    0.136000   -7.851524   -2.571089
  17 C     6.0000    0    12.011    1.755451   -8.560477   -0.229169
  18 C     6.0000    0    12.011    1.338107   -6.638858    2.000059
  19 C     6.0000    0    12.011    3.833131   -5.761001    3.240043
  20 N     7.0000    0    14.007    5.459864   -4.677141    1.532866
  21 C     6.0000    0    12.011    7.677101   -3.267122    2.327765
  22 C     6.0000    0    12.011    7.144680   -0.395479    2.485838
  23 N     7.0000    0    14.007    4.682513    0.257156    2.050568
  24 C     6.0000    0    12.011    3.715940    2.789914    2.339959
  25 C     6.0000    0    12.011    3.518992    3.523347    5.161501
  26 O     8.0000    0    15.999    8.803355    1.158135    2.986193
  27 C     6.0000    0    12.011    9.973626   -3.797872    0.640066
  28 C     6.0000    0    12.011   10.729922   -6.603744    0.491158
  29 C     6.0000    0    12.011   13.031025   -6.913359   -1.248717
  30 C     6.0000    0    12.011   11.211761   -7.757625    3.109842
  31 O     8.0000    0    15.999    4.298987   -5.836878    5.521924
  32 C     6.0000    0    12.011   -0.789238   -7.457062    3.785948
  33 C     6.0000    0    12.011   -1.030300   -6.251145    6.356474
  34 C     6.0000    0    12.011   -1.319924   -3.353828    6.357586
  35 C     6.0000    0    12.011   -3.711604   -2.413198    5.020113
  36 C     6.0000    0    12.011   -4.377859    0.328799    5.659417
  37 C     6.0000    0    12.011   -6.739861    1.303387    4.298713
  38 C     6.0000    0    12.011   -7.503603    3.994807    5.064575
  39 C     6.0000    0    12.011   -9.517823    5.156504    3.338410
  40 C     6.0000    0    12.011  -10.187087    7.898638    3.991635
  41 C     6.0000    0    12.011  -12.141337    9.060598    2.200593
  42 O     8.0000    0    15.999   -2.339866   -9.047737    3.068060
  43 O     8.0000    0    15.999    1.325896  -11.094049    0.425587
  44 O     8.0000    0    15.999    4.782441   -5.355516   -3.793471
  45 C     6.0000    0    12.011    4.984135   -0.082602   -4.608588
  46 C     6.0000    0    12.011    5.182406    2.468621   -5.944175
  47 O     8.0000    0    15.999   -0.253480    0.326064   -9.315948
  48 C     6.0000    0    12.011   -3.258130    4.874106   -8.549111
  49 C     6.0000    0    12.011   -0.827484    6.291852   -9.257093
  50 C     6.0000    0    12.011   -4.594907    3.753128  -10.866861
  51 H     1.0000    0     1.008   -3.733082    4.201199    1.906047
  52 H     1.0000    0     1.008   -3.767000    8.629549    2.585056
  53 H     1.0000    0     1.008   -4.997003    8.705725   -0.555314
  54 H     1.0000    0     1.008   -0.686101    9.357103   -2.337781
  55 H     1.0000    0     1.008   -0.653166   11.369226    0.380503
  56 H     1.0000    0     1.008    3.000276    7.695749   -0.044573
  57 H     1.0000    0     1.008    1.484285    8.161579    2.948840
  58 H     1.0000    0     1.008   -0.364555    4.684355   -3.753074
  59 H     1.0000    0     1.008   -4.631015    1.895174   -6.088870
  60 H     1.0000    0     1.008   -0.104087    0.306014   -3.273580
  61 H     1.0000    0     1.008    2.793202   -2.013751   -7.504673
  62 H     1.0000    0     1.008   -1.088026   -4.199653   -3.926653
  63 H     1.0000    0     1.008    0.608246   -9.233081   -4.079470
  64 H     1.0000    0     1.008   -1.884480   -8.091406   -2.079015
  65 H     1.0000    0     1.008    3.757171   -8.451245   -0.816121
  66 H     1.0000    0     1.008    0.576180   -4.869273    1.131596
  67 H     1.0000    0     1.008    5.212587   -4.946477   -0.390501
  68 H     1.0000    0     1.008    8.082238   -3.845888    4.304014
  69 H     1.0000    0     1.008    3.375439   -1.118714    1.663094
  70 H     1.0000    0     1.008    5.025341    4.130936    1.385018
  71 H     1.0000    0     1.008    5.423238    3.355987    6.008545
  72 H     1.0000    0     1.008    2.845906    5.484980    5.435539
  73 H     1.0000    0     1.008    2.214309    2.218622    6.150549
  74 H     1.0000    0     1.008   11.561447   -2.642255    1.377997
  75 H     1.0000    0     1.008    9.571694   -3.087594   -1.296747
  76 H     1.0000    0     1.008    9.124410   -7.643108   -0.385734
  77 H     1.0000    0     1.008   12.659982   -6.125316   -3.156188
  78 H     1.0000    0     1.008   14.704823   -5.917034   -0.463570
  79 H     1.0000    0     1.008   13.545035   -8.932196   -1.480557
  80 H     1.0000    0     1.008    9.496101   -7.737607    4.312842
  81 H     1.0000    0     1.008   11.829572   -9.753598    2.943342
  82 H     1.0000    0     1.008   12.722757   -6.709867    4.126048
  83 H     1.0000    0     1.008    0.735110   -6.736374    7.383235
  84 H     1.0000    0     1.008   -2.672770   -7.158564    7.286998
  85 H     1.0000    0     1.008    0.385202   -2.455507    5.524373
  86 H     1.0000    0     1.008   -1.351720   -2.730896    8.363580
  87 H     1.0000    0     1.008   -5.332509   -3.647845    5.542409
  88 H     1.0000    0     1.008   -3.491761   -2.601973    2.937251
  89 H     1.0000    0     1.008   -2.738891    1.565868    5.188264
  90 H     1.0000    0     1.008   -4.635071    0.509864    7.741071
  91 H     1.0000    0     1.008   -8.347681   -0.002970    4.660039
  92 H     1.0000    0     1.008   -6.428802    1.238625    2.219580
  93 H     1.0000    0     1.008   -5.796398    5.233727    5.053149
  94 H     1.0000    0     1.008   -8.158111    4.010181    7.064418
  95 H     1.0000    0     1.008  -11.258133    3.975158    3.410480
  96 H     1.0000    0     1.008   -8.846607    5.038505    1.348536
  97 H     1.0000    0     1.008   -8.430246    9.059568    3.962573
  98 H     1.0000    0     1.008  -10.887413    7.998969    5.973074
  99 H     1.0000    0     1.008  -12.581126   11.047620    2.702692
 100 H     1.0000    0     1.008  -11.457264    9.039386    0.216678
 101 H     1.0000    0     1.008  -13.942111    7.984650    2.241328
 102 H     1.0000    0     1.008   -0.379571  -11.093228    1.188316
 103 H     1.0000    0     1.008    6.684121   -1.247621   -4.977226
 104 H     1.0000    0     1.008    4.909889    0.183480   -2.528475
 105 H     1.0000    0     1.008    6.892590    3.505134   -5.323114
 106 H     1.0000    0     1.008    5.267901    2.253861   -8.026225
 107 H     1.0000    0     1.008    3.529016    3.695610   -5.531866
 108 H     1.0000    0     1.008   -4.576585    6.246053   -7.652860
 109 H     1.0000    0     1.008    0.087871    7.158557   -7.577720
 110 H     1.0000    0     1.008    0.549482    5.002426  -10.164687
 111 H     1.0000    0     1.008   -1.240504    7.847343  -10.598138
 112 H     1.0000    0     1.008   -6.363257    2.769870  -10.315167
 113 H     1.0000    0     1.008   -5.109608    5.272601  -12.215730
 114 H     1.0000    0     1.008   -3.360081    2.378036  -11.842065

--------------------------------
INTERNAL COORDINATES (ANGSTROEM)
--------------------------------
 O      0   0   0     0.000000000000     0.00000000     0.00000000
 C      1   0   0     1.231413462438     0.00000000     0.00000000
 C      2   1   0     1.533228049244   120.56939702     0.00000000
 C      3   2   1     1.546171634840   112.68887916   273.78653578
 C      4   3   2     1.537134995620   103.71369567   261.17392172
 C      5   4   3     1.534743441340   102.68052563   321.19568457
 N      6   5   4     1.474895259052   102.56743557    35.78031984
 C      7   6   5     1.364199776791   127.44741900   168.04382661
 O      8   7   6     1.246905324508   121.03083423   188.63830969
 N      2   1   3     1.364413973552   123.53473026   181.80335251
 C     10   2   1     1.455444853536   122.32284633   354.65045752
 C     11  10   2     1.543248038106   109.80943296   235.40273964
 N     12  11  10     1.381425374918   115.03847629    30.30418242
 C     13  12  11     1.455619025115   119.23414356   198.11305183
 C     14  13  12     1.533063515176   113.57257457   225.64962634
 N     15  14  13     1.357710706506   116.62987110    16.97985546
 C     16  15  14     1.462713641990   123.89652859   171.93561902
 C     17  16  15     1.552738069301   115.28724986    55.68769299
 C     18  17  16     1.573023635353   111.39930109    54.24744979
 C     19  18  17     1.545825880959   113.12139536   226.04778335
 N     20  19  18     1.373362081454   112.43542134    57.14320074
 C     21  20  19     1.452700514729   122.02497408   167.38565404
 C     22  21  20     1.547768010856   111.89519503   265.43359200
 N     23  22  21     1.367455554025   114.34942788     4.80238265
 C     24  23  22     1.442711678591   123.67949284   173.82374623
 C     25  24  23     1.546231029490   111.07451084   287.57317009
 O     23  22  21     1.231434445642   122.50348447   184.14599649
 C     22  21  20     1.534071074291   112.16156269   140.17259552
 C     28  22  21     1.539812442679   114.34511410   302.68680273
 C     29  28  22     1.535353156391   109.86004262   179.76146755
 C     29  28  22     1.535627774129   112.35838854   304.54805835
 O     20  19  18     1.233080485766   125.21535566   232.36311976
 C     19  18  17     1.532281428650   112.52021029    91.01939141
 C     33  19  18     1.507918423205   119.92978391   164.34365725
 C     34  33  19     1.540835491222   115.45838451    57.33509988
 C     35  34  33     1.533130507859   113.89076614    62.33521680
 C     36  35  34     1.531065448351   113.31476749   163.65079005
 C     37  36  35     1.531910228141   113.77090941   179.02606298
 C     38  37  36     1.534941000052   113.77251640   176.38150001
 C     39  38  37     1.532447251420   113.45161815   168.36464731
 C     40  39  38     1.533146099300   113.95099415   183.31191740
 C     41  40  39     1.531606626382   113.35478024   178.20579705
 O     33  19  18     1.235382989771   119.39714249   342.09594021
 O     18  17  16     1.403288726357   109.78561373   181.73823082
 O     15  14  13     1.243807892527   120.13241114   197.18250187
 C     14  13  12     1.541819457193   112.37030822    99.37411203
 C     46  14  13     1.527466453818   113.74629842   303.46910722
 O     12  11  10     1.230531107610   122.72275029   210.40182273
 C     11  10   2     1.552052510125   111.75733392   107.46776567
 C     49  11  10     1.535460893412   112.21956469    67.39565988
 C     49  11  10     1.535118383800   112.34183683   195.09617405
 H      3   2   1     1.104592314549   104.44495441    35.49675833
 H      4   3   2     1.109382173729   109.26297935   143.32829682
 H      4   3   2     1.106055966260   111.86499141    24.57257240
 H      5   4   3     1.110399807491   110.37746901    78.69926077
 H      5   4   3     1.106769866202   113.48444020   199.63339393
 H      6   5   4     1.108172329458   113.83610133   155.65692059
 H      6   5   4     1.112118194324   110.73300111   277.14353879
 H     10   2   1     1.022221815907   118.07889405   181.25981525
 H     11  10   2     1.113273054206   104.57556548   351.05322156
 H     13  12  11     1.032230059020   119.40460667   354.51919774
 H     14  13  12     1.114099175987   104.83926798   341.12236950
 H     16  15  14     1.023995452906   115.86932622     0.98928684
 H     17  16  15     1.110884844545   110.32357216   294.53149437
 H     17  16  15     1.107741054579   107.54443917   176.85414028
 H     18  17  16     1.105376068477   106.97691004   296.25198512
 H     19  18  17     1.118329528721   106.48334700   338.87715290
 H     21  20  19     1.036029500187   120.63770089   343.04559384
 H     22  21  20     1.110599972093   106.67425949    19.46690525
 H     24  23  22     1.024965090860   119.81983678     0.08897759
 H     25  24  23     1.113132921937   108.86697756    47.20657440
 H     26  25  24     1.106428956761   108.04229538    58.34516018
 H     26  25  24     1.106998514339   112.55422099   177.95187227
 H     26  25  24     1.107829522960   109.98503119   299.42201871
 H     28  22  21     1.110159521293   107.09449172   179.73874318
 H     28  22  21     1.112190075620   108.85172866    65.05760989
 H     29  28  22     1.113397591226   107.41796142    62.98798256
 H     30  29  28     1.109649313465   111.41050516   303.70035449
 H     30  29  28     1.111362760444   110.93309864    63.58344868
 H     30  29  28     1.109211192777   111.32084635   183.40812574
 H     31  29  28     1.108888085834   112.22925682    62.49983963
 H     31  29  28     1.109168432555   110.84892467   182.35742458
 H     31  29  28     1.111722959739   110.95374021   301.77300145
 H     34  33  19     1.110812881027   105.79929429   297.63015866
 H     34  33  19     1.108369509235   106.48472877   180.60011878
 H     35  34  33     1.111105978674   110.16878683   297.68864589
 H     35  34  33     1.111658435478   107.27335710   183.53758800
 H     36  35  34     1.113095004707   109.32589235    41.98468602
 H     36  35  34     1.112818749917   109.98625437   286.11669552
 H     37  36  35     1.114862650716   109.14264107    56.55769679
 H     37  36  35     1.114069169605   109.15480647   301.83203414
 H     38  37  36     1.112809348087   109.50746138    53.81419630
 H     38  37  36     1.113002730183   109.48784136   298.83831697
 H     39  38  37     1.116250688707   109.29565419    46.61757184
 H     39  38  37     1.113536369523   109.85288005   292.35341595
 H     40  39  38     1.113720098049   109.24204524    60.59829326
 H     40  39  38     1.113041728509   108.62964361   306.16507835
 H     41  40  39     1.114429169644   109.02193540    55.99616646
 H     41  40  39     1.113364602699   109.53373618   301.22141683
 H     42  41  40     1.109226005451   111.96258647   180.47640143
 H     42  41  40     1.110556596746   111.15159871   301.00489867
 H     42  41  40     1.110277730783   111.19987532    60.14606839
 H     44  18  17     0.988637527922   104.37406406   286.71229380
 H     46  14  13     1.107879494624   106.92848569   180.86500711
 H     46  14  13     1.110412958119   108.71855163    66.95121584
 H     47  46  14     1.108093209406   110.87710401   181.44721809
 H     47  46  14     1.108542444832   111.84331803   302.30185862
 H     47  46  14     1.111171538215   111.80953057    61.88398825
 H     49  11  10     1.113012931024   103.62659201   311.03623228
 H     50  49  11     1.111189245522   111.82020892   305.53551267
 H     50  49  11     1.107786864380   110.84429226    66.50867233
 H     50  49  11     1.108565139263   110.72235423   186.38436067
 H     51  49  11     1.109787379642   111.07214068    53.43391767
 H     51  49  11     1.109148616894   110.31600252   172.63664750
 H     51  49  11     1.105802762978   110.78356523   293.13891183

---------------------------
INTERNAL COORDINATES (A.U.)
---------------------------
 O      0   0   0     0.000000000000     0.00000000     0.00000000
 C      1   0   0     2.327034201631     0.00000000     0.00000000
 C      2   1   0     2.897381113918   120.56939702     0.00000000
 C      3   2   1     2.921840945886   112.68887916   273.78653578
 C      4   3   2     2.904764172588   103.71369567   261.17392172
 C      5   4   3     2.900244789965   102.68052563   321.19568457
 N      6   5   4     2.787148115827   102.56743557    35.78031984
 C      7   6   5     2.577963970092   127.44741900   168.04382661
 O      8   7   6     2.356309578248   121.03083423   188.63830969
 N      2   1   3     2.578368743308   123.53473026   181.80335251
 C     10   2   1     2.750392176207   122.32284633   354.65045752
 C     11  10   2     2.916316148732   109.80943296   235.40273964
 N     12  11  10     2.610515633045   115.03847629    30.30418242
 C     13  12  11     2.750721312793   119.23414356   198.11305183
 C     14  13  12     2.897070189590   113.57257457   225.64962634
 N     15  14  13     2.565701404390   116.62987110    16.97985546
 C     16  15  14     2.764128195711   123.89652859   171.93561902
 C     17  16  15     2.934249708693   115.28724986    55.68769299
 C     18  17  16     2.972583873003   111.39930109    54.24744979
 C     19  18  17     2.921187565739   113.12139536   226.04778335
 N     20  19  18     2.595278216660   112.43542134    57.14320074
 C     21  20  19     2.745206127444   122.02497408   167.38565404
 C     22  21  20     2.924857659362   111.89519503   265.43359200
 N     23  22  21     2.584116497417   114.34942788     4.80238265
 C     24  23  22     2.726329962747   123.67949284   173.82374623
 C     25  24  23     2.921953185508   111.07451084   287.57317009
 O     23  22  21     2.327073854140   122.50348447   184.14599649
 C     22  21  20     2.898974200381   112.16156269   140.17259552
 C     28  22  21     2.909823814267   114.34511410   302.68680273
 C     29  28  22     2.901396984431   109.86004262   179.76146755
 C     29  28  22     2.901915936748   112.35838854   304.54805835
 O     20  19  18     2.330184419181   125.21535566   232.36311976
 C     19  18  17     2.895592260241   112.52021029    91.01939141
 C     33  19  18     2.849552852151   119.92978391   164.34365725
 C     34  33  19     2.911757095836   115.45838451    57.33509988
 C     35  34  33     2.897196787413   113.89076614    62.33521680
 C     36  35  34     2.893294390493   113.31476749   163.65079005
 C     37  36  35     2.894890792940   113.77090941   179.02606298
 C     38  37  36     2.900618121825   113.77251640   176.38150001
 C     39  38  37     2.895905619864   113.45161815   168.36464731
 C     40  39  38     2.897226250967   113.95099415   183.31191740
 C     41  40  39     2.894317068760   113.35478024   178.20579705
 O     33  19  18     2.334535521173   119.39714249   342.09594021
 O     18  17  16     2.651831379634   109.78561373   181.73823082
 O     15  14  13     2.350456280085   120.13241114   197.18250187
 C     14  13  12     2.913616522046   112.37030822    99.37411203
 C     46  14  13     2.886493276468   113.74629842   303.46910722
 O     12  11  10     2.325366792654   122.72275029   210.40182273
 C     11  10   2     2.932954189601   111.75733392   107.46776567
 C     49  11  10     2.901600577895   112.21956469    67.39565988
 C     49  11  10     2.900953328530   112.34183683   195.09617405
 H      3   2   1     2.087376964132   104.44495441    35.49675833
 H      4   3   2     2.096428486201   109.26297935   143.32829682
 H      4   3   2     2.090142865020   111.86499141    24.57257240
 H      5   4   3     2.098351535317   110.37746901    78.69926077
 H      5   4   3     2.091491940398   113.48444020   199.63339393
 H      6   5   4     2.094142211865   113.83610133   155.65692059
 H      6   5   4     2.101598815824   110.73300111   277.14353879
[...]
freq.      80.62  E(vib)   ...       0.48 
freq.      87.56  E(vib)   ...       0.48 
freq.      92.70  E(vib)   ...       0.47 
freq.      99.16  E(vib)   ...       0.46 
freq.     105.40  E(vib)   ...       0.45 
freq.     106.36  E(vib)   ...       0.45 
freq.     112.63  E(vib)   ...       0.45 
freq.     122.79  E(vib)   ...       0.43 
freq.     129.16  E(vib)   ...       0.43 
freq.     132.50  E(vib)   ...       0.42 
freq.     138.76  E(vib)   ...       0.42 
freq.     142.42  E(vib)   ...       0.41 
freq.     143.73  E(vib)   ...       0.41 
freq.     152.77  E(vib)   ...       0.40 
freq.     156.34  E(vib)   ...       0.40 
freq.     160.21  E(vib)   ...       0.39 
freq.     164.38  E(vib)   ...       0.39 
freq.     166.67  E(vib)   ...       0.39 
freq.     185.74  E(vib)   ...       0.37 
freq.     189.22  E(vib)   ...       0.36 
freq.     193.89  E(vib)   ...       0.36 
freq.     206.97  E(vib)   ...       0.35 
freq.     212.08  E(vib)   ...       0.34 
freq.     216.29  E(vib)   ...       0.34 
freq.     221.33  E(vib)   ...       0.33 
freq.     225.55  E(vib)   ...       0.33 
freq.     226.61  E(vib)   ...       0.33 
freq.     230.41  E(vib)   ...       0.32 
freq.     235.76  E(vib)   ...       0.32 
freq.     237.84  E(vib)   ...       0.32 
freq.     238.99  E(vib)   ...       0.32 
freq.     246.07  E(vib)   ...       0.31 
freq.     249.22  E(vib)   ...       0.31 
freq.     253.94  E(vib)   ...       0.30 
freq.     256.33  E(vib)   ...       0.30 
freq.     259.11  E(vib)   ...       0.30 
freq.     263.10  E(vib)   ...       0.29 
freq.     279.18  E(vib)   ...       0.28 
freq.     282.05  E(vib)   ...       0.28 
freq.     287.80  E(vib)   ...       0.27 
freq.     293.39  E(vib)   ...       0.27 
freq.     301.68  E(vib)   ...       0.26 
freq.     303.16  E(vib)   ...       0.26 
freq.     318.49  E(vib)   ...       0.25 
freq.     333.79  E(vib)   ...       0.24 
freq.     348.28  E(vib)   ...       0.23 
freq.     349.94  E(vib)   ...       0.23 
freq.     362.01  E(vib)   ...       0.22 
freq.     364.53  E(vib)   ...       0.22 
freq.     388.49  E(vib)   ...       0.20 
freq.     389.24  E(vib)   ...       0.20 
freq.     395.35  E(vib)   ...       0.20 
freq.     408.61  E(vib)   ...       0.19 
freq.     410.32  E(vib)   ...       0.19 
freq.     426.72  E(vib)   ...       0.18 
freq.     429.03  E(vib)   ...       0.18 
freq.     440.97  E(vib)   ...       0.17 
freq.     444.73  E(vib)   ...       0.17 
freq.     458.08  E(vib)   ...       0.16 
freq.     461.35  E(vib)   ...       0.16 
freq.     466.79  E(vib)   ...       0.16 
freq.     473.70  E(vib)   ...       0.15 
freq.     477.69  E(vib)   ...       0.15 
freq.     484.70  E(vib)   ...       0.15 
freq.     507.33  E(vib)   ...       0.14 
freq.     513.96  E(vib)   ...       0.13 
freq.     542.13  E(vib)   ...       0.12 
freq.     548.51  E(vib)   ...       0.12 
freq.     555.74  E(vib)   ...       0.12 
freq.     567.98  E(vib)   ...       0.11 
freq.     575.63  E(vib)   ...       0.11 
freq.     585.33  E(vib)   ...       0.11 
freq.     594.43  E(vib)   ...       0.10 
freq.     617.47  E(vib)   ...       0.09 
freq.     629.13  E(vib)   ...       0.09 
freq.     647.93  E(vib)   ...       0.08 
freq.     656.30  E(vib)   ...       0.08 
freq.     663.56  E(vib)   ...       0.08 
freq.     669.59  E(vib)   ...       0.08 
freq.     676.19  E(vib)   ...       0.08 
freq.     708.12  E(vib)   ...       0.07 
freq.     714.38  E(vib)   ...       0.07 
freq.     715.99  E(vib)   ...       0.07 
freq.     723.90  E(vib)   ...       0.06 
freq.     732.64  E(vib)   ...       0.06 
freq.     737.32  E(vib)   ...       0.06 
freq.     747.01  E(vib)   ...       0.06 
freq.     750.28  E(vib)   ...       0.06 
freq.     758.26  E(vib)   ...       0.06 
freq.     766.36  E(vib)   ...       0.06 
freq.     774.72  E(vib)   ...       0.05 
freq.     776.48  E(vib)   ...       0.05 
freq.     786.95  E(vib)   ...       0.05 
freq.     796.66  E(vib)   ...       0.05 
freq.     803.59  E(vib)   ...       0.05 
freq.     812.24  E(vib)   ...       0.05 
freq.     828.09  E(vib)   ...       0.04 
freq.     835.48  E(vib)   ...       0.04 
freq.     841.55  E(vib)   ...       0.04 
freq.     847.11  E(vib)   ...       0.04 
freq.     850.68  E(vib)   ...       0.04 
freq.     867.05  E(vib)   ...       0.04 
freq.     874.50  E(vib)   ...       0.04 
freq.     877.78  E(vib)   ...       0.04 
freq.     881.64  E(vib)   ...       0.04 
freq.     887.88  E(vib)   ...       0.04 
freq.     896.06  E(vib)   ...       0.03 
freq.     900.33  E(vib)   ...       0.03 
freq.     903.70  E(vib)   ...       0.03 
freq.     907.58  E(vib)   ...       0.03 
freq.     914.77  E(vib)   ...       0.03 
freq.     920.84  E(vib)   ...       0.03 
freq.     928.47  E(vib)   ...       0.03 
freq.     937.69  E(vib)   ...       0.03 
freq.     939.57  E(vib)   ...       0.03 
freq.     942.49  E(vib)   ...       0.03 
freq.     950.71  E(vib)   ...       0.03 
freq.     956.54  E(vib)   ...       0.03 
freq.     962.87  E(vib)   ...       0.03 
freq.     969.03  E(vib)   ...       0.03 
freq.     970.15  E(vib)   ...       0.03 
freq.     978.48  E(vib)   ...       0.03 
freq.     982.81  E(vib)   ...       0.02 
freq.     987.86  E(vib)   ...       0.02 
freq.     992.70  E(vib)   ...       0.02 
freq.     999.08  E(vib)   ...       0.02 
freq.    1005.68  E(vib)   ...       0.02 
freq.    1015.50  E(vib)   ...       0.02 
freq.    1026.67  E(vib)   ...       0.02 
freq.    1028.40  E(vib)   ...       0.02 
freq.    1032.72  E(vib)   ...       0.02 
freq.    1034.46  E(vib)   ...       0.02 
freq.    1044.14  E(vib)   ...       0.02 
freq.    1047.69  E(vib)   ...       0.02 
freq.    1051.68  E(vib)   ...       0.02 
freq.    1053.52  E(vib)   ...       0.02 
freq.    1058.68  E(vib)   ...       0.02 
freq.    1059.76  E(vib)   ...       0.02 
freq.    1065.86  E(vib)   ...       0.02 
freq.    1070.23  E(vib)   ...       0.02 
freq.    1081.91  E(vib)   ...       0.02 
freq.    1085.07  E(vib)   ...       0.02 
freq.    1089.96  E(vib)   ...       0.02 
freq.    1092.60  E(vib)   ...       0.02 
freq.    1102.74  E(vib)   ...       0.02 
freq.    1106.73  E(vib)   ...       0.02 
freq.    1116.31  E(vib)   ...       0.01 
freq.    1126.69  E(vib)   ...       0.01 
freq.    1132.85  E(vib)   ...       0.01 
freq.    1133.01  E(vib)   ...       0.01 
freq.    1136.60  E(vib)   ...       0.01 
freq.    1143.19  E(vib)   ...       0.01 
freq.    1151.65  E(vib)   ...       0.01 
freq.    1157.31  E(vib)   ...       0.01 
freq.    1158.92  E(vib)   ...       0.01 
freq.    1160.21  E(vib)   ...       0.01 
freq.    1163.73  E(vib)   ...       0.01 
freq.    1171.25  E(vib)   ...       0.01 
freq.    1177.86  E(vib)   ...       0.01 
freq.    1179.38  E(vib)   ...       0.01 
freq.    1189.66  E(vib)   ...       0.01 
freq.    1193.93  E(vib)   ...       0.01 
freq.    1198.04  E(vib)   ...       0.01 
freq.    1201.32  E(vib)   ...       0.01 
freq.    1206.05  E(vib)   ...       0.01 
freq.    1216.33  E(vib)   ...       0.01 
freq.    1219.65  E(vib)   ...       0.01 
freq.    1228.71  E(vib)   ...       0.01 
freq.    1230.93  E(vib)   ...       0.01 
freq.    1236.06  E(vib)   ...       0.01 
freq.    1243.01  E(vib)   ...       0.01 
freq.    1244.94  E(vib)   ...       0.01 
freq.    1246.44  E(vib)   ...       0.01 
freq.    1247.39  E(vib)   ...       0.01 
freq.    1247.84  E(vib)   ...       0.01 
freq.    1251.50  E(vib)   ...       0.01 
freq.    1258.83  E(vib)   ...       0.01 
freq.    1259.39  E(vib)   ...       0.01 
freq.    1261.99  E(vib)   ...       0.01 
freq.    1274.66  E(vib)   ...       0.01 
freq.    1280.60  E(vib)   ...       0.01 
freq.    1281.05  E(vib)   ...       0.01 
freq.    1283.39  E(vib)   ...       0.01 
freq.    1287.75  E(vib)   ...       0.01 
freq.    1290.59  E(vib)   ...       0.01 
freq.    1292.19  E(vib)   ...       0.01 
freq.    1295.01  E(vib)   ...       0.01 
freq.    1296.64  E(vib)   ...       0.01 
freq.    1299.32  E(vib)   ...       0.01 
freq.    1299.53  E(vib)   ...       0.01 
freq.    1301.74  E(vib)   ...       0.01 
freq.    1306.10  E(vib)   ...       0.01 
freq.    1307.30  E(vib)   ...       0.01 
freq.    1310.47  E(vib)   ...       0.01 
freq.    1317.61  E(vib)   ...       0.01 
freq.    1319.58  E(vib)   ...       0.01 
freq.    1323.43  E(vib)   ...       0.01 
freq.    1325.53  E(vib)   ...       0.01 
freq.    1330.12  E(vib)   ...       0.01 
freq.    1330.86  E(vib)   ...       0.01 
freq.    1333.67  E(vib)   ...       0.01 
freq.    1335.08  E(vib)   ...       0.01 
freq.    1336.64  E(vib)   ...       0.01 
freq.    1345.85  E(vib)   ...       0.01 
freq.    1348.97  E(vib)   ...       0.01 
freq.    1349.58  E(vib)   ...       0.01 
freq.    1350.40  E(vib)   ...       0.01 
freq.    1351.61  E(vib)   ...       0.01 
freq.    1355.13  E(vib)   ...       0.01 
freq.    1363.79  E(vib)   ...       0.01 
freq.    1364.70  E(vib)   ...       0.01 
freq.    1367.89  E(vib)   ...       0.01 
freq.    1372.52  E(vib)   ...       0.01 
freq.    1392.15  E(vib)   ...       0.00 
freq.    1403.37  E(vib)   ...       0.00 
freq.    1426.59  E(vib)   ...       0.00 
freq.    1428.07  E(vib)   ...       0.00 
freq.    1429.64  E(vib)   ...       0.00 
freq.    1430.42  E(vib)   ...       0.00 
freq.    1434.08  E(vib)   ...       0.00 
freq.    1435.50  E(vib)   ...       0.00 
freq.    1435.97  E(vib)   ...       0.00 
freq.    1437.25  E(vib)   ...       0.00 
freq.    1437.58  E(vib)   ...       0.00 
freq.    1441.15  E(vib)   ...       0.00 
freq.    1441.66  E(vib)   ...       0.00 
freq.    1446.08  E(vib)   ...       0.00 
freq.    1446.25  E(vib)   ...       0.00 
freq.    1447.06  E(vib)   ...       0.00 
freq.    1447.33  E(vib)   ...       0.00 
freq.    1449.07  E(vib)   ...       0.00 
freq.    1450.23  E(vib)   ...       0.00 
freq.    1450.99  E(vib)   ...       0.00 
freq.    1452.00  E(vib)   ...       0.00 
freq.    1452.81  E(vib)   ...       0.00 
freq.    1453.73  E(vib)   ...       0.00 
freq.    1456.06  E(vib)   ...       0.00 
freq.    1456.18  E(vib)   ...       0.00 
freq.    1460.10  E(vib)   ...       0.00 
freq.    1461.18  E(vib)   ...       0.00 
freq.    1464.02  E(vib)   ...       0.00 
freq.    1464.32  E(vib)   ...       0.00 
freq.    1468.78  E(vib)   ...       0.00 
freq.    1469.54  E(vib)   ...       0.00 
freq.    1471.09  E(vib)   ...       0.00 
freq.    1487.85  E(vib)   ...       0.00 
freq.    1494.63  E(vib)   ...       0.00 
freq.    1508.21  E(vib)   ...       0.00 
freq.    1612.30  E(vib)   ...       0.00 
freq.    1643.25  E(vib)   ...       0.00 
freq.    1655.07  E(vib)   ...       0.00 
freq.    1677.38  E(vib)   ...       0.00 
freq.    1680.97  E(vib)   ...       0.00 
freq.    1683.28  E(vib)   ...       0.00 
freq.    1688.13  E(vib)   ...       0.00 
freq.    2889.77  E(vib)   ...       0.00 
freq.    2912.03  E(vib)   ...       0.00 
freq.    2922.90  E(vib)   ...       0.00 
freq.    2928.75  E(vib)   ...       0.00 
freq.    2938.80  E(vib)   ...       0.00 
freq.    2941.80  E(vib)   ...       0.00 
freq.    2943.04  E(vib)   ...       0.00 
freq.    2943.46  E(vib)   ...       0.00 
freq.    2943.93  E(vib)   ...       0.00 
freq.    2947.03  E(vib)   ...       0.00 
freq.    2947.85  E(vib)   ...       0.00 
freq.    2951.91  E(vib)   ...       0.00 
freq.    2954.30  E(vib)   ...       0.00 
freq.    2955.29  E(vib)   ...       0.00 
freq.    2957.55  E(vib)   ...       0.00 
freq.    2957.82  E(vib)   ...       0.00 
freq.    2957.89  E(vib)   ...       0.00 
freq.    2958.02  E(vib)   ...       0.00 
freq.    2958.30  E(vib)   ...       0.00 
freq.    2960.78  E(vib)   ...       0.00 
freq.    2961.21  E(vib)   ...       0.00 
freq.    2964.17  E(vib)   ...       0.00 
freq.    2967.54  E(vib)   ...       0.00 
freq.    2969.43  E(vib)   ...       0.00 
freq.    2970.80  E(vib)   ...       0.00 
freq.    2973.85  E(vib)   ...       0.00 
freq.    2977.82  E(vib)   ...       0.00 
freq.    2980.05  E(vib)   ...       0.00 
freq.    2981.12  E(vib)   ...       0.00 
freq.    2981.47  E(vib)   ...       0.00 
freq.    2982.28  E(vib)   ...       0.00 
freq.    2988.89  E(vib)   ...       0.00 
freq.    2992.79  E(vib)   ...       0.00 
freq.    2998.91  E(vib)   ...       0.00 
freq.    3003.43  E(vib)   ...       0.00 
freq.    3012.28  E(vib)   ...       0.00 
freq.    3012.57  E(vib)   ...       0.00 
freq.    3017.32  E(vib)   ...       0.00 
freq.    3020.03  E(vib)   ...       0.00 
freq.    3021.76  E(vib)   ...       0.00 
freq.    3023.15  E(vib)   ...       0.00 
freq.    3024.80  E(vib)   ...       0.00 
freq.    3026.82  E(vib)   ...       0.00 
freq.    3027.37  E(vib)   ...       0.00 
freq.    3029.65  E(vib)   ...       0.00 
freq.    3032.52  E(vib)   ...       0.00 
freq.    3033.30  E(vib)   ...       0.00 
freq.    3035.28  E(vib)   ...       0.00 
freq.    3035.84  E(vib)   ...       0.00 
freq.    3044.96  E(vib)   ...       0.00 
freq.    3047.96  E(vib)   ...       0.00 
freq.    3049.26  E(vib)   ...       0.00 
freq.    3049.37  E(vib)   ...       0.00 
freq.    3055.14  E(vib)   ...       0.00 
freq.    3057.21  E(vib)   ...       0.00 
freq.    3057.89  E(vib)   ...       0.00 
freq.    3067.63  E(vib)   ...       0.00 
freq.    3069.85  E(vib)   ...       0.00 
freq.    3312.82  E(vib)   ...       0.00 
freq.    3367.93  E(vib)   ...       0.00 
freq.    3465.07  E(vib)   ...       0.00 
freq.    3474.65  E(vib)   ...       0.00 
freq.    3489.23  E(vib)   ...       0.00 
freq.    3499.80  E(vib)   ...       0.00 

------------
INNER ENERGY
------------

The inner energy is: U= E(el) + E(ZPE) + E(vib) + E(rot) + E(trans)
    E(el)   - is the total energy from the electronic structure calculation
              = E(kin-el) + E(nuc-el) + E(el-el) + E(nuc-nuc)
    E(ZPE)  - the the zero temperature vibrational energy from the frequency calculation
    E(vib)  - the the finite temperature correction to E(ZPE) due to population
              of excited vibrational states
    E(rot)  - is the rotational thermal energy
    E(trans)- is the translational thermal energy

Summary of contributions to the inner energy U:
Electronic energy                ...  -2380.08527508 Eh
Zero point energy                ...      0.97748027 Eh     613.38 kcal/mol
Thermal vibrational correction   ...      0.05544743 Eh      34.79 kcal/mol
Thermal rotational correction    ...      0.00141627 Eh       0.89 kcal/mol
Thermal translational correction ...      0.00141627 Eh       0.89 kcal/mol
-----------------------------------------------------------------------
Total thermal energy                  -2379.04951484 Eh


Summary of corrections to the electronic energy:
(perhaps to be used in another calculation)
Total thermal correction                  0.05827997 Eh      36.57 kcal/mol
Non-thermal (ZPE) correction              0.97748027 Eh     613.38 kcal/mol
-----------------------------------------------------------------------
Total correction                          1.03576024 Eh     649.95 kcal/mol


--------
ENTHALPY
--------

The enthalpy is H = U + kB*T
                kB is Boltzmann's constant
Total free energy                 ...  -2379.04951484 Eh 
Thermal Enthalpy correction       ...      0.00094421 Eh       0.59 kcal/mol
-----------------------------------------------------------------------
Total Enthalpy                    ...  -2379.04857063 Eh


Note: Only C1 symmetry has been detected, increase convergence thresholds 
      if your molecule has a higher symmetry. Symmetry factor of 1.0 is   
      used for the rotational entropy correction. 
 

Note: Rotational entropy computed according to Herzberg 
Infrared and Raman Spectra, Chapter V,1, Van Nostrand Reinhold, 1945 
Point Group:  C1, Symmetry Number:   1  
Rotational constants in cm-1:     0.002423     0.001450     0.001251 

Vibrational entropy computed according to the QRRHO of S. Grimme
Chem.Eur.J. 2012 18 9955


-------
ENTROPY
-------

The entropy contributions are T*S = T*(S(el)+S(vib)+S(rot)+S(trans))
     S(el)   - electronic entropy
     S(vib)  - vibrational entropy
     S(rot)  - rotational entropy
     S(trans)- translational entropy
The entropies will be listed as mutliplied by the temperature to get
units of energy

Electronic entropy                ...      0.00000000 Eh      0.00 kcal/mol
Vibrational entropy               ...      0.10224341 Eh     64.16 kcal/mol
Rotational entropy                ...      0.01859498 Eh     11.67 kcal/mol
Translational entropy             ...      0.02166895 Eh     13.60 kcal/mol
-----------------------------------------------------------------------
Final entropy term                ...      0.14250734 Eh     89.42 kcal/mol

In case the symmetry of your molecule has not been determined correctly
or in case you have a reason to use a different symmetry number we print 
out the resulting rotational entropy values for sn=1,12 :
 --------------------------------------------------------
|  sn= 1 | S(rot)=       0.01859498 Eh     11.67 kcal/mol|
|  sn= 2 | S(rot)=       0.01794052 Eh     11.26 kcal/mol|
|  sn= 3 | S(rot)=       0.01755769 Eh     11.02 kcal/mol|
|  sn= 4 | S(rot)=       0.01728607 Eh     10.85 kcal/mol|
|  sn= 5 | S(rot)=       0.01707538 Eh     10.71 kcal/mol|
|  sn= 6 | S(rot)=       0.01690323 Eh     10.61 kcal/mol|
|  sn= 7 | S(rot)=       0.01675769 Eh     10.52 kcal/mol|
|  sn= 8 | S(rot)=       0.01663161 Eh     10.44 kcal/mol|
|  sn= 9 | S(rot)=       0.01652040 Eh     10.37 kcal/mol|
|  sn=10 | S(rot)=       0.01642092 Eh     10.30 kcal/mol|
|  sn=11 | S(rot)=       0.01633093 Eh     10.25 kcal/mol|
|  sn=12 | S(rot)=       0.01624878 Eh     10.20 kcal/mol|
 --------------------------------------------------------


-------------------
GIBBS FREE ENERGY
-------------------

The Gibbs free energy is G = H - T*S

Total enthalpy                    ...  -2379.04857063 Eh 
Total entropy correction          ...     -0.14250734 Eh    -89.42 kcal/mol
-----------------------------------------------------------------------
Final Gibbs free energy         ...  -2379.19107797 Eh

For completeness - the Gibbs free energy minus the electronic energy
G-E(el)                           ...      0.89419711 Eh    561.12 kcal/mol

--------------------------------------------------------------------------
WARNING: No preset parameters were found for the device that Open MPI
detected:

  Local host:            eu-g1-033-3
  Device name:           mlx5_0
  Device vendor ID:      0x02c9
  Device vendor part ID: 4123

Default device parameters will be used, which may result in lower
performance.  You can edit any of the files specified by the
btl_openib_device_param_files MCA parameter to set values for your
device.

NOTE: You can turn off this warning by setting the MCA parameter
      btl_openib_warn_no_device_params_found to 0.
--------------------------------------------------------------------------
--------------------------------------------------------------------------
WARNING: There was an error initializing an OpenFabrics device.

  Local host:   eu-g1-033-3
  Local device: mlx5_0
--------------------------------------------------------------------------

Timings for individual modules:

Sum of individual times         ...    39320.584 sec (= 655.343 min)
GTO integral calculation        ...      131.669 sec (=   2.194 min)   0.3 %
SCF iterations                  ...     3815.347 sec (=  63.589 min)   9.7 %
SCF Gradient evaluation         ...     1387.298 sec (=  23.122 min)   3.5 %
Geometry relaxation             ...       61.691 sec (=   1.028 min)   0.2 %
Analytical frequency calculation...    33924.579 sec (= 565.410 min)  86.3 %
                             ****ORCA TERMINATED NORMALLY****
TOTAL RUN TIME: 0 days 10 hours 56 minutes 33 seconds 846 msec
