
                                 *****************
                                 * O   R   C   A *
                                 *****************

           --- An Ab Initio, DFT and Semiempirical electronic structure package ---

                  #######################################################
                  #                        -***-                        #
                  #          Department of theory and spectroscopy      #
                  #               Directorship: Frank Neese             #
                  #        Max Planck Institute fuer Kohlenforschung    #
                  #                Kaiser Wilhelm Platz 1               #
                  #                 D-45470 Muelheim/Ruhr               #
                  #                      Germany                        #
                  #                                                     #
                  #                  All rights reserved                #
                  #                        -***-                        #
                  #######################################################


                         Program Version 4.2.0 -  RELEASE  -


 With contributions from (in alphabetic order):
   Daniel Aravena         : Magnetic Suceptibility
   Michael Atanasov       : Ab Initio Ligand Field Theory (pilot matlab implementation)
   Alexander A. Auer      : GIAO ZORA, VPT2
   Ute Becker             : Parallelization
   Giovanni Bistoni       : ED, misc. LED, open-shell LED, HFLED
   Martin Brehm           : Molecular dynamics
   Dmytro Bykov           : SCF Hessian
   Vijay G. Chilkuri      : MRCI spin determinant printing, contributions to CSF-ICE
   Dipayan Datta          : RHF DLPNO-CCSD density
   Achintya Kumar Dutta   : EOM-CC, STEOM-CC
   Dmitry Ganyushin       : Spin-Orbit,Spin-Spin,Magnetic field MRCI
   Miquel Garcia          : C-PCM Hessian, Gaussian charge scheme
   Yang Guo               : DLPNO-NEVPT2, CIM, IAO-localization
   Andreas Hansen         : Spin unrestricted coupled pair/coupled cluster methods
   Benjamin Helmich-Paris : CASSCF linear response (MC-RPA)
   Lee Huntington         : MR-EOM, pCC
   Robert Izsak           : Overlap fitted RIJCOSX, COSX-SCS-MP3, EOM
   Christian Kollmar      : KDIIS, OOCD, Brueckner-CCSD(T), CCSD density
   Simone Kossmann        : Meta GGA functionals, TD-DFT gradient, OOMP2, MP2 Hessian
   Martin Krupicka        : AUTO-CI
   Lucas Lang             : DCDCAS
   Dagmar Lenk            : GEPOL surface, SMD
   Dimitrios Liakos       : Extrapolation schemes; Compound Job, initial MDCI parallelization
   Dimitrios Manganas     : Further ROCIS development; embedding schemes
   Dimitrios Pantazis     : SARC Basis sets
   Taras Petrenko         : DFT Hessian,TD-DFT gradient, ASA, ECA, R-Raman, ABS, FL, XAS/XES, NRVS
   Peter Pinski           : DLPNO-MP2, DLPNO-MP2 Gradient
   Christoph Reimann      : Effective Core Potentials
   Marius Retegan         : Local ZFS, SOC
   Christoph Riplinger    : Optimizer, TS searches, QM/MM, DLPNO-CCSD(T), (RO)-DLPNO pert. Triples
   Tobias Risthaus        : Range-separated hybrids, TD-DFT gradient, RPA, STAB
   Michael Roemelt        : Original ROCIS implementation
   Masaaki Saitow         : Open-shell DLPNO-CCSD energy and density
   Barbara Sandhoefer     : DKH picture change effects
   Avijit Sen             : IP-ROCIS
   Kantharuban Sivalingam : CASSCF convergence, NEVPT2, FIC-MRCI
   Bernardo de Souza      : ESD, SOC TD-DFT
   Georgi Stoychev        : AutoAux, RI-MP2 NMR
   Willem Van den Heuvel  : Paramagnetic NMR
   Boris Wezisla          : Elementary symmetry handling
   Frank Wennmohs         : Technical directorship


 We gratefully acknowledge several colleagues who have allowed us to
 interface, adapt or use parts of their codes:
   Stefan Grimme, W. Hujo, H. Kruse,             : VdW corrections, initial TS optimization,
                  C. Bannwarth                     DFT functionals, gCP, sTDA/sTD-DF
   Ed Valeev, F. Pavosevic, A. Kumar             : LibInt (2-el integral package), F12 methods
   Garnet Chan, S. Sharma, J. Yang, R. Olivares  : DMRG
   Ulf Ekstrom                                   : XCFun DFT Library
   Mihaly Kallay                                 : mrcc  (arbitrary order and MRCC methods)
   Andreas Klamt, Michael Diedenhofen            : otool_cosmo (COSMO solvation model)
   Jiri Pittner, Ondrej Demel                    : Mk-CCSD
   Frank Weinhold                                : gennbo (NPA and NBO analysis)
   Christopher J. Cramer and Donald G. Truhlar   : smd solvation model
   Lars Goerigk                                  : TD-DFT with DH, B97 family of functionals
   V. Asgeirsson, H. Jonsson                     : NEB implementation
   FAccTs GmbH                                   : IRC, NEB, NEB-TS, Multilevel, MM, QM/MM, CI optimization
   S Lehtola, MJT Oliveira, MAL Marques          : LibXC Library


 Your calculation uses the libint2 library for the computation of 2-el integrals
 For citations please refer to: http://libint.valeyev.net

 Your ORCA version has been built with support for libXC version: 4.2.3
 For citations please refer to: https://tddft.org/programs/libxc/

 This ORCA versions uses:
   CBLAS   interface :  Fast vector & matrix operations
   LAPACKE interface :  Fast linear algebra routines
   SCALAPACK package :  Parallel linear algebra routines




***************************************
The coordinates will be read from file: 20.xyz
***************************************


Your calculation utilizes the atom-pairwise dispersion correction
with the Becke-Johnson damping scheme (D3BJ)
Cite in your paper:
S.Grimme, S.Ehrlich, L.Goerigk, J Comput Chem, (2011), 32, 1456–1465 
S.Grimme, J.Antony, S.Ehrlich and H.Krieg, J.Chem.Phys., 132, (2010), 154104 
   

----- Orbital basis set information -----
Your calculation utilizes the basis: def2-TZVP
   F. Weigend and R. Ahlrichs, Phys. Chem. Chem. Phys. 7, 3297 (2005).

----- AuxJ basis set information -----
Your calculation utilizes the auxiliary basis: def2/J
   F. Weigend, Phys. Chem. Chem. Phys. 8, 1057 (2006).

================================================================================
                                        WARNINGS
                       Please study these warnings very carefully!
================================================================================


WARNING: Geometry Optimization
  ===> : Switching off AutoStart
         For restart on a previous wavefunction, please use MOREAD

INFO   : the flag for use of LIBINT has been found!

================================================================================
                                       INPUT FILE
================================================================================
NAME = 20.inp
|  1> !RI BP86 def2-tzvp def2/J D3BJ TIGHTSCF TightOpt Grid5 FinalGrid6 freq
|  2> %maxcore 4000
|  3> %pal nprocs 24
|  4> end
|  5> * xyzfile 0 1 20.xyz 
|  6> 
|  7>                          ****END OF INPUT****
================================================================================

                       *****************************
                       * Geometry Optimization Run *
                       *****************************

Geometry optimization settings:
Update method            Update   .... BFGS
Choice of coordinates    CoordSys .... Z-matrix Internals
Initial Hessian          InHess   .... Almoef's Model

Convergence Tolerances:
Energy Change            TolE     ....  1.0000e-06 Eh
Max. Gradient            TolMAXG  ....  1.0000e-04 Eh/bohr
RMS Gradient             TolRMSG  ....  3.0000e-05 Eh/bohr
Max. Displacement        TolMAXD  ....  1.0000e-03 bohr
RMS Displacement         TolRMSD  ....  6.0000e-04 bohr
Strict Convergence                ....  False
------------------------------------------------------------------------------
                        ORCA OPTIMIZATION COORDINATE SETUP
------------------------------------------------------------------------------

The optimization will be done in new redundant internal coordinates
Making redundant internal coordinates   ...  (new redundants) done
Evaluating the initial hessian          ...  (Almloef) done
Evaluating the coordinates              ...  done
Calculating the B-matrix                .... done
Calculating the G-matrix                .... done
Diagonalizing the G-matrix              .... done
Small eigenvalue found = 4.480e-04
Small eigenvalue found = 6.451e-04
Small eigenvalue found = 1.558e-03
Small eigenvalue found = 2.842e-03
Small eigenvalue found = 3.270e-03
Small eigenvalue found = 4.763e-03
Small eigenvalue found = 5.337e-03
Small eigenvalue found = 6.468e-03
Small eigenvalue found = 8.284e-03
Small eigenvalue found = 9.207e-03
Small eigenvalue found = 1.086e-02
Small eigenvalue found = 1.272e-02
Small eigenvalue found = 1.361e-02
Small eigenvalue found = 1.639e-02
Small eigenvalue found = 1.892e-02
Small eigenvalue found = 2.150e-02
Small eigenvalue found = 2.229e-02
Small eigenvalue found = 2.718e-02
Small eigenvalue found = 2.796e-02
The first mode is                       ....  325
The number of degrees of freedom        ....  339

    -----------------------------------------------------------------
                    Redundant Internal Coordinates


    -----------------------------------------------------------------
         Definition                    Initial Value    Approx d2E/dq
    -----------------------------------------------------------------
      1. B(C   1,O   0)                  1.2368         0.982366   
      2. B(C   2,C   1)                  1.5299         0.373762   
      3. B(C   3,C   2)                  1.5370         0.364136   
      4. B(C   4,C   3)                  1.5323         0.370403   
      5. B(C   5,C   4)                  1.5302         0.373294   
      6. B(N   6,C   5)                  1.4796         0.402638   
      7. B(N   6,C   2)                  1.4781         0.404941   
      8. B(C   7,N   6)                  1.3664         0.610199   
      9. B(O   8,C   7)                  1.2434         0.958915   
     10. B(N   9,C   1)                  1.3522         0.642907   
     11. B(C  10,N   9)                  1.4605         0.431941   
     12. B(C  11,C  10)                  1.5481         0.349600   
     13. B(N  12,C  11)                  1.3597         0.625470   
     14. B(C  13,N  12)                  1.4573         0.437068   
     15. B(C  14,C  13)                  1.5418         0.357777   
     16. B(N  15,C  14)                  1.3517         0.644198   
     17. B(C  16,N  15)                  1.4593         0.433750   
     18. B(C  17,C  16)                  1.5473         0.350542   
     19. B(C  18,C  17)                  1.5462         0.351979   
     20. B(C  19,C  18)                  1.5274         0.377163   
     21. B(N  20,C  19)                  1.3530         0.641036   
     22. B(C  21,N  20)                  1.4658         0.423649   
     23. B(C  22,C  21)                  1.5515         0.345265   
     24. B(N  23,C  22)                  1.3749         0.591495   
     25. B(C  24,N  23)                  1.4637         0.426863   
     26. B(C  24,C   7)                  1.5394         0.360893   
     27. B(C  25,C  24)                  1.5292         0.374730   
     28. B(O  26,C  22)                  1.2246         1.027387   
     29. B(C  27,C  21)                  1.5293         0.374554   
     30. B(C  28,C  27)                  1.5366         0.364670   
     31. B(C  29,C  28)                  1.5314         0.371653   
     32. B(C  30,C  28)                  1.5324         0.370259   
     33. B(O  31,C  19)                  1.2479         0.943067   
     34. B(C  32,C  18)                  1.5453         0.353216   
     35. B(C  33,C  32)                  1.5057         0.408461   
     36. B(C  34,C  33)                  1.5233         0.382898   
     37. B(C  35,C  34)                  1.5301         0.373476   
     38. B(C  36,C  35)                  1.5298         0.373899   
     39. B(C  37,C  36)                  1.5301         0.373422   
     40. B(C  38,C  37)                  1.5303         0.373157   
     41. B(C  39,C  38)                  1.5314         0.371617   
     42. B(C  40,C  39)                  1.5347         0.367128   
     43. B(C  41,C  40)                  1.5314         0.371707   
     44. B(O  42,C  32)                  1.2198         1.045592   
     45. B(O  43,C  17)                  1.4335         0.476953   
     46. B(O  44,C  14)                  1.2448         0.953936   
     47. B(C  45,C  13)                  1.5351         0.366583   
     48. B(C  46,C  45)                  1.5291         0.374756   
     49. B(O  47,C  11)                  1.2304         1.005739   
     50. B(C  48,C  10)                  1.5480         0.349723   
     51. B(C  49,C  48)                  1.5350         0.366821   
     52. B(C  50,C  48)                  1.5309         0.372281   
     53. B(H  51,C   2)                  1.0971         0.350824   
     54. B(H  52,C   3)                  1.0992         0.348155   
     55. B(H  53,C   3)                  1.0957         0.352627   
     56. B(H  54,C   4)                  1.1006         0.346393   
     57. B(H  55,C   4)                  1.0967         0.351298   
     58. B(H  56,C   5)                  1.0947         0.353939   
     59. B(H  57,C   5)                  1.1019         0.344648   
     60. B(H  58,N   9)                  1.0169         0.421871   
     61. B(H  59,C  10)                  1.0991         0.348305   
     62. B(H  60,N  12)                  1.0252         0.409177   
     63. B(H  61,C  13)                  1.1031         0.343179   
     64. B(H  62,N  15)                  1.0232         0.412295   
     65. B(H  63,C  16)                  1.0997         0.347511   
     66. B(H  64,C  16)                  1.0959         0.352339   
     67. B(H  65,H  51)                  2.1261         0.001533   
     68. B(H  65,C  17)                  1.1063         0.339167   
     69. B(H  66,C  18)                  1.0978         0.349983   
     70. B(H  67,N  20)                  1.0295         0.402739   
     71. B(H  68,C  21)                  1.1022         0.344358   
     72. B(H  69,N  23)                  1.0291         0.403411   
     73. B(H  70,C  24)                  1.0984         0.349173   
     74. B(H  71,C  25)                  1.0979         0.349772   
     75. B(H  72,C  25)                  1.1000         0.347103   
     76. B(H  73,C  25)                  1.0957         0.352633   
     77. B(H  74,C  27)                  1.0992         0.348108   
     78. B(H  75,C  27)                  1.1034         0.342802   
     79. B(H  76,C  28)                  1.1059         0.339673   
     80. B(H  77,C  29)                  1.0989         0.348504   
     81. B(H  78,C  29)                  1.1008         0.346053   
     82. B(H  79,C  29)                  1.0997         0.347538   
     83. B(H  80,C  30)                  1.0997         0.347431   
     84. B(H  81,C  30)                  1.0996         0.347663   
     85. B(H  82,C  30)                  1.1015         0.345174   
     86. B(H  83,C  33)                  1.1047         0.341167   
     87. B(H  84,C  33)                  1.1037         0.342372   
     88. B(H  85,C  34)                  1.1013         0.345420   
     89. B(H  86,C  34)                  1.1014         0.345380   
     90. B(H  87,C  35)                  1.1044         0.341521   
     91. B(H  88,H  78)                  2.8982         0.000090   
     92. B(H  88,C  35)                  1.1045         0.341382   
     93. B(H  89,C  36)                  1.1041         0.341963   
     94. B(H  90,C  36)                  1.1042         0.341859   
     95. B(H  91,C  37)                  1.1045         0.341397   
     96. B(H  92,C  37)                  1.1045         0.341476   
     97. B(H  93,C  38)                  1.1047         0.341119   
     98. B(H  94,C  38)                  1.1028         0.343583   
     99. B(H  95,C  39)                  1.1048         0.341046   
    100. B(H  96,C  39)                  1.1034         0.342832   
    101. B(H  97,C  40)                  1.1022         0.344366   
    102. B(H  98,C  40)                  1.1037         0.342479   
    103. B(H  99,C  41)                  1.0994         0.347862   
    104. B(H 100,C  41)                  1.1012         0.345578   
    105. B(H 101,C  41)                  1.0993         0.347981   
    106. B(H 102,O  43)                  0.9981         0.452039   
    107. B(H 103,C  45)                  1.1009         0.346025   
    108. B(H 104,C  45)                  1.0994         0.347904   
    109. B(H 105,C  46)                  1.0988         0.348683   
    110. B(H 106,O   8)                  2.9223         0.000385   
    111. B(H 106,C  46)                  1.0990         0.348388   
    112. B(H 107,C  46)                  1.0972         0.350728   
    113. B(H 108,C  48)                  1.1054         0.340343   
    114. B(H 109,H  72)                  3.6440         0.000006   
    115. B(H 109,C  49)                  1.1013         0.345516   
    116. B(H 110,C  49)                  1.0992         0.348195   
    117. B(H 111,C  49)                  1.0987         0.348819   
    118. B(H 112,C  50)                  1.0989         0.348557   
    119. B(H 113,C  50)                  1.0992         0.348075   
    120. B(H 114,C  50)                  1.0980         0.349711   
    121. A(O   0,C   1,N   9)          123.4323         0.468780   
    122. A(C   2,C   1,N   9)          117.5696         0.396703   
    123. A(O   0,C   1,C   2)          118.9034         0.427693   
    124. A(C   1,C   2,H  51)          102.9336         0.322959   
    125. A(N   6,C   2,H  51)          108.0650         0.325281   
    126. A(C   1,C   2,N   6)          116.4144         0.366136   
    127. A(C   1,C   2,C   3)          113.9030         0.361798   
    128. A(C   3,C   2,H  51)          111.2885         0.321582   
    129. A(C   3,C   2,N   6)          104.2584         0.364504   
    130. A(C   4,C   3,H  53)          114.3124         0.322753   
    131. A(C   4,C   3,H  52)          109.9633         0.322079   
    132. A(C   2,C   3,C   4)          103.3185         0.361241   
    133. A(C   2,C   3,H  53)          111.4037         0.321852   
    134. A(C   2,C   3,H  52)          109.1857         0.321180   
    135. A(H  52,C   3,H  53)          108.5114         0.288356   
    136. A(H  54,C   4,H  55)          108.1222         0.287957   
    137. A(C   3,C   4,H  55)          113.2173         0.322553   
    138. A(C   3,C   4,C   5)          103.0347         0.362776   
    139. A(C   3,C   4,H  54)          110.4726         0.321811   
    140. A(C   5,C   4,H  55)          111.9762         0.322965   
    141. A(C   5,C   4,H  54)          109.9661         0.322221   
    142. A(H  56,C   5,H  57)          109.2053         0.288067   
    143. A(C   4,C   5,N   6)          103.0111         0.365700   
    144. A(C   4,C   5,H  56)          112.5737         0.323362   
    145. A(N   6,C   5,H  57)          110.3528         0.324029   
    146. A(N   6,C   5,H  56)          110.8684         0.325448   
    147. A(C   4,C   5,H  57)          110.7181         0.321955   
    148. A(C   5,N   6,C   7)          128.1891         0.395709   
    149. A(C   2,N   6,C   7)          117.9256         0.396105   
    150. A(C   2,N   6,C   5)          111.1886         0.368525   
    151. A(O   8,C   7,C  24)          118.1904         0.423185   
    152. A(N   6,C   7,O   8)          119.9472         0.462272   
    153. A(N   6,C   7,C  24)          121.6016         0.390686   
    154. A(C   1,N   9,C  10)          121.8602         0.404329   
    155. A(C  10,N   9,H  58)          118.6886         0.336064   
    156. A(C   1,N   9,H  58)          116.9564         0.359336   
    157. A(C  48,C  10,H  59)          109.2301         0.319090   
    158. A(C  11,C  10,H  59)          104.4770         0.319072   
    159. A(N   9,C  10,C  11)          112.7163         0.365993   
    160. A(N   9,C  10,C  48)          109.3575         0.366015   
    161. A(N   9,C  10,H  59)          108.6178         0.328367   
    162. A(C  11,C  10,C  48)          112.2446         0.355258   
    163. A(N  12,C  11,O  47)          124.0993         0.468438   
    164. A(C  10,C  11,O  47)          120.0676         0.424389   
    165. A(C  10,C  11,N  12)          115.8269         0.390203   
    166. A(C  13,N  12,H  60)          116.9916         0.335018   
    167. A(C  11,N  12,C  13)          122.4716         0.403211   
    168. A(C  11,N  12,H  60)          120.2028         0.355807   
    169. A(C  14,C  13,C  45)          112.3239         0.359522   
    170. A(N  12,C  13,H  61)          105.5022         0.328203   
    171. A(C  14,C  13,H  61)          107.9753         0.319504   
    172. A(N  12,C  13,C  14)          108.9664         0.368191   
    173. A(C  45,C  13,H  61)          108.7700         0.320776   
    174. A(N  12,C  13,C  45)          112.9660         0.369732   
    175. A(C  13,C  14,N  15)          115.4893         0.393812   
    176. A(N  15,C  14,O  44)          122.7818         0.466436   
    177. A(C  13,C  14,O  44)          121.7277         0.422137   
    178. A(C  14,N  15,H  62)          119.2345         0.358057   
    179. A(C  16,N  15,H  62)          116.8108         0.335016   
    180. A(C  14,N  15,C  16)          121.9083         0.404771   
    181. A(H  63,C  16,H  64)          107.6034         0.288235   
    182. A(C  17,C  16,H  64)          111.4547         0.319813   
    183. A(N  15,C  16,H  63)          110.9845         0.328470   
    184. A(C  17,C  16,H  63)          108.8693         0.319093   
    185. A(N  15,C  16,C  17)          110.8080         0.366424   
    186. A(N  15,C  16,H  64)          107.0780         0.329219   
    187. A(O  43,C  17,H  65)          108.9769         0.332330   
    188. A(C  18,C  17,H  65)          106.5776         0.318043   
    189. A(C  16,C  17,H  65)          106.6098         0.317831   
    190. A(C  16,C  17,C  18)          114.0257         0.355808   
    191. A(C  18,C  17,O  43)          108.8164         0.372713   
    192. A(C  16,C  17,O  43)          111.5956         0.372451   
    193. A(C  19,C  18,H  66)          105.0026         0.323312   
    194. A(C  17,C  18,H  66)          107.6751         0.319676   
    195. A(C  17,C  18,C  32)          110.4965         0.356267   
    196. A(C  17,C  18,C  19)          110.4960         0.360265   
    197. A(C  19,C  18,C  32)          117.7201         0.360480   
    198. A(C  32,C  18,H  66)          104.6960         0.319859   
    199. A(C  18,C  19,N  20)          116.0617         0.397131   
    200. A(N  20,C  19,O  31)          123.2916         0.465039   
    201. A(C  18,C  19,O  31)          120.5790         0.425266   
    202. A(C  19,N  20,H  67)          115.9038         0.356335   
    203. A(C  19,N  20,C  21)          123.5987         0.402742   
    204. A(C  21,N  20,H  67)          118.5977         0.332412   
    205. A(C  27,C  21,H  68)          110.6344         0.322088   
    206. A(C  22,C  21,H  68)          108.0459         0.317832   
    207. A(N  20,C  21,H  68)          106.6916         0.326705   
    208. A(N  20,C  21,C  22)          107.3329         0.364003   
    209. A(C  22,C  21,C  27)          112.1721         0.358661   
    210. A(N  20,C  21,C  27)          111.7152         0.369118   
    211. A(C  21,C  22,N  23)          112.2973         0.385581   
    212. A(C  21,C  22,O  26)          123.5934         0.425059   
    213. A(N  23,C  22,O  26)          124.0799         0.465482   
    214. A(C  22,N  23,C  24)          120.6798         0.397609   
    215. A(C  24,N  23,H  69)          118.4928         0.332921   
    216. A(C  22,N  23,H  69)          115.1819         0.351611   
    217. A(C  25,C  24,H  70)          108.7372         0.322847   
    218. A(N  23,C  24,H  70)          105.1240         0.327862   
    219. A(C   7,C  24,H  70)          103.5909         0.320864   
    220. A(N  23,C  24,C  25)          112.8687         0.369627   
    221. A(C   7,C  24,N  23)          105.2966         0.367248   
    222. A(C   7,C  24,C  25)          119.9289         0.361406   
    223. A(H  71,C  25,H  73)          107.4955         0.288566   
    224. A(C  24,C  25,H  73)          112.7135         0.323369   
    225. A(H  71,C  25,H  72)          107.9794         0.287853   
    226. A(C  24,C  25,H  72)          111.2100         0.322532   
    227. A(C  24,C  25,H  71)          108.3881         0.322937   
    228. A(H  72,C  25,H  73)          108.8789         0.288220   
    229. A(C  28,C  27,H  75)          109.7848         0.320444   
    230. A(C  21,C  27,C  28)          114.7954         0.362019   
    231. A(H  74,C  27,H  75)          105.2904         0.287079   
    232. A(C  21,C  27,H  75)          109.2376         0.321849   
    233. A(C  28,C  27,H  74)          109.5940         0.321250   
    234. A(C  21,C  27,H  74)          107.6928         0.322660   
    235. A(C  29,C  28,C  30)          110.8031         0.362479   
    236. A(C  27,C  28,C  30)          109.9144         0.361307   
    237. A(C  27,C  28,C  29)          112.9047         0.361539   
    238. A(C  30,C  28,H  76)          107.9581         0.320761   
    239. A(C  29,C  28,H  76)          107.8919         0.320958   
    240. A(C  27,C  28,H  76)          107.1619         0.319964   
    241. A(C  28,C  29,H  79)          110.9157         0.322163   
    242. A(H  78,C  29,H  79)          107.6961         0.287429   
    243. A(H  77,C  29,H  79)          107.6646         0.287746   
    244. A(H  77,C  29,H  78)          107.7060         0.287553   
    245. A(C  28,C  29,H  78)          110.8172         0.321937   
    246. A(C  28,C  29,H  77)          111.8637         0.322309   
    247. A(H  81,C  30,H  82)          107.6539         0.287331   
    248. A(H  80,C  30,H  82)          107.7105         0.287301   
    249. A(C  28,C  30,H  82)          110.6103         0.321605   
    250. A(H  80,C  30,H  81)          108.0652         0.287623   
    251. A(C  28,C  30,H  81)          111.1918         0.321984   
    252. A(C  28,C  30,H  80)          111.4503         0.321948   
    253. A(C  33,C  32,O  42)          123.2974         0.439481   
    254. A(C  18,C  32,O  42)          118.1882         0.428141   
    255. A(C  18,C  32,C  33)          118.5027         0.365423   
    256. A(C  32,C  33,C  34)          114.7471         0.370518   
    257. A(C  34,C  33,H  84)          111.4117         0.322947   
    258. A(H  83,C  33,H  84)          104.5904         0.286122   
    259. A(C  32,C  33,H  84)          106.8419         0.326394   
    260. A(C  34,C  33,H  83)          111.1825         0.322760   
    261. A(C  32,C  33,H  83)          107.4535         0.326205   
    262. A(C  33,C  34,C  35)          112.1767         0.364870   
    263. A(H  85,C  34,H  86)          105.7150         0.287067   
    264. A(C  35,C  34,H  86)          110.0856         0.322092   
    265. A(C  33,C  34,H  86)          109.4270         0.323410   
    266. A(C  35,C  34,H  85)          110.0504         0.322099   
    267. A(C  33,C  34,H  85)          109.1768         0.323417   
    268. A(C  34,C  35,C  36)          113.3531         0.363389   
    269. A(H  87,C  35,H  88)          105.8224         0.286039   
    270. A(C  36,C  35,H  88)          109.2273         0.321538   
    271. A(C  34,C  35,H  88)          109.4238         0.321479   
    272. A(C  36,C  35,H  87)          109.2870         0.321560   
    273. A(C  34,C  35,H  87)          109.4513         0.321500   
    274. A(C  35,C  36,C  37)          113.4044         0.363380   
    275. A(H  89,C  36,H  90)          105.9104         0.286159   
    276. A(C  37,C  36,H  90)          109.3566         0.321545   
    277. A(C  35,C  36,H  90)          109.2686         0.321612   
    278. A(C  37,C  36,H  89)          109.3654         0.321561   
    279. A(C  35,C  36,H  89)          109.2626         0.321628   
    280. A(C  36,C  37,C  38)          113.5277         0.363257   
    281. A(H  91,C  37,H  92)          105.8846         0.286035   
    282. A(C  38,C  37,H  92)          109.3084         0.321448   
    283. A(C  36,C  37,H  92)          109.3129         0.321486   
    284. A(C  38,C  37,H  91)          109.2510         0.321436   
    285. A(C  36,C  37,H  91)          109.2731         0.321474   
    286. A(C  37,C  38,C  39)          113.2165         0.362956   
    287. A(H  93,C  38,H  94)          106.0045         0.286273   
    288. A(C  39,C  38,H  94)          109.9774         0.321555   
    289. A(C  37,C  38,H  94)          108.9163         0.321772   
    290. A(C  39,C  38,H  93)          109.1735         0.321176   
    291. A(C  37,C  38,H  93)          109.2977         0.321393   
    292. A(C  38,C  39,C  40)          114.4168         0.361948   
    293. A(H  95,C  39,H  96)          105.9987         0.286166   
    294. A(C  40,C  39,H  96)          109.0004         0.320801   
    295. A(C  38,C  39,H  96)          108.7445         0.321439   
    296. A(C  40,C  39,H  95)          109.1792         0.320527   
    297. A(C  38,C  39,H  95)          109.1645         0.321165   
    298. A(C  39,C  40,C  41)          114.0292         0.361963   
    299. A(H  97,C  40,H  98)          106.0187         0.286552   
    300. A(C  41,C  40,H  98)          109.5053         0.321398   
    301. A(C  39,C  40,H  98)          109.0630         0.320747   
    302. A(C  41,C  40,H  97)          109.1095         0.321687   
    303. A(C  39,C  40,H  97)          108.8059         0.321035   
    304. A(H 100,C  41,H 101)          107.5559         0.287424   
    305. A(H  99,C  41,H 101)          107.3992         0.287720   
    306. A(C  40,C  41,H 101)          111.8142         0.322238   
    307. A(H  99,C  41,H 100)          107.6689         0.287409   
    308. A(C  40,C  41,H 100)          110.9346         0.321872   
    309. A(C  40,C  41,H  99)          111.2662         0.322220   
    310. A(C  17,O  43,H 102)          103.1367         0.345651   
    311. A(C  13,C  45,C  46)          114.4577         0.362376   
    312. A(C  46,C  45,H 104)          110.0214         0.322658   
    313. A(C  13,C  45,H 104)          107.6001         0.321495   
    314. A(C  46,C  45,H 103)          110.2359         0.322371   
    315. A(C  13,C  45,H 103)          106.9852         0.321210   
    316. A(H 103,C  45,H 104)          107.2429         0.287472   
    317. A(H 106,C  46,H 107)          107.7259         0.288142   
    318. A(H 105,C  46,H 107)          107.9511         0.288181   
    319. A(C  45,C  46,H 107)          111.4289         0.323086   
    320. A(H 105,C  46,H 106)          107.6032         0.287879   
    321. A(C  45,C  46,H 106)          111.5702         0.322731   
    322. A(C  45,C  46,H 105)          110.3961         0.322776   
    323. A(C  50,C  48,H 108)          108.0218         0.321150   
    324. A(C  49,C  48,H 108)          108.4447         0.320375   
    325. A(C  10,C  48,H 108)          105.2926         0.317889   
    326. A(C  49,C  48,C  50)          111.0270         0.362007   
    327. A(C  10,C  48,C  50)          111.2545         0.359073   
    328. A(C  10,C  48,C  49)          112.5022         0.358171   
    329. A(H 110,C  49,H 111)          107.9210         0.287872   
    330. A(H 109,C  49,H 111)          107.4067         0.287524   
    331. A(C  48,C  49,H 111)          110.2363         0.321667   
    332. A(H 109,C  49,H 110)          107.0655         0.287444   
    333. A(C  48,C  49,H 110)          110.8131         0.321573   
    334. A(C  48,C  49,H 109)          113.1807         0.321166   
    335. A(H 113,C  50,H 114)          108.5834         0.287971   
    336. A(H 112,C  50,H 114)          107.5007         0.288033   
    337. A(C  48,C  50,H 114)          110.9743         0.322581   
    338. A(H 112,C  50,H 113)          108.2497         0.287822   
    339. A(C  48,C  50,H 113)          110.1355         0.322334   
    340. A(C  48,C  50,H 112)          111.2916         0.322407   
    341. D(H  51,C   2,C   1,N   9)   -124.0018         0.010447   
    342. D(C   3,C   2,C   1,N   9)    115.3849         0.010447   
    343. D(N   6,C   2,C   1,N   9)     -6.0112         0.010447   
    344. D(N   6,C   2,C   1,O   0)    170.5742         0.010447   
    345. D(C   3,C   2,C   1,O   0)    -68.0297         0.010447   
    346. D(H  51,C   2,C   1,O   0)     52.5837         0.010447   
    347. D(C   4,C   3,C   2,N   6)     27.0202         0.010621   
    348. D(H  53,C   3,C   2,H  51)    -93.5458         0.010621   
    349. D(H  53,C   3,C   2,C   1)     22.2676         0.010621   
    350. D(C   4,C   3,C   2,H  51)    143.2775         0.010621   
    351. D(H  53,C   3,C   2,N   6)    150.1969         0.010621   
    352. D(H  52,C   3,C   2,H  51)     26.2860         0.010621   
    353. D(C   4,C   3,C   2,C   1)   -100.9090         0.010621   
    354. D(H  52,C   3,C   2,C   1)    142.0994         0.010621   
    355. D(H  52,C   3,C   2,N   6)    -89.9713         0.010621   
    356. D(H  55,C   4,C   3,H  53)     79.0034         0.010966   
    357. D(H  55,C   4,C   3,H  52)    -43.3248         0.010966   
    358. D(H  54,C   4,C   3,H  52)   -164.7523         0.010966   
    359. D(H  55,C   4,C   3,C   2)   -159.7670         0.010966   
    360. D(H  54,C   4,C   3,H  53)    -42.4241         0.010966   
    361. D(C   5,C   4,C   3,C   2)    -38.6175         0.010966   
    362. D(H  54,C   4,C   3,C   2)     78.8055         0.010966   
    363. D(C   5,C   4,C   3,H  53)   -159.8470         0.010966   
    364. D(C   5,C   4,C   3,H  52)     77.8247         0.010966   
    365. D(N   6,C   5,C   4,C   3)     35.1286         0.011128   
    366. D(H  57,C   5,C   4,C   3)    -82.8436         0.011128   
    367. D(H  56,C   5,C   4,H  55)    -83.4088         0.011128   
    368. D(H  56,C   5,C   4,C   3)    154.6010         0.011128   
    369. D(H  57,C   5,C   4,H  54)    159.3767         0.011128   
    370. D(H  56,C   5,C   4,H  54)     36.8213         0.011128   
    371. D(H  57,C   5,C   4,H  55)     39.1466         0.011128   
    372. D(N   6,C   5,C   4,H  54)    -82.6511         0.011128   
    373. D(N   6,C   5,C   4,H  55)    157.1188         0.011128   
    374. D(C   5,N   6,C   2,C   3)     -5.1165         0.013994   
    375. D(C   7,N   6,C   5,H  57)    -61.3724         0.013838   
    376. D(C   7,N   6,C   5,H  56)     59.7529         0.013838   
    377. D(C   7,N   6,C   5,C   4)   -179.6008         0.013838   
    378. D(C   2,N   6,C   5,H  57)     99.3589         0.013838   
    379. D(C   2,N   6,C   5,H  56)   -139.5158         0.013838   
    380. D(C   7,N   6,C   2,H  51)     39.3285         0.013994   
    381. D(C   2,N   6,C   5,C   4)    -18.8695         0.013838   
    382. D(C   7,N   6,C   2,C   3)    157.8127         0.013994   
    383. D(C   5,N   6,C   2,C   1)    121.2558         0.013994   
    384. D(C   7,N   6,C   2,C   1)    -75.8150         0.013994   
    385. D(C   5,N   6,C   2,H  51)   -123.6007         0.013994   
    386. D(C  24,C   7,N   6,C   5)      2.4343         0.030077   
    387. D(C  24,C   7,N   6,C   2)   -157.1860         0.030077   
    388. D(O   8,C   7,N   6,C   5)    176.4615         0.030077   
    389. D(O   8,C   7,N   6,C   2)     16.8412         0.030077   
    390. D(H  58,N   9,C   1,O   0)   -173.8299         0.033668   
    391. D(C  10,N   9,C   1,C   2)    164.4229         0.033668   
    392. D(H  58,N   9,C   1,C   2)      2.5880         0.033668   
    393. D(C  10,N   9,C   1,O   0)    -11.9950         0.033668   
    394. D(H  59,C  10,N   9,C   1)     60.6454         0.015907   
    395. D(C  48,C  10,N   9,H  58)    -18.6965         0.015907   
    396. D(C  48,C  10,N   9,C   1)    179.7712         0.015907   
    397. D(C  11,C  10,N   9,C   1)    -54.6328         0.015907   
    398. D(H  59,C  10,N   9,H  58)   -137.8223         0.015907   
    399. D(C  11,C  10,N   9,H  58)    106.8995         0.015907   
    400. D(O  47,C  11,C  10,N   9)    154.3918         0.009237   
    401. D(N  12,C  11,C  10,H  59)   -144.2245         0.009237   
    402. D(N  12,C  11,C  10,C  48)     97.5389         0.009237   
    403. D(N  12,C  11,C  10,N   9)    -26.4792         0.009237   
    404. D(O  47,C  11,C  10,H  59)     36.6465         0.009237   
    405. D(O  47,C  11,C  10,C  48)    -81.5901         0.009237   
    406. D(H  60,N  12,C  11,O  47)    179.6775         0.031722   
    407. D(H  60,N  12,C  11,C  10)      0.5878         0.031722   
    408. D(C  13,N  12,C  11,O  47)     -7.1607         0.031722   
    409. D(C  13,N  12,C  11,C  10)    173.7496         0.031722   
    410. D(H  61,C  13,N  12,C  11)    -10.6245         0.016288   
    411. D(H  61,C  13,N  12,H  60)    162.7441         0.016288   
    412. D(C  45,C  13,N  12,H  60)    -78.5571         0.016288   
    413. D(C  45,C  13,N  12,C  11)    108.0744         0.016288   
    414. D(C  14,C  13,N  12,C  11)   -126.3439         0.016288   
    415. D(C  14,C  13,N  12,H  60)     47.0246         0.016288   
    416. D(O  44,C  14,C  13,C  45)    -11.7126         0.009635   
    417. D(O  44,C  14,C  13,N  12)   -137.6662         0.009635   
    418. D(N  15,C  14,C  13,H  61)    -72.1741         0.009635   
    419. D(N  15,C  14,C  13,C  45)    167.8979         0.009635   
    420. D(O  44,C  14,C  13,H  61)    108.2154         0.009635   
    421. D(N  15,C  14,C  13,N  12)     41.9444         0.009635   
    422. D(H  62,N  15,C  14,O  44)    173.8063         0.033815   
    423. D(H  62,N  15,C  14,C  13)     -5.7997         0.033815   
    424. D(C  16,N  15,C  14,O  44)     10.5975         0.033815   
    425. D(C  16,N  15,C  14,C  13)   -169.0085         0.033815   
    426. D(H  64,C  16,N  15,H  62)     12.0704         0.016041   
    427. D(H  64,C  16,N  15,C  14)    175.6638         0.016041   
    428. D(H  63,C  16,N  15,H  62)    129.2437         0.016041   
    429. D(H  63,C  16,N  15,C  14)    -67.1629         0.016041   
    430. D(C  17,C  16,N  15,C  14)     53.9223         0.016041   
    431. D(C  17,C  16,N  15,H  62)   -109.6711         0.016041   
    432. D(H  65,C  17,C  16,H  64)    -96.0531         0.009898   
    433. D(H  65,C  17,C  16,H  63)    145.4106         0.009898   
    434. D(H  65,C  17,C  16,N  15)     23.0841         0.009898   
    435. D(O  43,C  17,C  16,H  64)    145.0625         0.009898   
    436. D(O  43,C  17,C  16,H  63)     26.5262         0.009898   
    437. D(O  43,C  17,C  16,N  15)    -95.8003         0.009898   
    438. D(C  18,C  17,C  16,H  64)     21.2663         0.009898   
    439. D(C  18,C  17,C  16,H  63)    -97.2700         0.009898   
    440. D(C  18,C  17,C  16,N  15)    140.4035         0.009898   
    441. D(H  66,C  18,C  17,H  65)     71.5172         0.009973   
    442. D(H  66,C  18,C  17,O  43)   -171.1034         0.009973   
    443. D(H  66,C  18,C  17,C  16)    -45.8208         0.009973   
    444. D(C  32,C  18,C  17,O  43)    -57.3140         0.009973   
    445. D(C  32,C  18,C  17,C  16)     67.9685         0.009973   
    446. D(C  32,C  18,C  17,H  65)   -174.6935         0.009973   
    447. D(C  19,C  18,C  17,H  65)    -42.6354         0.009973   
    448. D(C  19,C  18,C  17,O  43)     74.7441         0.009973   
    449. D(C  19,C  18,C  17,C  16)   -159.9734         0.009973   
    450. D(O  31,C  19,C  18,H  66)     15.8405         0.010625   
    451. D(O  31,C  19,C  18,C  32)   -100.1050         0.010625   
    452. D(O  31,C  19,C  18,C  17)    131.6739         0.010625   
    453. D(N  20,C  19,C  18,H  66)   -161.2648         0.010625   
    454. D(N  20,C  19,C  18,C  17)    -45.4314         0.010625   
    455. D(N  20,C  19,C  18,C  32)     82.7897         0.010625   
    456. D(H  67,N  20,C  19,O  31)   -169.1456         0.033456   
    457. D(H  67,N  20,C  19,C  18)      7.8729         0.033456   
    458. D(C  21,N  20,C  19,O  31)     -5.0955         0.033456   
    459. D(C  21,N  20,C  19,C  18)    171.9230         0.033456   
    460. D(H  68,C  21,N  20,H  67)   -161.4893         0.015303   
    461. D(H  68,C  21,N  20,C  19)     34.8624         0.015303   
    462. D(C  27,C  21,N  20,H  67)    -40.4633         0.015303   
    463. D(C  27,C  21,N  20,C  19)    155.8885         0.015303   
    464. D(C  22,C  21,N  20,H  67)     82.8924         0.015303   
    465. D(C  22,C  21,N  20,C  19)    -80.7559         0.015303   
    466. D(N  23,C  22,C  21,C  27)   -165.5783         0.009030   
    467. D(N  23,C  22,C  21,N  20)     71.3471         0.009030   
    468. D(O  26,C  22,C  21,H  68)    138.5312         0.009030   
    469. D(O  26,C  22,C  21,C  27)     16.3224         0.009030   
    470. D(O  26,C  22,C  21,N  20)   -106.7521         0.009030   
    471. D(N  23,C  22,C  21,H  68)    -43.3696         0.009030   
    472. D(H  69,N  23,C  22,O  26)    172.2540         0.028135   
    473. D(H  69,N  23,C  22,C  21)     -5.8344         0.028135   
    474. D(C  24,N  23,C  22,O  26)     19.1428         0.028135   
    475. D(C  24,N  23,C  22,C  21)   -158.9455         0.028135   
    476. D(H  70,C  24,N  23,H  69)   -157.8420         0.015535   
    477. D(H  70,C  24,N  23,C  22)     -5.5965         0.015535   
    478. D(C  25,C  24,N  23,H  69)     83.7900         0.015535   
    479. D(C  25,C  24,N  23,C  22)   -123.9645         0.015535   
    480. D(C   7,C  24,N  23,H  69)    -48.7988         0.015535   
    481. D(C   7,C  24,N  23,C  22)    103.4466         0.015535   
    482. D(H  70,C  24,C   7,O   8)     18.6313         0.009790   
    483. D(H  70,C  24,C   7,N   6)   -167.2402         0.009790   
    484. D(C  25,C  24,C   7,O   8)    139.9980         0.009790   
    485. D(C  25,C  24,C   7,N   6)    -45.8734         0.009790   
    486. D(N  23,C  24,C   7,O   8)    -91.5143         0.009790   
    487. D(N  23,C  24,C   7,N   6)     82.6142         0.009790   
    488. D(H  73,C  25,C  24,H  70)   -163.6775         0.011209   
    489. D(H  73,C  25,C  24,N  23)    -47.4406         0.011209   
    490. D(H  73,C  25,C  24,C   7)     77.5326         0.011209   
    491. D(H  72,C  25,C  24,H  70)     73.7272         0.011209   
    492. D(H  72,C  25,C  24,N  23)   -170.0360         0.011209   
    493. D(H  72,C  25,C  24,C   7)    -45.0628         0.011209   
    494. D(H  71,C  25,C  24,H  70)    -44.8228         0.011209   
    495. D(H  71,C  25,C  24,N  23)     71.4140         0.011209   
    496. D(H  71,C  25,C  24,C   7)   -163.6128         0.011209   
    497. D(H  75,C  27,C  21,H  68)    149.7919         0.011199   
    498. D(H  75,C  27,C  21,C  22)    -89.4840         0.011199   
    499. D(H  75,C  27,C  21,N  20)     31.0856         0.011199   
    500. D(H  74,C  27,C  21,H  68)    -96.3484         0.011199   
    501. D(H  74,C  27,C  21,C  22)     24.3757         0.011199   
    502. D(H  74,C  27,C  21,N  20)    144.9453         0.011199   
    503. D(C  28,C  27,C  21,H  68)     26.0034         0.011199   
    504. D(C  28,C  27,C  21,C  22)    146.7275         0.011199   
    505. D(C  28,C  27,C  21,N  20)    -92.7028         0.011199   
    506. D(H  76,C  28,C  27,H  75)    176.1041         0.010650   
    507. D(H  76,C  28,C  27,H  74)     60.9199         0.010650   
    508. D(H  76,C  28,C  27,C  21)    -60.3989         0.010650   
    509. D(C  30,C  28,C  27,H  75)     59.0332         0.010650   
    510. D(C  30,C  28,C  27,H  74)    -56.1510         0.010650   
    511. D(C  30,C  28,C  27,C  21)   -177.4697         0.010650   
    512. D(C  29,C  28,C  27,H  75)    -65.2405         0.010650   
    513. D(C  29,C  28,C  27,H  74)    179.5753         0.010650   
    514. D(C  29,C  28,C  27,C  21)     58.2566         0.010650   
    515. D(H  79,C  29,C  28,C  30)     55.4536         0.011036   
    516. D(H  79,C  29,C  28,C  27)    179.2388         0.011036   
    517. D(H  78,C  29,C  28,H  76)    177.9015         0.011036   
    518. D(H  78,C  29,C  28,C  30)    -64.1137         0.011036   
    519. D(H  78,C  29,C  28,C  27)     59.6716         0.011036   
    520. D(H  77,C  29,C  28,H  76)     57.6926         0.011036   
    521. D(H  77,C  29,C  28,C  30)    175.6775         0.011036   
    522. D(H  79,C  29,C  28,H  76)    -62.5313         0.011036   
    523. D(H  77,C  29,C  28,C  27)    -60.5373         0.011036   
    524. D(H  82,C  30,C  28,H  76)    179.6129         0.010958   
    525. D(H  82,C  30,C  28,C  29)     61.6684         0.010958   
    526. D(H  82,C  30,C  28,C  27)    -63.8146         0.010958   
    527. D(H  81,C  30,C  28,H  76)     60.0544         0.010958   
    528. D(H  81,C  30,C  28,C  29)    -57.8902         0.010958   
    529. D(H  81,C  30,C  28,C  27)    176.6269         0.010958   
    530. D(H  80,C  30,C  28,H  76)    -60.5879         0.010958   
    531. D(H  80,C  30,C  28,C  29)   -178.5324         0.010958   
    532. D(H  80,C  30,C  28,C  27)     55.9846         0.010958   
    533. D(O  42,C  32,C  18,H  66)     32.5844         0.009412   
    534. D(O  42,C  32,C  18,C  19)    148.6963         0.009412   
    535. D(O  42,C  32,C  18,C  17)    -83.0828         0.009412   
    536. D(C  33,C  32,C  18,H  66)   -148.6170         0.009412   
    537. D(C  33,C  32,C  18,C  19)    -32.5050         0.009412   
    538. D(C  33,C  32,C  18,C  17)     95.7158         0.009412   
    539. D(H  84,C  33,C  32,O  42)    125.3682         0.012360   
    540. D(H  84,C  33,C  32,C  18)    -53.3649         0.012360   
    541. D(H  83,C  33,C  32,O  42)   -122.8499         0.012360   
    542. D(H  83,C  33,C  32,C  18)     58.4170         0.012360   
    543. D(C  34,C  33,C  32,O  42)      1.3447         0.012360   
    544. D(C  34,C  33,C  32,C  18)   -177.3884         0.012360   
    545. D(H  86,C  34,C  33,H  84)   -178.4370         0.011676   
    546. D(H  86,C  34,C  33,H  83)     65.3219         0.011676   
    547. D(H  86,C  34,C  33,C  32)    -56.8743         0.011676   
    548. D(H  85,C  34,C  33,H  84)    -63.1764         0.011676   
    549. D(H  85,C  34,C  33,H  83)   -179.4174         0.011676   
    550. D(H  85,C  34,C  33,C  32)     58.3864         0.011676   
    551. D(C  35,C  34,C  33,H  84)     59.0828         0.011676   
    552. D(C  35,C  34,C  33,H  83)    -57.1583         0.011676   
    553. D(C  35,C  34,C  33,C  32)   -179.3545         0.011676   
    554. D(H  88,C  35,C  34,H  86)   -179.6195         0.011138   
    555. D(H  88,C  35,C  34,H  85)     64.2476         0.011138   
    556. D(H  88,C  35,C  34,C  33)    -57.5136         0.011138   
    557. D(H  87,C  35,C  34,H  86)    -64.0793         0.011138   
    558. D(H  87,C  35,C  34,H  85)    179.7878         0.011138   
    559. D(H  87,C  35,C  34,C  33)     58.0266         0.011138   
    560. D(C  36,C  35,C  34,H  86)     58.1991         0.011138   
    561. D(C  36,C  35,C  34,H  85)    -57.9338         0.011138   
    562. D(C  36,C  35,C  34,C  33)   -179.6949         0.011138   
    563. D(H  90,C  36,C  35,H  87)     64.8247         0.011162   
    564. D(H  90,C  36,C  35,C  34)    -57.5451         0.011162   
    565. D(H  89,C  36,C  35,H  88)    -64.3816         0.011162   
    566. D(H  89,C  36,C  35,H  87)   -179.7213         0.011162   
    567. D(H  89,C  36,C  35,C  34)     57.9090         0.011162   
    568. D(C  37,C  36,C  35,H  88)     57.8948         0.011162   
    569. D(C  37,C  36,C  35,H  87)    -57.4449         0.011162   
    570. D(H  90,C  36,C  35,H  88)   -179.8357         0.011162   
    571. D(C  37,C  36,C  35,C  34)   -179.8146         0.011162   
    572. D(H  92,C  37,C  36,H  90)   -179.7331         0.011135   
    573. D(H  92,C  37,C  36,H  89)     64.7068         0.011135   
    574. D(H  92,C  37,C  36,C  35)    -57.5124         0.011135   
    575. D(H  91,C  37,C  36,H  90)    -64.2794         0.011135   
    576. D(H  91,C  37,C  36,H  89)   -179.8395         0.011135   
    577. D(H  91,C  37,C  36,C  35)     57.9412         0.011135   
    578. D(C  38,C  37,C  36,H  90)     57.9421         0.011135   
    579. D(C  38,C  37,C  36,H  89)    -57.6180         0.011135   
    580. D(C  38,C  37,C  36,C  35)   -179.8373         0.011135   
    581. D(H  94,C  38,C  37,H  92)   -179.4169         0.011120   
    582. D(H  94,C  38,C  37,H  91)     65.1442         0.011120   
    583. D(H  94,C  38,C  37,C  36)    -57.0895         0.011120   
    584. D(H  93,C  38,C  37,H  92)    -64.0256         0.011120   
    585. D(H  93,C  38,C  37,H  91)   -179.4645         0.011120   
    586. D(H  93,C  38,C  37,C  36)     58.3017         0.011120   
    587. D(C  39,C  38,C  37,H  92)     57.9014         0.011120   
    588. D(C  39,C  38,C  37,H  91)    -57.5375         0.011120   
    589. D(C  39,C  38,C  37,C  36)   -179.7713         0.011120   
    590. D(H  95,C  39,C  38,H  94)    -61.9761         0.011034   
    591. D(H  95,C  39,C  38,H  93)   -177.8886         0.011034   
    592. D(H  95,C  39,C  38,C  37)     60.1149         0.011034   
    593. D(C  40,C  39,C  38,H  94)     60.6896         0.011034   
    594. D(C  40,C  39,C  38,H  93)    -55.2229         0.011034   
    595. D(C  40,C  39,C  38,C  37)   -177.2194         0.011034   
    596. D(H  96,C  39,C  38,H  94)   -177.1944         0.011034   
    597. D(H  96,C  39,C  38,H  93)     66.8931         0.011034   
    598. D(H  96,C  39,C  38,C  37)    -55.1033         0.011034   
    599. D(H  98,C  40,C  39,H  95)   -179.2825         0.010785   
    600. D(H  98,C  40,C  39,C  38)     58.0598         0.010785   
    601. D(H  97,C  40,C  39,H  96)     51.3041         0.010785   
    602. D(H  97,C  40,C  39,H  95)    -64.0619         0.010785   
    603. D(H  97,C  40,C  39,C  38)    173.2804         0.010785   
    604. D(C  41,C  40,C  39,H  96)    173.3419         0.010785   
    605. D(C  41,C  40,C  39,H  95)     57.9760         0.010785   
    606. D(H  98,C  40,C  39,H  96)    -63.9165         0.010785   
    607. D(C  41,C  40,C  39,C  38)    -64.6818         0.010785   
    608. D(H 101,C  41,C  40,H  98)    -59.3924         0.011039   
    609. D(H 101,C  41,C  40,H  97)   -175.0221         0.011039   
    610. D(H 101,C  41,C  40,C  39)     63.1073         0.011039   
    611. D(H 100,C  41,C  40,H  98)   -179.4575         0.011039   
    612. D(H 100,C  41,C  40,H  97)     64.9128         0.011039   
    613. D(H 100,C  41,C  40,C  39)    -56.9578         0.011039   
    614. D(H  99,C  41,C  40,H  98)     60.7008         0.011039   
    615. D(H  99,C  41,C  40,H  97)    -54.9288         0.011039   
    616. D(H  99,C  41,C  40,C  39)   -176.7995         0.011039   
    617. D(H 102,O  43,C  17,H  65)    -64.3493         0.017941   
    618. D(H 102,O  43,C  17,C  18)    179.8068         0.017941   
    619. D(H 102,O  43,C  17,C  16)     53.1167         0.017941   
    620. D(H 104,C  45,C  13,H  61)    -66.7968         0.010755   
    621. D(H 104,C  45,C  13,C  14)     52.6684         0.010755   
    622. D(H 104,C  45,C  13,N  12)    176.4205         0.010755   
    623. D(H 103,C  45,C  13,H  61)     48.1678         0.010755   
    624. D(H 103,C  45,C  13,C  14)    167.6330         0.010755   
    625. D(H 103,C  45,C  13,N  12)    -68.6149         0.010755   
    626. D(C  46,C  45,C  13,H  61)    170.5960         0.010755   
    627. D(C  46,C  45,C  13,C  14)    -69.9388         0.010755   
    628. D(C  46,C  45,C  13,N  12)     53.8134         0.010755   
    629. D(H 107,C  46,C  45,H 104)    -61.1694         0.011210   
    630. D(H 107,C  46,C  45,H 103)   -179.2409         0.011210   
    631. D(H 107,C  46,C  45,C  13)     60.1149         0.011210   
    632. D(H 106,C  46,C  45,H 104)    178.3757         0.011210   
    633. D(H 106,C  46,C  45,H 103)     60.3041         0.011210   
    634. D(H 106,C  46,C  45,C  13)    -60.3400         0.011210   
    635. D(H 105,C  46,C  45,H 104)     58.7758         0.011210   
    636. D(H 105,C  46,C  45,H 103)    -59.2958         0.011210   
    637. D(H 105,C  46,C  45,C  13)   -179.9399         0.011210   
    638. D(H 108,C  48,C  10,H  59)     68.9978         0.009855   
    639. D(H 108,C  48,C  10,C  11)   -175.6156         0.009855   
    640. D(H 108,C  48,C  10,N   9)    -49.7483         0.009855   
    641. D(C  50,C  48,C  10,H  59)    -47.7780         0.009855   
    642. D(C  50,C  48,C  10,C  11)     67.6086         0.009855   
    643. D(C  50,C  48,C  10,N   9)   -166.5241         0.009855   
    644. D(C  49,C  48,C  10,H  59)   -173.0778         0.009855   
    645. D(C  49,C  48,C  10,C  11)    -57.6913         0.009855   
    646. D(C  49,C  48,C  10,N   9)     68.1760         0.009855   
    647. D(H 111,C  49,C  48,C  50)     61.8917         0.010768   
    648. D(H 111,C  49,C  48,C  10)   -172.6845         0.010768   
    649. D(H 110,C  49,C  48,H 108)   -176.0422         0.010768   
    650. D(H 110,C  49,C  48,C  50)    -57.5130         0.010768   
    651. D(H 110,C  49,C  48,C  10)     67.9108         0.010768   
    652. D(H 109,C  49,C  48,H 108)     63.6733         0.010768   
    653. D(H 109,C  49,C  48,C  50)   -177.7976         0.010768   
    654. D(H 111,C  49,C  48,H 108)    -56.6374         0.010768   
    655. D(H 109,C  49,C  48,C  10)    -52.3737         0.010768   
    656. D(H 114,C  50,C  48,H 108)   -177.2159         0.011071   
    657. D(H 114,C  50,C  48,C  49)     63.9999         0.011071   
    658. D(H 114,C  50,C  48,C  10)    -62.1193         0.011071   
    659. D(H 113,C  50,C  48,H 108)     62.5143         0.011071   
    660. D(H 113,C  50,C  48,C  49)    -56.2699         0.011071   
    661. D(H 113,C  50,C  48,C  10)    177.6109         0.011071   
    662. D(H 112,C  50,C  48,H 108)    -57.5432         0.011071   
    663. D(H 112,C  50,C  48,C  49)   -176.3273         0.011071   
    664. D(H 112,C  50,C  48,C  10)     57.5534         0.011071   
    -----------------------------------------------------------------

Number of atoms                         .... 115
Number of degrees of freedom            .... 664

         *************************************************************
         *                GEOMETRY OPTIMIZATION CYCLE   1            *
         *************************************************************
---------------------------------
CARTESIAN COORDINATES (ANGSTROEM)
---------------------------------
  O     -0.279199    2.109114   -4.168730
  C      0.866007    2.262282   -3.727421
  C      1.055809    2.489497   -2.226477
  C      0.511084    3.837045   -1.726824
  C      1.768879    4.704189   -1.608403
  C      2.813855    3.724742   -1.069669
  N      2.446097    2.450807   -1.726233
  C      3.046021    1.229912   -1.597187
  O      2.566689    0.238630   -2.174786
  N      1.977554    2.170010   -4.491915
  C      1.937596    1.630372   -5.848457
  C      1.306750    0.218100   -5.911683
  N      1.403321   -0.525142   -4.777193
  C      0.747070   -1.818004   -4.630629
  C     -0.112136   -1.801580   -3.350581
  N     -0.814088   -0.666627   -3.135703
  C     -1.482404   -0.401771   -1.865706
  C     -0.489393   -0.526150   -0.685593
  C     -0.683257    0.541896    0.415523
  C      0.582608    0.675575    1.259715
  N      1.158366   -0.483140    1.655355
  C      2.462416   -0.555098    2.320732
  C      3.549773   -0.458487    1.218314
  N      3.633539    0.802738    0.677324
  C      4.232973    1.011339   -0.641610
  C      5.387787    2.013419   -0.617769
  O      4.227605   -1.409568    0.849974
  C      2.600950   -1.827234    3.158106
  C      2.193914   -1.676016    4.632044
  C      0.745480   -1.210055    4.805592
  C      2.435106   -2.992781    5.377891
  O      1.065520    1.799560    1.506246
  C     -2.020938    0.318766    1.156221
  C     -2.007995   -0.462738    2.443158
  C     -3.379280   -0.684654    3.068254
  C     -3.296332   -1.469789    4.378904
  C     -4.660464   -1.714547    5.026528
  C     -4.578483   -2.495739    6.339638
  C     -5.941967   -2.745608    6.987951
  C     -5.851179   -3.522999    8.304271
  C     -7.207826   -3.847457    8.944315
  C     -7.996374   -2.613945    9.393445
  O     -3.038775    0.767064    0.655185
  O     -0.545233   -1.826029   -0.083832
  O     -0.143580   -2.771356   -2.570778
  C      1.731341   -2.995786   -4.657177
  C      2.875366   -2.887656   -3.648322
  O      0.775615   -0.173896   -6.950025
  C      3.360849    1.664168   -6.456228
  C      4.317286    0.680882   -5.767389
  C      3.324415    1.426997   -7.968250
  H      0.510068    1.649013   -1.779945
  H      0.056559    3.697835   -0.735749
  H     -0.250335    4.237031   -2.405668
  H      2.075859    5.074316   -2.598358
  H      1.637187    5.568854   -0.946707
  H      3.836500    4.016359   -1.329517
  H      2.731126    3.629564    0.025030
  H      2.872623    2.217530   -4.011616
  H      1.269622    2.257115   -6.455869
  H      1.863614   -0.140076   -3.945970
  H      0.067762   -1.903565   -5.495529
  H     -0.675602    0.132281   -3.759732
  H     -2.314973   -1.102054   -1.705260
  H     -1.905490    0.607221   -1.928942
  H      0.521849   -0.367059   -1.105097
  H     -0.798278    1.514585   -0.080176
  H      0.764785   -1.342927    1.248161
  H      2.542256    0.340290    2.958447
  H      2.917381    1.466765    1.001670
  H      4.624624    0.028605   -0.937075
  H      6.242781    1.544616   -0.113150
  H      5.701397    2.283552   -1.636931
  H      5.142280    2.928875   -0.068011
  H      3.648306   -2.155197    3.096697
  H      2.014755   -2.636324    2.689874
  H      2.853608   -0.907164    5.075528
  H      0.572817   -0.228990    4.341587
  H      0.046579   -1.925549    4.345773
  H      0.485102   -1.125912    5.870668
  H      3.479397   -3.323955    5.281822
  H      2.206915   -2.890653    6.448660
  H      1.792028   -3.790654    4.973905
  H     -1.330803    0.060487    3.141738
  H     -1.502286   -1.420509    2.230606
  H     -4.022669   -1.216300    2.349694
  H     -3.865203    0.288597    3.240470
  H     -2.646310   -0.930252    5.090322
  H     -2.801566   -2.440064    4.195165
  H     -5.308263   -2.258330    4.316865
  H     -5.156947   -0.745119    5.207807
  H     -3.932481   -1.949015    7.049380
  H     -4.077473   -3.463198    6.158438
  H     -6.585503   -3.300888    6.282276
  H     -6.440746   -1.776586    7.156302
  H     -5.238791   -2.949229    9.022845
  H     -5.305098   -4.464492    8.123092
  H     -7.042649   -4.505948    9.812570
  H     -7.812996   -4.431646    8.229786
  H     -8.931986   -2.899677    9.895136
  H     -7.409328   -2.007821   10.101007
  H     -8.262489   -1.967899    8.544735
  H     -0.415660   -2.440790   -0.859389
  H      2.131110   -3.057785   -5.681003
  H      1.155347   -3.914511   -4.476049
  H      3.537414   -3.761216   -3.725029
  H      3.486177   -1.991206   -3.824645
  H      2.498763   -2.838122   -2.618994
  H      3.728799    2.691481   -6.279981
  H      4.341616    0.794986   -4.672332
  H      4.026776   -0.358244   -5.977046
  H      5.342056    0.826320   -6.135841
  H      2.691528    2.169745   -8.473514
  H      4.338439    1.497018   -8.386810
  H      2.917761    0.433935   -8.200617

----------------------------
CARTESIAN COORDINATES (A.U.)
----------------------------
  NO LB      ZA    FRAG     MASS         X           Y           Z
   0 O     8.0000    0    15.999   -0.527609    3.985648   -7.877759
   1 C     6.0000    0    12.011    1.636516    4.275094   -7.043804
   2 C     6.0000    0    12.011    1.995191    4.704468   -4.207432
   3 C     6.0000    0    12.011    0.965809    7.250965   -3.263225
   4 C     6.0000    0    12.011    3.342697    8.889629   -3.039442
   5 C     6.0000    0    12.011    5.317416    7.038742   -2.021381
   6 N     7.0000    0    14.007    4.622454    4.631354   -3.262108
   7 C     6.0000    0    12.011    5.756145    2.324198   -3.018245
   8 O     8.0000    0    15.999    4.850338    0.450945   -4.109751
   9 N     7.0000    0    14.007    3.737035    4.100725   -8.488490
  10 C     6.0000    0    12.011    3.661525    3.080956  -11.051982
  11 C     6.0000    0    12.011    2.469399    0.412149  -11.171462
  12 N     7.0000    0    14.007    2.651892   -0.992375   -9.027587
  13 C     6.0000    0    12.011    1.411758   -3.435531   -8.750621
  14 C     6.0000    0    12.011   -0.211906   -3.404492   -6.331680
  15 N     7.0000    0    14.007   -1.538403   -1.259742   -5.925620
  16 C     6.0000    0    12.011   -2.801338   -0.759237   -3.525673
  17 C     6.0000    0    12.011   -0.924819   -0.994279   -1.295582
  18 C     6.0000    0    12.011   -1.291169    1.024036    0.785225
  19 C     6.0000    0    12.011    1.100969    1.276652    2.380517
  20 N     7.0000    0    14.007    2.188995   -0.913002    3.128168
  21 C     6.0000    0    12.011    4.653292   -1.048982    4.385547
  22 C     6.0000    0    12.011    6.708099   -0.866416    2.302280
  23 N     7.0000    0    14.007    6.866394    1.516955    1.279958
  24 C     6.0000    0    12.011    7.999160    1.911154   -1.212467
  25 C     6.0000    0    12.011   10.181442    3.804811   -1.167415
  26 O     8.0000    0    15.999    7.989016   -2.663698    1.606218
  27 C     6.0000    0    12.011    4.915084   -3.452973    5.967955
  28 C     6.0000    0    12.011    4.145897   -3.167211    8.753295
  29 C     6.0000    0    12.011    1.408754   -2.286673    9.081253
  30 C     6.0000    0    12.011    4.601684   -5.655537   10.162741
  31 O     8.0000    0    15.999    2.013542    3.400676    2.846392
  32 C     6.0000    0    12.011   -3.819020    0.602381    2.184941
  33 C     6.0000    0    12.011   -3.794561   -0.874448    4.616900
  34 C     6.0000    0    12.011   -6.385913   -1.293808    5.798160
  35 C     6.0000    0    12.011   -6.229165   -2.777498    8.274930
  36 C     6.0000    0    12.011   -8.807000   -3.240024    9.498761
  37 C     6.0000    0    12.011   -8.652079   -4.716263   11.980179
  38 C     6.0000    0    12.011  -11.228690   -5.188447   13.205313
  39 C     6.0000    0    12.011  -11.057125   -6.657504   15.692797
  40 C     6.0000    0    12.011  -13.620817   -7.270639   16.902306
  41 C     6.0000    0    12.011  -15.110956   -4.939640   17.751039
  42 O     8.0000    0    15.999   -5.742452    1.449540    1.238121
  43 O     8.0000    0    15.999   -1.030341   -3.450695   -0.158420
  44 O     8.0000    0    15.999   -0.271327   -5.237104   -4.858066
  45 C     6.0000    0    12.011    3.271761   -5.661215   -8.800789
  46 C     6.0000    0    12.011    5.433654   -5.456880   -6.894330
  47 O     8.0000    0    15.999    1.465701   -0.328615  -13.133644
  48 C     6.0000    0    12.011    6.351085    3.144822  -12.200502
  49 C     6.0000    0    12.011    8.158488    1.286681  -10.898785
  50 C     6.0000    0    12.011    6.282234    2.696634  -15.057810
  51 H     1.0000    0     1.008    0.963889    3.116183   -3.363609
  52 H     1.0000    0     1.008    0.106882    6.987895   -1.390364
  53 H     1.0000    0     1.008   -0.473064    8.006828   -4.546054
  54 H     1.0000    0     1.008    3.922805    9.589067   -4.910185
  55 H     1.0000    0     1.008    3.093835   10.523609   -1.789016
  56 H     1.0000    0     1.008    7.249933    7.589819   -2.512423
  57 H     1.0000    0     1.008    5.161081    6.858883    0.047299
  58 H     1.0000    0     1.008    5.428471    4.190525   -7.580855
  59 H     1.0000    0     1.008    2.399238    4.265330  -12.199824
  60 H     1.0000    0     1.008    3.521719   -0.264705   -7.456802
  61 H     1.0000    0     1.008    0.128051   -3.597216  -10.385046
  62 H     1.0000    0     1.008   -1.276703    0.249975   -7.104864
  63 H     1.0000    0     1.008   -4.374665   -2.082580   -3.222474
  64 H     1.0000    0     1.008   -3.600855    1.147481   -3.645171
  65 H     1.0000    0     1.008    0.986152   -0.693641   -2.088331
  66 H     1.0000    0     1.008   -1.508527    2.862151   -0.151512
  67 H     1.0000    0     1.008    1.445234   -2.537765    2.358683
  68 H     1.0000    0     1.008    4.804168    0.643054    5.590655
  69 H     1.0000    0     1.008    5.513051    2.771783    1.892882
  70 H     1.0000    0     1.008    8.739272    0.054055   -1.770814
  71 H     1.0000    0     1.008   11.797147    2.918901   -0.213823
  72 H     1.0000    0     1.008   10.774079    4.315288   -3.093352
  73 H     1.0000    0     1.008    9.717501    5.534771   -0.128523
  74 H     1.0000    0     1.008    6.894298   -4.072733    5.851909
  75 H     1.0000    0     1.008    3.807335   -4.981931    5.083126
  76 H     1.0000    0     1.008    5.392538   -1.714292    9.591358
  77 H     1.0000    0     1.008    1.082468   -0.432728    8.204410
  78 H     1.0000    0     1.008    0.088021   -3.638761    8.212320
  79 H     1.0000    0     1.008    0.916709   -2.127666   11.093955
  80 H     1.0000    0     1.008    6.575108   -6.281364    9.981197
  81 H     1.0000    0     1.008    4.170466   -5.462543   12.186202
  82 H     1.0000    0     1.008    3.386441   -7.163297    9.399319
  83 H     1.0000    0     1.008   -2.514854    0.114303    5.937024
  84 H     1.0000    0     1.008   -2.838909   -2.684373    4.215234
  85 H     1.0000    0     1.008   -7.601742   -2.298474    4.440278
  86 H     1.0000    0     1.008   -7.304175    0.545369    6.123601
  87 H     1.0000    0     1.008   -5.000801   -1.757922    9.619314
  88 H     1.0000    0     1.008   -5.294192   -4.611052    7.927714
  89 H     1.0000    0     1.008  -10.031164   -4.267626    8.157692
  90 H     1.0000    0     1.008   -9.745218   -1.408072    9.841330
  91 H     1.0000    0     1.008   -7.431312   -3.683104   13.321398
  92 H     1.0000    0     1.008   -7.705307   -6.544496   11.637762
  93 H     1.0000    0     1.008  -12.444798   -6.237774   11.871782
  94 H     1.0000    0     1.008  -12.171247   -3.357261   13.523450
  95 H     1.0000    0     1.008   -9.899880   -5.573235   17.050706
  96 H     1.0000    0     1.008  -10.025182   -8.436668   15.350418
  97 H     1.0000    0     1.008  -13.308678   -8.515008   18.543070
  98 H     1.0000    0     1.008  -14.764422   -8.374597   15.552041
  99 H     1.0000    0     1.008  -16.879007   -5.479595   18.699096
 100 H     1.0000    0     1.008  -14.001600   -3.794231   19.088136
 101 H     1.0000    0     1.008  -15.613841   -3.718791   16.147209
 102 H     1.0000    0     1.008   -0.785484   -4.612424   -1.624010
 103 H     1.0000    0     1.008    4.027213   -5.778377  -10.735539
 104 H     1.0000    0     1.008    2.183289   -7.397355   -8.458507
 105 H     1.0000    0     1.008    6.684743   -7.107667   -7.039285
 106 H     1.0000    0     1.008    6.587919   -3.762834   -7.227532
 107 H     1.0000    0     1.008    4.721978   -5.363274   -4.949182
 108 H     1.0000    0     1.008    7.046410    5.086162  -11.867445
 109 H     1.0000    0     1.008    8.204466    1.502306   -8.829428
 110 H     1.0000    0     1.008    7.609503   -0.676982  -11.294981
 111 H     1.0000    0     1.008   10.095022    1.561518  -11.595059
 112 H     1.0000    0     1.008    5.086251    4.100223  -16.012620
 113 H     1.0000    0     1.008    8.198462    2.828954  -15.848774
 114 H     1.0000    0     1.008    5.513768    0.820017  -15.496920

--------------------------------
INTERNAL COORDINATES (ANGSTROEM)
--------------------------------
 O      0   0   0     0.000000000000     0.00000000     0.00000000
 C      1   0   0     1.236814523389     0.00000000     0.00000000
 C      2   1   0     1.529863850317   118.90344803     0.00000000
 C      3   2   1     1.536966197593   113.90302705   291.97030516
 C      4   3   2     1.532321120083   103.31846858   259.09096072
 C      5   4   3     1.530204790421   103.03473464   321.38252502
 N      3   2   1     1.478053152090   116.41439438   170.57421457
 C      7   3   2     1.366435067052   117.92557232   284.18500431
 O      8   7   3     1.243391374728   119.94724633    16.84123055
 N      2   1   3     1.352221847282   123.43231186   176.37276788
 C     10   2   1     1.460483068003   121.86022302   348.00500470
 C     11  10   2     1.548055361289   112.71632549   305.36718377
 N     12  11  10     1.359706735252   115.82691981   333.52076064
 C     13  12  11     1.457270978249   122.47161451   173.74963457
 C     14  13  12     1.541761735656   108.96637533   233.65606637
 N     15  14  13     1.351675744422   115.48928733    41.94435423
 C     16  15  14     1.459344994574   121.90828678   190.99153677
 C     17  16  15     1.547322898971   110.80796709    53.92227503
 C     18  17  16     1.546208913691   114.02566279   140.40348577
 C     19  18  17     1.527397914756   110.49600538   200.02661001
 N     20  19  18     1.353015074683   116.06166950   314.56860332
 C     21  20  19     1.465759127978   123.59870619   171.92299497
 C     22  21  20     1.551451687210   107.33289575   279.24414053
 N     23  22  21     1.374909790692   112.29730497    71.34713681
 C     24  23  22     1.463702062921   120.67977680   201.05446870
 C     25  24  23     1.529159256296   112.86874003   236.03546986
 O     23  22  21     1.224616626024   123.59344792   253.24790619
 C     22  21  20     1.529287232491   111.71519210   155.88845239
 C     28  22  21     1.536567450165   114.79539232   267.29717295
 C     29  28  22     1.531403971112   112.90465285    58.25661267
 C     29  28  22     1.532426602308   109.91436789   182.53028064
 O     20  19  18     1.247927931046   120.57901577   131.67386983
 C     19  18  17     1.545254086435   110.49650810    67.96851441
 C     33  19  18     1.505697289595   118.50272052    95.71582923
 C     34  33  19     1.523290104152   114.74712772   182.61158306
 C     35  34  33     1.530072021782   112.17668287   180.64549770
 C     36  35  34     1.529763695289   113.35309625   180.30506553
 C     37  36  35     1.530111072824   113.40439042   180.18540406
 C     38  37  36     1.530304322480   113.52768932   180.16268387
 C     39  38  37     1.531430202000   113.21651417   180.22871909
 C     40  39  38     1.534738184241   114.41683383   182.78063068
 C     41  40  39     1.531364194031   114.02915995   295.31822648
 O     33  19  18     1.219835507711   118.18823681   276.91718965
 O     18  17  16     1.433499233043   111.59558644   264.19970339
 O     15  14  13     1.244808423443   121.72773918   222.33381383
 C     14  13  12     1.535142772843   112.96600764   108.07435790
 C     46  14  13     1.529140897044   114.45771339    53.81338301
 O     12  11  10     1.230413690220   120.06756465   154.39175974
 C     11  10   2     1.547959484824   109.35749649   179.77123137
 C     49  11  10     1.534966119166   112.50217197    68.17603936
 C     49  11  10     1.530943978774   111.25446931   193.47592741
 H      3   2   1     1.097104139856   102.93355204    52.58365240
 H      4   3   2     1.099182569692   109.18569752   142.09938516
 H      4   3   2     1.095708241618   111.40367477    22.26764441
 H      5   4   3     1.100564020150   110.47256888    78.80548298
 H      5   4   3     1.096736458586   113.21728241   200.23298399
 H      6   5   4     1.094697632204   112.57365252   154.60102393
 H      6   5   4     1.101938310419   110.71806137   277.15640560
 H     10   2   1     1.016904364529   116.95636686   186.17007998
 H     11  10   2     1.099065784496   108.61780780    60.64542426
 H     13  12  11     1.025220990223   120.20280042     0.58784845
 H     14  13  12     1.103101645393   105.50223766   349.37554943
 H     16  15  14     1.023154324326   119.23445530   354.20033393
 H     17  16  15     1.099686388845   110.98448536   292.83711556
 H     17  16  15     1.095931180684   107.07798213   175.66375051
 H     18  17  16     1.106302398394   106.60982892    23.08407155
 H     19  18  17     1.097757122916   107.67511249   314.17916374
 H     21  20  19     1.029537545380   115.90377170     7.87288766
 H     22  21  20     1.102167686543   106.69156027    34.86243899
 H     24  23  22     1.029084078084   115.18189118   354.16559686
 H     25  24  23     1.098388209017   105.12402867   354.40352240
 H     26  25  24     1.097921432891   108.38810178    71.41398787
 H     26  25  24     1.100006236561   111.21003564   189.96397680
 H     26  25  24     1.095703689077   112.71347685   312.55935327
 H     28  22  21     1.099219487306   107.69283195   144.94531737
 H     28  22  21     1.103400417145   109.23758277    31.08562773
 H     29  28  22     1.105896700528   107.16190544   299.60114524
 H     30  29  28     1.098909749082   111.86370143   299.46271598
 H     30  29  28     1.100831242104   110.81724999    59.67159185
 H     30  29  28     1.099665505087   110.91574377   179.23883002
 H     31  29  28     1.099749322244   111.45034249    55.98464268
 H     31  29  28     1.099567404291   111.19175207   176.62690209
 H     31  29  28     1.101523836257   110.61028240   296.18544403
 H     34  33  19     1.104701769300   107.45351716    58.41695445
 H     34  33  19     1.103741999032   106.84188455   306.63505295
 H     35  34  33     1.101329380712   109.17684400    58.38636514
 H     35  34  33     1.101361137905   109.42702473   303.12571167
 H     36  35  34     1.104419814628   109.45134958    58.02664425
 H     36  35  34     1.104530788461   109.42382205   302.48641548
 H     37  36  35     1.104067964402   109.26256947    57.90898530
 H     37  36  35     1.104150410684   109.26858867   302.45492126
 H     38  37  36     1.104518235692   109.27314088    57.94118390
 H     38  37  36     1.104455770578   109.31293671   302.48755355
 H     39  38  37     1.104740376769   109.29774866    58.30174903
 H     39  38  37     1.102781283682   108.91626060   302.91047011
 H     40  39  38     1.104798918100   109.16451198    60.11492189
 H     40  39  38     1.103376381433   108.74449731   304.89668295
 H     41  40  39     1.102161796058   108.80591269   173.28039714
 H     41  40  39     1.103657557341   109.06298502    58.05976482
 H     42  41  40     1.099411644149   111.26624481   183.20053618
 H     42  41  40     1.101205212430   110.93457926   303.04221422
 H     42  41  40     1.099318598913   111.81415437    63.10730282
 H     44  18  17     0.998102733589   103.13666501    53.11670684
 H     46  14  13     1.100853160249   106.98523501   291.38514000
 H     46  14  13     1.099378935029   107.60012447   176.42051517
 H     47  46  14     1.098770400515   110.39611947   180.06006498
 H     47  46  14     1.099000599791   111.57022204   299.65995841
 H     47  46  14     1.097178201797   111.42886875    60.11493149
 H     49  11  10     1.105360294468   105.29263074   310.25166939
 H     50  49  11     1.101254031189   113.18071713   307.62625224
 H     50  49  11     1.099151737166   110.81310863    67.91081229
 H     50  49  11     1.098663937983   110.23626665   187.31553397
 H     51  49  11     1.098868360126   111.29162298    57.55342753
 H     51  49  11     1.099245515702   110.13554795   177.61087867
 H     51  49  11     1.097968674160   110.97425088   297.88067972

---------------------------
INTERNAL COORDINATES (A.U.)
---------------------------
 O      0   0   0     0.000000000000     0.00000000     0.00000000
 C      1   0   0     2.337240727662     0.00000000     0.00000000
 C      2   1   0     2.891023699285   118.90344803     0.00000000
 C      3   2   1     2.904445190544   113.90302705   291.97030516
 C      4   3   2     2.895667266181   103.31846858   259.09096072
 C      5   4   3     2.891667982710   103.03473464   321.38252502
 N      3   2   1     2.793115668829   116.41439438   170.57421457
 C      7   3   2     2.582188056515   117.92557232   284.18500431
 O      8   7   3     2.349669175516   119.94724633    16.84123055
 N      2   1   3     2.555328963668   123.43231186   176.37276788
 C     10   2   1     2.759913021754   121.86022302   348.00500470
 C     11  10   2     2.925400672984   112.71632549   305.36718377
 N     12  11  10     2.569473352074   115.82691981   333.52076064
 C     13  12  11     2.753843051802   122.47161451   173.74963457
 C     14  13  12     2.913507444148   108.96637533   233.65606637
 N     15  14  13     2.554296978822   115.48928733    41.94435423
 C     16  15  14     2.757762374653   121.90828678   190.99153677
 C     17  16  15     2.924016519800   110.80796709    53.92227503
 C     18  17  16     2.921911392704   114.02566279   140.40348577
 C     19  18  17     2.886363756412   110.49600538   200.02661001
 N     20  19  18     2.556827946218   116.06166950   314.56860332
 C     21  20  19     2.769883330173   123.59870619   171.92299497
 C     22  21  20     2.931818798838   107.33289575   279.24414053
 N     23  22  21     2.598202963256   112.29730497    71.34713681
 C     24  23  22     2.765996040577   120.67977680   201.05446870
 C     25  24  23     2.889692209551   112.86874003   236.03546986
 O     23  22  21     2.314190042233   123.59344792   253.24790619
 C     22  21  20     2.889934049511   111.71519210   155.88845239
 C     28  22  21     2.903691667110   114.79539232   267.29717295
 C     29  28  22     2.893934105801   112.90465285    58.25661267
 C     29  28  22     2.895866598698   109.91436789   182.53028064
 O     20  19  18     2.358242024548   120.57901577   131.67386983
 C     19  18  17     2.920107030686   110.49650810    67.96851441
 C     33  19  18     2.845355517923   118.50272052    95.71582923
 C     34  33  19     2.878601119360   114.74712772   182.61158306
 C     35  34  33     2.891417086344   112.17668287   180.64549770
 C     36  35  34     2.890834433711   113.35309625   180.30506553
 C     37  36  35     2.891490882117   113.40439042   180.18540406
 C     38  37  36     2.891856071042   113.52768932   180.16268387
 C     39  38  37     2.893983674996   113.21651417   180.22871909
 C     40  39  38     2.900234855487   114.41683383   182.78063068
 C     41  40  39     2.893858938013   114.02915995   295.31822648
 O     33  19  18     2.305155038006   118.18823681   276.91718965
 O     18  17  16     2.708920963637   111.59558644   264.19970339
 O     15  14  13     2.352347009506   121.72773918   222.33381383
 C     14  13  12     2.900999417142   112.96600764   108.07435790
 C     46  14  13     2.889657515592   114.45771339    53.81338301
 O     12  11  10     2.325144905943   120.06756465   154.39175974
 C     11  10   2     2.925219492723   109.35749649   179.77123137
 C     49  11  10     2.900665590073   112.50217197    68.17603936
 C     49  11  10     2.893064846258   111.25446931   193.47592741
 H      3   2   1     2.073226364720   102.93355204    52.58365240
 H      4   3   2     2.077154027898   109.18569752   142.09938516
 H      4   3   2     2.070588499339   111.40367477    22.26764441
 H      5   4   3     2.079764590930   110.47256888    78.80548298
 H      5   4   3     2.072531547814   113.21728241   200.23298399
 H      6   5   4     2.068678724318   112.57365252   154.60102393
 H      6   5   4     2.082361623167   110.71806137   277.15640560
 H     10   2   1     1.921670753349   116.95636686   186.17007998
[...]
freq.      85.03  E(vib)   ...       0.48 
freq.      94.34  E(vib)   ...       0.47 
freq.      95.35  E(vib)   ...       0.47 
freq.      99.19  E(vib)   ...       0.46 
freq.     106.12  E(vib)   ...       0.45 
freq.     109.09  E(vib)   ...       0.45 
freq.     113.63  E(vib)   ...       0.44 
freq.     120.32  E(vib)   ...       0.44 
freq.     122.71  E(vib)   ...       0.43 
freq.     129.65  E(vib)   ...       0.43 
freq.     138.25  E(vib)   ...       0.42 
freq.     141.87  E(vib)   ...       0.41 
freq.     148.86  E(vib)   ...       0.40 
freq.     152.43  E(vib)   ...       0.40 
freq.     152.89  E(vib)   ...       0.40 
freq.     154.06  E(vib)   ...       0.40 
freq.     166.64  E(vib)   ...       0.39 
freq.     170.10  E(vib)   ...       0.38 
freq.     173.95  E(vib)   ...       0.38 
freq.     177.57  E(vib)   ...       0.37 
freq.     185.67  E(vib)   ...       0.37 
freq.     187.68  E(vib)   ...       0.36 
freq.     205.03  E(vib)   ...       0.35 
freq.     212.92  E(vib)   ...       0.34 
freq.     216.71  E(vib)   ...       0.34 
freq.     219.61  E(vib)   ...       0.33 
freq.     227.29  E(vib)   ...       0.33 
freq.     232.25  E(vib)   ...       0.32 
freq.     236.30  E(vib)   ...       0.32 
freq.     242.16  E(vib)   ...       0.31 
freq.     250.12  E(vib)   ...       0.31 
freq.     251.22  E(vib)   ...       0.30 
freq.     252.10  E(vib)   ...       0.30 
freq.     253.02  E(vib)   ...       0.30 
freq.     259.72  E(vib)   ...       0.30 
freq.     265.82  E(vib)   ...       0.29 
freq.     270.34  E(vib)   ...       0.29 
freq.     273.27  E(vib)   ...       0.29 
freq.     282.76  E(vib)   ...       0.28 
freq.     290.16  E(vib)   ...       0.27 
freq.     297.85  E(vib)   ...       0.27 
freq.     302.19  E(vib)   ...       0.26 
freq.     309.27  E(vib)   ...       0.26 
freq.     327.77  E(vib)   ...       0.24 
freq.     334.59  E(vib)   ...       0.24 
freq.     342.41  E(vib)   ...       0.23 
freq.     349.30  E(vib)   ...       0.23 
freq.     364.02  E(vib)   ...       0.22 
freq.     364.91  E(vib)   ...       0.22 
freq.     382.63  E(vib)   ...       0.20 
freq.     388.44  E(vib)   ...       0.20 
freq.     390.12  E(vib)   ...       0.20 
freq.     403.95  E(vib)   ...       0.19 
freq.     404.98  E(vib)   ...       0.19 
freq.     410.84  E(vib)   ...       0.19 
freq.     426.06  E(vib)   ...       0.18 
freq.     435.99  E(vib)   ...       0.17 
freq.     455.24  E(vib)   ...       0.16 
freq.     458.27  E(vib)   ...       0.16 
freq.     461.88  E(vib)   ...       0.16 
freq.     470.64  E(vib)   ...       0.15 
freq.     482.04  E(vib)   ...       0.15 
freq.     496.40  E(vib)   ...       0.14 
freq.     500.45  E(vib)   ...       0.14 
freq.     520.56  E(vib)   ...       0.13 
freq.     533.34  E(vib)   ...       0.13 
freq.     542.10  E(vib)   ...       0.12 
freq.     563.89  E(vib)   ...       0.11 
freq.     572.74  E(vib)   ...       0.11 
freq.     583.98  E(vib)   ...       0.11 
freq.     593.49  E(vib)   ...       0.10 
freq.     615.69  E(vib)   ...       0.10 
freq.     618.37  E(vib)   ...       0.09 
freq.     649.98  E(vib)   ...       0.08 
freq.     652.76  E(vib)   ...       0.08 
freq.     673.97  E(vib)   ...       0.08 
freq.     695.79  E(vib)   ...       0.07 
freq.     702.85  E(vib)   ...       0.07 
freq.     711.58  E(vib)   ...       0.07 
freq.     715.15  E(vib)   ...       0.07 
freq.     718.57  E(vib)   ...       0.07 
freq.     728.00  E(vib)   ...       0.06 
freq.     730.52  E(vib)   ...       0.06 
freq.     735.56  E(vib)   ...       0.06 
freq.     741.36  E(vib)   ...       0.06 
freq.     746.90  E(vib)   ...       0.06 
freq.     751.48  E(vib)   ...       0.06 
freq.     758.84  E(vib)   ...       0.06 
freq.     763.04  E(vib)   ...       0.06 
freq.     765.79  E(vib)   ...       0.06 
freq.     770.36  E(vib)   ...       0.05 
freq.     779.50  E(vib)   ...       0.05 
freq.     796.89  E(vib)   ...       0.05 
freq.     801.86  E(vib)   ...       0.05 
freq.     803.23  E(vib)   ...       0.05 
freq.     814.24  E(vib)   ...       0.05 
freq.     818.34  E(vib)   ...       0.05 
freq.     828.45  E(vib)   ...       0.04 
freq.     837.31  E(vib)   ...       0.04 
freq.     842.82  E(vib)   ...       0.04 
freq.     857.67  E(vib)   ...       0.04 
freq.     858.85  E(vib)   ...       0.04 
freq.     871.65  E(vib)   ...       0.04 
freq.     876.47  E(vib)   ...       0.04 
freq.     878.09  E(vib)   ...       0.04 
freq.     891.66  E(vib)   ...       0.03 
freq.     903.30  E(vib)   ...       0.03 
freq.     905.01  E(vib)   ...       0.03 
freq.     910.45  E(vib)   ...       0.03 
freq.     915.40  E(vib)   ...       0.03 
freq.     919.10  E(vib)   ...       0.03 
freq.     923.34  E(vib)   ...       0.03 
freq.     929.35  E(vib)   ...       0.03 
freq.     938.79  E(vib)   ...       0.03 
freq.     941.55  E(vib)   ...       0.03 
freq.     942.50  E(vib)   ...       0.03 
freq.     944.47  E(vib)   ...       0.03 
freq.     946.22  E(vib)   ...       0.03 
freq.     950.16  E(vib)   ...       0.03 
freq.     954.30  E(vib)   ...       0.03 
freq.     970.80  E(vib)   ...       0.03 
freq.     974.87  E(vib)   ...       0.03 
freq.     981.09  E(vib)   ...       0.02 
freq.     990.38  E(vib)   ...       0.02 
freq.     991.21  E(vib)   ...       0.02 
freq.     999.94  E(vib)   ...       0.02 
freq.    1006.23  E(vib)   ...       0.02 
freq.    1013.82  E(vib)   ...       0.02 
freq.    1025.88  E(vib)   ...       0.02 
freq.    1029.95  E(vib)   ...       0.02 
freq.    1037.95  E(vib)   ...       0.02 
freq.    1039.43  E(vib)   ...       0.02 
freq.    1049.28  E(vib)   ...       0.02 
freq.    1055.74  E(vib)   ...       0.02 
freq.    1057.28  E(vib)   ...       0.02 
freq.    1062.96  E(vib)   ...       0.02 
freq.    1064.87  E(vib)   ...       0.02 
freq.    1068.59  E(vib)   ...       0.02 
freq.    1072.08  E(vib)   ...       0.02 
freq.    1077.13  E(vib)   ...       0.02 
freq.    1080.40  E(vib)   ...       0.02 
freq.    1084.46  E(vib)   ...       0.02 
freq.    1091.62  E(vib)   ...       0.02 
freq.    1096.55  E(vib)   ...       0.02 
freq.    1098.90  E(vib)   ...       0.02 
freq.    1103.81  E(vib)   ...       0.02 
freq.    1112.36  E(vib)   ...       0.01 
freq.    1113.65  E(vib)   ...       0.01 
freq.    1120.49  E(vib)   ...       0.01 
freq.    1130.15  E(vib)   ...       0.01 
freq.    1137.50  E(vib)   ...       0.01 
freq.    1140.10  E(vib)   ...       0.01 
freq.    1146.78  E(vib)   ...       0.01 
freq.    1153.00  E(vib)   ...       0.01 
freq.    1158.17  E(vib)   ...       0.01 
freq.    1162.78  E(vib)   ...       0.01 
freq.    1165.66  E(vib)   ...       0.01 
freq.    1169.13  E(vib)   ...       0.01 
freq.    1182.83  E(vib)   ...       0.01 
freq.    1191.98  E(vib)   ...       0.01 
freq.    1199.52  E(vib)   ...       0.01 
freq.    1204.19  E(vib)   ...       0.01 
freq.    1212.75  E(vib)   ...       0.01 
freq.    1217.41  E(vib)   ...       0.01 
freq.    1221.56  E(vib)   ...       0.01 
freq.    1225.48  E(vib)   ...       0.01 
freq.    1234.43  E(vib)   ...       0.01 
freq.    1235.77  E(vib)   ...       0.01 
freq.    1237.53  E(vib)   ...       0.01 
freq.    1241.46  E(vib)   ...       0.01 
freq.    1246.64  E(vib)   ...       0.01 
freq.    1248.74  E(vib)   ...       0.01 
freq.    1253.95  E(vib)   ...       0.01 
freq.    1256.53  E(vib)   ...       0.01 
freq.    1259.64  E(vib)   ...       0.01 
freq.    1266.14  E(vib)   ...       0.01 
freq.    1269.06  E(vib)   ...       0.01 
freq.    1276.68  E(vib)   ...       0.01 
freq.    1279.32  E(vib)   ...       0.01 
freq.    1283.36  E(vib)   ...       0.01 
freq.    1284.94  E(vib)   ...       0.01 
freq.    1290.09  E(vib)   ...       0.01 
freq.    1291.57  E(vib)   ...       0.01 
freq.    1293.63  E(vib)   ...       0.01 
freq.    1294.28  E(vib)   ...       0.01 
freq.    1295.88  E(vib)   ...       0.01 
freq.    1297.86  E(vib)   ...       0.01 
freq.    1302.68  E(vib)   ...       0.01 
freq.    1304.53  E(vib)   ...       0.01 
freq.    1307.04  E(vib)   ...       0.01 
freq.    1308.86  E(vib)   ...       0.01 
freq.    1316.50  E(vib)   ...       0.01 
freq.    1320.84  E(vib)   ...       0.01 
freq.    1325.34  E(vib)   ...       0.01 
freq.    1326.39  E(vib)   ...       0.01 
freq.    1328.25  E(vib)   ...       0.01 
freq.    1328.63  E(vib)   ...       0.01 
freq.    1330.21  E(vib)   ...       0.01 
freq.    1332.22  E(vib)   ...       0.01 
freq.    1336.63  E(vib)   ...       0.01 
freq.    1337.61  E(vib)   ...       0.01 
freq.    1341.99  E(vib)   ...       0.01 
freq.    1345.45  E(vib)   ...       0.01 
freq.    1349.98  E(vib)   ...       0.01 
freq.    1352.71  E(vib)   ...       0.01 
freq.    1352.97  E(vib)   ...       0.01 
freq.    1357.17  E(vib)   ...       0.01 
freq.    1359.40  E(vib)   ...       0.01 
freq.    1360.64  E(vib)   ...       0.01 
freq.    1364.27  E(vib)   ...       0.01 
freq.    1366.51  E(vib)   ...       0.01 
freq.    1373.78  E(vib)   ...       0.01 
freq.    1379.45  E(vib)   ...       0.01 
freq.    1381.04  E(vib)   ...       0.01 
freq.    1385.91  E(vib)   ...       0.00 
freq.    1417.76  E(vib)   ...       0.00 
freq.    1423.70  E(vib)   ...       0.00 
freq.    1426.34  E(vib)   ...       0.00 
freq.    1431.47  E(vib)   ...       0.00 
freq.    1432.64  E(vib)   ...       0.00 
freq.    1434.04  E(vib)   ...       0.00 
freq.    1434.49  E(vib)   ...       0.00 
freq.    1435.57  E(vib)   ...       0.00 
freq.    1437.84  E(vib)   ...       0.00 
freq.    1440.18  E(vib)   ...       0.00 
freq.    1440.62  E(vib)   ...       0.00 
freq.    1441.68  E(vib)   ...       0.00 
freq.    1442.62  E(vib)   ...       0.00 
freq.    1443.49  E(vib)   ...       0.00 
freq.    1445.68  E(vib)   ...       0.00 
freq.    1447.77  E(vib)   ...       0.00 
freq.    1450.93  E(vib)   ...       0.00 
freq.    1452.15  E(vib)   ...       0.00 
freq.    1453.61  E(vib)   ...       0.00 
freq.    1454.01  E(vib)   ...       0.00 
freq.    1455.98  E(vib)   ...       0.00 
freq.    1456.08  E(vib)   ...       0.00 
freq.    1456.55  E(vib)   ...       0.00 
freq.    1459.22  E(vib)   ...       0.00 
freq.    1459.93  E(vib)   ...       0.00 
freq.    1460.06  E(vib)   ...       0.00 
freq.    1463.27  E(vib)   ...       0.00 
freq.    1471.03  E(vib)   ...       0.00 
freq.    1477.46  E(vib)   ...       0.00 
freq.    1503.40  E(vib)   ...       0.00 
freq.    1508.52  E(vib)   ...       0.00 
freq.    1520.08  E(vib)   ...       0.00 
freq.    1521.63  E(vib)   ...       0.00 
freq.    1606.97  E(vib)   ...       0.00 
freq.    1619.90  E(vib)   ...       0.00 
freq.    1636.98  E(vib)   ...       0.00 
freq.    1661.76  E(vib)   ...       0.00 
freq.    1683.58  E(vib)   ...       0.00 
freq.    1706.62  E(vib)   ...       0.00 
freq.    1708.28  E(vib)   ...       0.00 
freq.    2915.43  E(vib)   ...       0.00 
freq.    2917.32  E(vib)   ...       0.00 
freq.    2924.33  E(vib)   ...       0.00 
freq.    2925.50  E(vib)   ...       0.00 
freq.    2925.95  E(vib)   ...       0.00 
freq.    2927.18  E(vib)   ...       0.00 
freq.    2934.95  E(vib)   ...       0.00 
freq.    2940.23  E(vib)   ...       0.00 
freq.    2941.85  E(vib)   ...       0.00 
freq.    2945.05  E(vib)   ...       0.00 
freq.    2946.95  E(vib)   ...       0.00 
freq.    2952.73  E(vib)   ...       0.00 
freq.    2953.45  E(vib)   ...       0.00 
freq.    2955.69  E(vib)   ...       0.00 
freq.    2959.09  E(vib)   ...       0.00 
freq.    2959.53  E(vib)   ...       0.00 
freq.    2959.88  E(vib)   ...       0.00 
freq.    2960.06  E(vib)   ...       0.00 
freq.    2962.12  E(vib)   ...       0.00 
freq.    2966.82  E(vib)   ...       0.00 
freq.    2968.34  E(vib)   ...       0.00 
freq.    2971.40  E(vib)   ...       0.00 
freq.    2972.30  E(vib)   ...       0.00 
freq.    2973.80  E(vib)   ...       0.00 
freq.    2975.23  E(vib)   ...       0.00 
freq.    2975.93  E(vib)   ...       0.00 
freq.    2976.52  E(vib)   ...       0.00 
freq.    2977.15  E(vib)   ...       0.00 
freq.    2979.36  E(vib)   ...       0.00 
freq.    2980.32  E(vib)   ...       0.00 
freq.    2990.57  E(vib)   ...       0.00 
freq.    2991.29  E(vib)   ...       0.00 
freq.    2995.79  E(vib)   ...       0.00 
freq.    3005.74  E(vib)   ...       0.00 
freq.    3007.85  E(vib)   ...       0.00 
freq.    3015.75  E(vib)   ...       0.00 
freq.    3016.09  E(vib)   ...       0.00 
freq.    3016.37  E(vib)   ...       0.00 
freq.    3019.42  E(vib)   ...       0.00 
freq.    3021.20  E(vib)   ...       0.00 
freq.    3022.43  E(vib)   ...       0.00 
freq.    3022.76  E(vib)   ...       0.00 
freq.    3025.49  E(vib)   ...       0.00 
freq.    3031.02  E(vib)   ...       0.00 
freq.    3031.23  E(vib)   ...       0.00 
freq.    3031.84  E(vib)   ...       0.00 
freq.    3033.07  E(vib)   ...       0.00 
freq.    3038.00  E(vib)   ...       0.00 
freq.    3038.47  E(vib)   ...       0.00 
freq.    3041.42  E(vib)   ...       0.00 
freq.    3043.74  E(vib)   ...       0.00 
freq.    3046.38  E(vib)   ...       0.00 
freq.    3051.88  E(vib)   ...       0.00 
freq.    3054.74  E(vib)   ...       0.00 
freq.    3058.02  E(vib)   ...       0.00 
freq.    3058.71  E(vib)   ...       0.00 
freq.    3062.76  E(vib)   ...       0.00 
freq.    3070.30  E(vib)   ...       0.00 
freq.    3232.92  E(vib)   ...       0.00 
freq.    3285.12  E(vib)   ...       0.00 
freq.    3295.59  E(vib)   ...       0.00 
freq.    3343.28  E(vib)   ...       0.00 
freq.    3388.52  E(vib)   ...       0.00 
freq.    3489.55  E(vib)   ...       0.00 

------------
INNER ENERGY
------------

The inner energy is: U= E(el) + E(ZPE) + E(vib) + E(rot) + E(trans)
    E(el)   - is the total energy from the electronic structure calculation
              = E(kin-el) + E(nuc-el) + E(el-el) + E(nuc-nuc)
    E(ZPE)  - the the zero temperature vibrational energy from the frequency calculation
    E(vib)  - the the finite temperature correction to E(ZPE) due to population
              of excited vibrational states
    E(rot)  - is the rotational thermal energy
    E(trans)- is the translational thermal energy

Summary of contributions to the inner energy U:
Electronic energy                ...  -2380.08435633 Eh
Zero point energy                ...      0.97848837 Eh     614.01 kcal/mol
Thermal vibrational correction   ...      0.05514845 Eh      34.61 kcal/mol
Thermal rotational correction    ...      0.00141627 Eh       0.89 kcal/mol
Thermal translational correction ...      0.00141627 Eh       0.89 kcal/mol
-----------------------------------------------------------------------
Total thermal energy                  -2379.04788696 Eh


Summary of corrections to the electronic energy:
(perhaps to be used in another calculation)
Total thermal correction                  0.05798100 Eh      36.38 kcal/mol
Non-thermal (ZPE) correction              0.97848837 Eh     614.01 kcal/mol
-----------------------------------------------------------------------
Total correction                          1.03646937 Eh     650.39 kcal/mol


--------
ENTHALPY
--------

The enthalpy is H = U + kB*T
                kB is Boltzmann's constant
Total free energy                 ...  -2379.04788696 Eh 
Thermal Enthalpy correction       ...      0.00094421 Eh       0.59 kcal/mol
-----------------------------------------------------------------------
Total Enthalpy                    ...  -2379.04694275 Eh


Note: Only C1 symmetry has been detected, increase convergence thresholds 
      if your molecule has a higher symmetry. Symmetry factor of 1.0 is   
      used for the rotational entropy correction. 
 

Note: Rotational entropy computed according to Herzberg 
Infrared and Raman Spectra, Chapter V,1, Van Nostrand Reinhold, 1945 
Point Group:  C1, Symmetry Number:   1  
Rotational constants in cm-1:     0.003130     0.000851     0.000796 

Vibrational entropy computed according to the QRRHO of S. Grimme
Chem.Eur.J. 2012 18 9955


-------
ENTROPY
-------

The entropy contributions are T*S = T*(S(el)+S(vib)+S(rot)+S(trans))
     S(el)   - electronic entropy
     S(vib)  - vibrational entropy
     S(rot)  - rotational entropy
     S(trans)- translational entropy
The entropies will be listed as mutliplied by the temperature to get
units of energy

Electronic entropy                ...      0.00000000 Eh      0.00 kcal/mol
Vibrational entropy               ...      0.10135638 Eh     63.60 kcal/mol
Rotational entropy                ...      0.01893919 Eh     11.88 kcal/mol
Translational entropy             ...      0.02166895 Eh     13.60 kcal/mol
-----------------------------------------------------------------------
Final entropy term                ...      0.14196451 Eh     89.08 kcal/mol

In case the symmetry of your molecule has not been determined correctly
or in case you have a reason to use a different symmetry number we print 
out the resulting rotational entropy values for sn=1,12 :
 --------------------------------------------------------
|  sn= 1 | S(rot)=       0.01893919 Eh     11.88 kcal/mol|
|  sn= 2 | S(rot)=       0.01828473 Eh     11.47 kcal/mol|
|  sn= 3 | S(rot)=       0.01790190 Eh     11.23 kcal/mol|
|  sn= 4 | S(rot)=       0.01763027 Eh     11.06 kcal/mol|
|  sn= 5 | S(rot)=       0.01741958 Eh     10.93 kcal/mol|
|  sn= 6 | S(rot)=       0.01724744 Eh     10.82 kcal/mol|
|  sn= 7 | S(rot)=       0.01710189 Eh     10.73 kcal/mol|
|  sn= 8 | S(rot)=       0.01697582 Eh     10.65 kcal/mol|
|  sn= 9 | S(rot)=       0.01686461 Eh     10.58 kcal/mol|
|  sn=10 | S(rot)=       0.01676513 Eh     10.52 kcal/mol|
|  sn=11 | S(rot)=       0.01667514 Eh     10.46 kcal/mol|
|  sn=12 | S(rot)=       0.01659298 Eh     10.41 kcal/mol|
 --------------------------------------------------------


-------------------
GIBBS FREE ENERGY
-------------------

The Gibbs free energy is G = H - T*S

Total enthalpy                    ...  -2379.04694275 Eh 
Total entropy correction          ...     -0.14196451 Eh    -89.08 kcal/mol
-----------------------------------------------------------------------
Final Gibbs free energy         ...  -2379.18890727 Eh

For completeness - the Gibbs free energy minus the electronic energy
G-E(el)                           ...      0.89544906 Eh    561.90 kcal/mol

--------------------------------------------------------------------------
WARNING: No preset parameters were found for the device that Open MPI
detected:

  Local host:            eu-g1-004-4
  Device name:           mlx5_0
  Device vendor ID:      0x02c9
  Device vendor part ID: 4123

Default device parameters will be used, which may result in lower
performance.  You can edit any of the files specified by the
btl_openib_device_param_files MCA parameter to set values for your
device.

NOTE: You can turn off this warning by setting the MCA parameter
      btl_openib_warn_no_device_params_found to 0.
--------------------------------------------------------------------------
--------------------------------------------------------------------------
WARNING: There was an error initializing an OpenFabrics device.

  Local host:   eu-g1-004-4
  Local device: mlx5_0
--------------------------------------------------------------------------

Timings for individual modules:

Sum of individual times         ...    25152.483 sec (= 419.208 min)
GTO integral calculation        ...       17.921 sec (=   0.299 min)   0.1 %
SCF iterations                  ...      519.162 sec (=   8.653 min)   2.1 %
SCF Gradient evaluation         ...      138.483 sec (=   2.308 min)   0.6 %
Geometry relaxation             ...        6.971 sec (=   0.116 min)   0.0 %
Analytical frequency calculation...    24469.948 sec (= 407.832 min)  97.3 %
                             ****ORCA TERMINATED NORMALLY****
TOTAL RUN TIME: 0 days 6 hours 59 minutes 32 seconds 597 msec
