
                                 *****************
                                 * O   R   C   A *
                                 *****************

           --- An Ab Initio, DFT and Semiempirical electronic structure package ---

                  #######################################################
                  #                        -***-                        #
                  #          Department of theory and spectroscopy      #
                  #               Directorship: Frank Neese             #
                  #        Max Planck Institute fuer Kohlenforschung    #
                  #                Kaiser Wilhelm Platz 1               #
                  #                 D-45470 Muelheim/Ruhr               #
                  #                      Germany                        #
                  #                                                     #
                  #                  All rights reserved                #
                  #                        -***-                        #
                  #######################################################


                         Program Version 4.2.0 -  RELEASE  -


 With contributions from (in alphabetic order):
   Daniel Aravena         : Magnetic Suceptibility
   Michael Atanasov       : Ab Initio Ligand Field Theory (pilot matlab implementation)
   Alexander A. Auer      : GIAO ZORA, VPT2
   Ute Becker             : Parallelization
   Giovanni Bistoni       : ED, misc. LED, open-shell LED, HFLED
   Martin Brehm           : Molecular dynamics
   Dmytro Bykov           : SCF Hessian
   Vijay G. Chilkuri      : MRCI spin determinant printing, contributions to CSF-ICE
   Dipayan Datta          : RHF DLPNO-CCSD density
   Achintya Kumar Dutta   : EOM-CC, STEOM-CC
   Dmitry Ganyushin       : Spin-Orbit,Spin-Spin,Magnetic field MRCI
   Miquel Garcia          : C-PCM Hessian, Gaussian charge scheme
   Yang Guo               : DLPNO-NEVPT2, CIM, IAO-localization
   Andreas Hansen         : Spin unrestricted coupled pair/coupled cluster methods
   Benjamin Helmich-Paris : CASSCF linear response (MC-RPA)
   Lee Huntington         : MR-EOM, pCC
   Robert Izsak           : Overlap fitted RIJCOSX, COSX-SCS-MP3, EOM
   Christian Kollmar      : KDIIS, OOCD, Brueckner-CCSD(T), CCSD density
   Simone Kossmann        : Meta GGA functionals, TD-DFT gradient, OOMP2, MP2 Hessian
   Martin Krupicka        : AUTO-CI
   Lucas Lang             : DCDCAS
   Dagmar Lenk            : GEPOL surface, SMD
   Dimitrios Liakos       : Extrapolation schemes; Compound Job, initial MDCI parallelization
   Dimitrios Manganas     : Further ROCIS development; embedding schemes
   Dimitrios Pantazis     : SARC Basis sets
   Taras Petrenko         : DFT Hessian,TD-DFT gradient, ASA, ECA, R-Raman, ABS, FL, XAS/XES, NRVS
   Peter Pinski           : DLPNO-MP2, DLPNO-MP2 Gradient
   Christoph Reimann      : Effective Core Potentials
   Marius Retegan         : Local ZFS, SOC
   Christoph Riplinger    : Optimizer, TS searches, QM/MM, DLPNO-CCSD(T), (RO)-DLPNO pert. Triples
   Tobias Risthaus        : Range-separated hybrids, TD-DFT gradient, RPA, STAB
   Michael Roemelt        : Original ROCIS implementation
   Masaaki Saitow         : Open-shell DLPNO-CCSD energy and density
   Barbara Sandhoefer     : DKH picture change effects
   Avijit Sen             : IP-ROCIS
   Kantharuban Sivalingam : CASSCF convergence, NEVPT2, FIC-MRCI
   Bernardo de Souza      : ESD, SOC TD-DFT
   Georgi Stoychev        : AutoAux, RI-MP2 NMR
   Willem Van den Heuvel  : Paramagnetic NMR
   Boris Wezisla          : Elementary symmetry handling
   Frank Wennmohs         : Technical directorship


 We gratefully acknowledge several colleagues who have allowed us to
 interface, adapt or use parts of their codes:
   Stefan Grimme, W. Hujo, H. Kruse,             : VdW corrections, initial TS optimization,
                  C. Bannwarth                     DFT functionals, gCP, sTDA/sTD-DF
   Ed Valeev, F. Pavosevic, A. Kumar             : LibInt (2-el integral package), F12 methods
   Garnet Chan, S. Sharma, J. Yang, R. Olivares  : DMRG
   Ulf Ekstrom                                   : XCFun DFT Library
   Mihaly Kallay                                 : mrcc  (arbitrary order and MRCC methods)
   Andreas Klamt, Michael Diedenhofen            : otool_cosmo (COSMO solvation model)
   Jiri Pittner, Ondrej Demel                    : Mk-CCSD
   Frank Weinhold                                : gennbo (NPA and NBO analysis)
   Christopher J. Cramer and Donald G. Truhlar   : smd solvation model
   Lars Goerigk                                  : TD-DFT with DH, B97 family of functionals
   V. Asgeirsson, H. Jonsson                     : NEB implementation
   FAccTs GmbH                                   : IRC, NEB, NEB-TS, Multilevel, MM, QM/MM, CI optimization
   S Lehtola, MJT Oliveira, MAL Marques          : LibXC Library


 Your calculation uses the libint2 library for the computation of 2-el integrals
 For citations please refer to: http://libint.valeyev.net

 Your ORCA version has been built with support for libXC version: 4.2.3
 For citations please refer to: https://tddft.org/programs/libxc/

 This ORCA versions uses:
   CBLAS   interface :  Fast vector & matrix operations
   LAPACKE interface :  Fast linear algebra routines
   SCALAPACK package :  Parallel linear algebra routines




***************************************
The coordinates will be read from file: 21.xyz
***************************************


Your calculation utilizes the atom-pairwise dispersion correction
with the Becke-Johnson damping scheme (D3BJ)
Cite in your paper:
S.Grimme, S.Ehrlich, L.Goerigk, J Comput Chem, (2011), 32, 1456–1465 
S.Grimme, J.Antony, S.Ehrlich and H.Krieg, J.Chem.Phys., 132, (2010), 154104 
   

----- Orbital basis set information -----
Your calculation utilizes the basis: def2-TZVP
   F. Weigend and R. Ahlrichs, Phys. Chem. Chem. Phys. 7, 3297 (2005).

----- AuxJ basis set information -----
Your calculation utilizes the auxiliary basis: def2/J
   F. Weigend, Phys. Chem. Chem. Phys. 8, 1057 (2006).

================================================================================
                                        WARNINGS
                       Please study these warnings very carefully!
================================================================================


WARNING: Geometry Optimization
  ===> : Switching off AutoStart
         For restart on a previous wavefunction, please use MOREAD

INFO   : the flag for use of LIBINT has been found!

================================================================================
                                       INPUT FILE
================================================================================
NAME = 21.inp
|  1> !RI BP86 def2-tzvp def2/J D3BJ TIGHTSCF TightOpt Grid5 FinalGrid6 freq
|  2> %maxcore 4000
|  3> %pal nprocs 24
|  4> end
|  5> * xyzfile 0 1 21.xyz 
|  6> 
|  7>                          ****END OF INPUT****
================================================================================

                       *****************************
                       * Geometry Optimization Run *
                       *****************************

Geometry optimization settings:
Update method            Update   .... BFGS
Choice of coordinates    CoordSys .... Z-matrix Internals
Initial Hessian          InHess   .... Almoef's Model

Convergence Tolerances:
Energy Change            TolE     ....  1.0000e-06 Eh
Max. Gradient            TolMAXG  ....  1.0000e-04 Eh/bohr
RMS Gradient             TolRMSG  ....  3.0000e-05 Eh/bohr
Max. Displacement        TolMAXD  ....  1.0000e-03 bohr
RMS Displacement         TolRMSD  ....  6.0000e-04 bohr
Strict Convergence                ....  False
------------------------------------------------------------------------------
                        ORCA OPTIMIZATION COORDINATE SETUP
------------------------------------------------------------------------------

The optimization will be done in new redundant internal coordinates
Making redundant internal coordinates   ...  (new redundants) done
Evaluating the initial hessian          ...  (Almloef) done
Evaluating the coordinates              ...  done
Calculating the B-matrix                .... done
Calculating the G-matrix                .... done
Diagonalizing the G-matrix              .... done
Small eigenvalue found = 8.155e-04
Small eigenvalue found = 1.938e-03
Small eigenvalue found = 3.590e-03
Small eigenvalue found = 4.084e-03
Small eigenvalue found = 5.543e-03
Small eigenvalue found = 6.760e-03
Small eigenvalue found = 7.236e-03
Small eigenvalue found = 8.543e-03
Small eigenvalue found = 1.063e-02
Small eigenvalue found = 1.081e-02
Small eigenvalue found = 1.273e-02
Small eigenvalue found = 1.545e-02
Small eigenvalue found = 1.871e-02
Small eigenvalue found = 1.942e-02
Small eigenvalue found = 2.257e-02
Small eigenvalue found = 2.397e-02
Small eigenvalue found = 2.862e-02
Small eigenvalue found = 2.914e-02
The first mode is                       ....  328
The number of degrees of freedom        ....  339

    -----------------------------------------------------------------
                    Redundant Internal Coordinates


    -----------------------------------------------------------------
         Definition                    Initial Value    Approx d2E/dq
    -----------------------------------------------------------------
      1. B(C   1,O   0)                  1.2332         0.995665   
      2. B(C   2,C   1)                  1.5512         0.345544   
      3. B(C   3,C   2)                  1.5279         0.376523   
      4. B(C   4,C   3)                  1.5352         0.366556   
      5. B(C   5,C   4)                  1.5341         0.368043   
      6. B(N   6,C   2)                  1.4791         0.403410   
      7. B(N   6,C   5)                  1.4770         0.406557   
      8. B(C   7,N   6)                  1.3549         0.636702   
      9. B(O   8,C   7)                  1.2388         0.975343   
     10. B(N   9,C   1)                  1.3564         0.633205   
     11. B(C  10,N   9)                  1.4477         0.452759   
     12. B(C  11,C  10)                  1.5315         0.371576   
     13. B(N  12,C  11)                  1.3581         0.629085   
     14. B(C  13,N  12)                  1.4655         0.424097   
     15. B(C  14,C  13)                  1.5467         0.351283   
     16. B(N  15,C  14)                  1.3508         0.646336   
     17. B(C  16,N  15)                  1.4601         0.432588   
     18. B(C  17,C  16)                  1.5392         0.361105   
     19. B(C  18,C  17)                  1.5420         0.357463   
     20. B(C  19,C  18)                  1.5351         0.366674   
     21. B(N  20,C  19)                  1.3601         0.624542   
     22. B(C  21,N  20)                  1.4474         0.453169   
     23. B(C  22,C  21)                  1.5336         0.368665   
     24. B(N  23,C  22)                  1.3561         0.633762   
     25. B(C  24,N  23)                  1.4510         0.447278   
     26. B(C  24,C   7)                  1.5469         0.351097   
     27. B(C  25,C  24)                  1.5320         0.370840   
     28. B(O  26,C  22)                  1.2357         0.986457   
     29. B(C  27,C  21)                  1.5586         0.336270   
     30. B(C  28,C  27)                  1.5356         0.365906   
     31. B(C  29,C  28)                  1.5316         0.371321   
     32. B(C  30,C  28)                  1.5330         0.369524   
     33. B(O  31,C  19)                  1.2338         0.993345   
     34. B(C  32,C  18)                  1.5416         0.358024   
     35. B(C  33,C  32)                  1.5178         0.390726   
     36. B(C  34,C  33)                  1.5434         0.355568   
     37. B(C  35,C  34)                  1.5280         0.376293   
     38. B(C  36,C  35)                  1.5309         0.372344   
     39. B(C  37,C  36)                  1.5344         0.367543   
     40. B(C  38,C  37)                  1.5419         0.357551   
     41. B(C  39,C  38)                  1.5322         0.370608   
     42. B(C  40,C  39)                  1.5289         0.375037   
     43. B(C  41,C  40)                  1.5288         0.375168   
     44. B(O  42,C  32)                  1.2175         1.054693   
     45. B(O  43,C  17)                  1.4165         0.507743   
     46. B(O  44,C  14)                  1.2409         0.967896   
     47. B(C  45,C  13)                  1.5254         0.379912   
     48. B(C  46,C  45)                  1.5291         0.374813   
     49. B(O  47,C  11)                  1.2382         0.977346   
     50. B(C  48,C  10)                  1.5598         0.334856   
     51. B(C  49,C  48)                  1.5290         0.374983   
     52. B(C  50,C  48)                  1.5295         0.374252   
     53. B(H  51,C   2)                  1.1003         0.346779   
     54. B(H  52,C   3)                  1.0999         0.347203   
     55. B(H  53,C   3)                  1.0949         0.353668   
     56. B(H  54,C   4)                  1.0992         0.348182   
     57. B(H  55,C   4)                  1.0969         0.351074   
     58. B(H  56,C   5)                  1.0969         0.351024   
     59. B(H  57,C   5)                  1.1015         0.345184   
     60. B(H  58,N   9)                  1.0279         0.405108   
     61. B(H  59,C  10)                  1.1028         0.343498   
     62. B(H  60,N  12)                  1.0163         0.422827   
     63. B(H  61,C  13)                  1.1013         0.345467   
     64. B(H  62,O   8)                  4.7998         0.000000   
     65. B(H  62,N  15)                  1.0265         0.407192   
     66. B(H  63,C  16)                  1.1015         0.345261   
     67. B(H  64,C  16)                  1.0977         0.350019   
     68. B(H  65,C  17)                  1.1090         0.335847   
     69. B(H  66,C  18)                  1.0979         0.349825   
     70. B(H  67,N  20)                  1.0202         0.416861   
     71. B(H  68,C  21)                  1.1041         0.341903   
     72. B(H  69,N  23)                  1.0172         0.421469   
     73. B(H  70,C  24)                  1.0993         0.347949   
     74. B(H  71,C  25)                  1.0981         0.349521   
     75. B(H  72,C  25)                  1.0962         0.352043   
     76. B(H  73,C  25)                  1.1000         0.347153   
     77. B(H  74,C  27)                  1.1030         0.343314   
     78. B(H  75,C  27)                  1.0982         0.349389   
     79. B(H  76,C  28)                  1.1020         0.344567   
     80. B(H  77,C  29)                  1.0992         0.348097   
     81. B(H  78,C  29)                  1.1022         0.344271   
     82. B(H  79,C  29)                  1.0996         0.347670   
     83. B(H  80,C  30)                  1.1027         0.343664   
     84. B(H  81,C  30)                  1.0993         0.347981   
     85. B(H  82,C  30)                  1.1031         0.343231   
     86. B(H  83,C  33)                  1.1011         0.345745   
     87. B(H  84,C  33)                  1.0989         0.348548   
     88. B(H  85,C  34)                  1.1002         0.346798   
     89. B(H  86,C  34)                  1.1016         0.345135   
     90. B(H  87,C  35)                  1.1025         0.343946   
     91. B(H  88,C  35)                  1.1039         0.342161   
     92. B(H  89,C  36)                  1.1032         0.342992   
     93. B(H  90,H  74)                  2.6233         0.000247   
     94. B(H  90,C  36)                  1.1045         0.341440   
     95. B(H  91,C  37)                  1.1039         0.342150   
     96. B(H  92,C  37)                  1.1014         0.345385   
     97. B(H  93,C  38)                  1.1029         0.343418   
     98. B(H  94,H  71)                  4.2709         0.000001   
     99. B(H  94,C  38)                  1.1039         0.342214   
    100. B(H  95,C  39)                  1.1017         0.344936   
    101. B(H  96,C  39)                  1.1045         0.341382   
    102. B(H  97,H  56)                  2.2867         0.000850   
    103. B(H  97,C  40)                  1.1055         0.340207   
    104. B(H  98,C  40)                  1.1032         0.343105   
    105. B(H  99,C  41)                  1.1001         0.346949   
    106. B(H 100,C  41)                  1.1005         0.346521   
    107. B(H 101,C  41)                  1.0996         0.347631   
    108. B(H 102,O  43)                  0.9917         0.462776   
    109. B(H 103,C  45)                  1.0993         0.348048   
    110. B(H 104,C  45)                  1.1016         0.345093   
    111. B(H 105,C  46)                  1.0983         0.349284   
    112. B(H 106,C  46)                  1.1000         0.347051   
    113. B(H 107,C  46)                  1.0995         0.347790   
    114. B(H 108,C  48)                  1.1055         0.340167   
    115. B(H 109,H  65)                  2.0781         0.001828   
    116. B(H 109,C  49)                  1.0994         0.347832   
    117. B(H 110,C  49)                  1.0989         0.348463   
    118. B(H 111,C  49)                  1.0987         0.348816   
    119. B(H 112,C  50)                  1.0975         0.350306   
    120. B(H 113,O  26)                  4.1722         0.000004   
    121. B(H 113,H  99)                  2.5828         0.000286   
    122. B(H 113,C  50)                  1.0989         0.348560   
    123. B(H 114,C  50)                  1.0990         0.348452   
    124. A(O   0,C   1,N   9)          123.9825         0.468629   
    125. A(C   2,C   1,N   9)          114.5156         0.390246   
    126. A(O   0,C   1,C   2)          121.5017         0.422743   
    127. A(C   1,C   2,H  51)          107.8634         0.318237   
    128. A(N   6,C   2,H  51)          108.3069         0.324459   
    129. A(C   1,C   2,N   6)          112.7417         0.361022   
    130. A(C   1,C   2,C   3)          111.0440         0.359031   
    131. A(C   3,C   2,H  51)          114.0660         0.322735   
    132. A(C   3,C   2,N   6)          102.8407         0.366360   
    133. A(C   4,C   3,H  53)          112.8653         0.322357   
    134. A(C   4,C   3,H  52)          111.0100         0.321385   
    135. A(C   2,C   3,C   4)          102.4593         0.362663   
    136. A(C   2,C   3,H  53)          111.0358         0.323778   
    137. A(C   2,C   3,H  52)          109.8052         0.322800   
    138. A(H  52,C   3,H  53)          109.4877         0.288365   
    139. A(H  54,C   4,H  55)          108.1152         0.288160   
    140. A(C   3,C   4,H  55)          113.5910         0.321968   
    141. A(C   3,C   4,C   5)          103.5553         0.361255   
    142. A(C   3,C   4,H  54)          109.2879         0.321533   
    143. A(C   5,C   4,H  55)          111.9202         0.322182   
    144. A(C   5,C   4,H  54)          110.3123         0.321746   
    145. A(H  56,C   5,H  57)          108.2385         0.287764   
    146. A(C   4,C   5,N   6)          103.6170         0.365420   
    147. A(C   4,C   5,H  56)          112.9018         0.322174   
    148. A(N   6,C   5,H  57)          110.4456         0.324628   
    149. A(N   6,C   5,H  56)          110.8743         0.325524   
    150. A(C   4,C   5,H  57)          110.7385         0.321291   
    151. A(C   5,N   6,C   7)          126.9888         0.399354   
    152. A(C   2,N   6,C   7)          121.0417         0.398809   
    153. A(C   2,N   6,C   5)          111.5467         0.368898   
    154. A(O   8,C   7,C  24)          120.5935         0.422390   
    155. A(N   6,C   7,O   8)          122.3605         0.467333   
    156. A(N   6,C   7,C  24)          117.0044         0.391712   
    157. A(C   1,N   9,C  10)          120.8460         0.406612   
    158. A(C  10,N   9,H  58)          118.8945         0.336429   
    159. A(C   1,N   9,H  58)          118.5469         0.355946   
    160. A(C  48,C  10,H  59)          107.8353         0.316123   
    161. A(C  11,C  10,H  59)          109.3234         0.321536   
    162. A(N   9,C  10,C  11)          108.3953         0.372850   
    163. A(N   9,C  10,C  48)          112.9450         0.366243   
    164. A(N   9,C  10,H  59)          106.7524         0.330171   
    165. A(C  11,C  10,C  48)          111.4390         0.356316   
    166. A(N  12,C  11,O  47)          122.4279         0.466479   
    167. A(C  10,C  11,O  47)          122.3072         0.426852   
    168. A(C  10,C  11,N  12)          115.2561         0.394787   
    169. A(C  13,N  12,H  60)          117.5131         0.335168   
    170. A(C  11,N  12,C  13)          122.8909         0.401483   
    171. A(C  11,N  12,H  60)          118.8200         0.358147   
    172. A(C  14,C  13,C  45)          111.9160         0.360590   
    173. A(N  12,C  13,H  61)          106.2674         0.326935   
    174. A(C  14,C  13,H  61)          108.3974         0.318896   
    175. A(N  12,C  13,C  14)          109.1759         0.365147   
    176. A(C  45,C  13,H  61)          110.2361         0.323009   
    177. A(N  12,C  13,C  45)          110.6620         0.370087   
    178. A(C  13,C  14,N  15)          113.7066         0.392779   
    179. A(N  15,C  14,O  44)          124.3338         0.467963   
    180. A(C  13,C  14,O  44)          121.9500         0.421852   
    181. A(C  14,N  15,H  62)          116.0381         0.357500   
    182. A(C  16,N  15,H  62)          119.4809         0.334175   
    183. A(C  14,N  15,C  16)          123.8862         0.404816   
    184. A(H  63,C  16,H  64)          107.8257         0.287645   
    185. A(C  17,C  16,H  64)          110.2058         0.321022   
    186. A(N  15,C  16,H  63)          109.4417         0.327973   
    187. A(C  17,C  16,H  63)          107.9834         0.320304   
    188. A(N  15,C  16,C  17)          114.5361         0.368125   
    189. A(N  15,C  16,H  64)          106.6637         0.328715   
    190. A(O  43,C  17,H  65)          110.2452         0.335251   
    191. A(C  18,C  17,H  65)          109.0830         0.318334   
    192. A(C  16,C  17,H  65)          107.4630         0.318861   
    193. A(C  16,C  17,C  18)          109.9076         0.358548   
    194. A(C  18,C  17,O  43)          107.6306         0.377768   
    195. A(C  16,C  17,O  43)          112.4792         0.378431   
    196. A(C  19,C  18,H  66)          105.7243         0.321798   
    197. A(C  17,C  18,H  66)          109.1113         0.320461   
    198. A(C  17,C  18,C  32)          111.1182         0.358026   
    199. A(C  17,C  18,C  19)          111.4441         0.359484   
    200. A(C  19,C  18,C  32)          113.5515         0.359580   
    201. A(C  32,C  18,H  66)          105.4864         0.320543   
    202. A(C  18,C  19,N  20)          116.4099         0.393369   
    203. A(N  20,C  19,O  31)          122.0837         0.467247   
    204. A(C  18,C  19,O  31)          121.4917         0.427078   
    205. A(C  19,N  20,H  67)          122.7183         0.356843   
    206. A(C  19,N  20,C  21)          122.6440         0.405688   
    207. A(C  21,N  20,H  67)          114.6266         0.338087   
    208. A(C  27,C  21,H  68)          108.3762         0.316101   
    209. A(C  22,C  21,H  68)          107.9766         0.320878   
    210. A(N  20,C  21,H  68)          108.4281         0.329967   
    211. A(N  20,C  21,C  22)          106.4027         0.372403   
    212. A(C  22,C  21,C  27)          111.8501         0.356095   
    213. A(N  20,C  21,C  27)          113.6215         0.366564   
    214. A(C  21,C  22,N  23)          114.7503         0.394755   
    215. A(C  21,C  22,O  26)          122.4031         0.426960   
    216. A(N  23,C  22,O  26)          122.7980         0.467907   
    217. A(C  22,N  23,C  24)          121.9808         0.405800   
    218. A(C  24,N  23,H  69)          116.8263         0.337969   
    219. A(C  22,N  23,H  69)          117.0286         0.358402   
    220. A(C  25,C  24,H  70)          110.5276         0.322110   
    221. A(N  23,C  24,H  70)          108.1306         0.330209   
    222. A(C   7,C  24,H  70)          109.3128         0.319241   
    223. A(N  23,C  24,C  25)          108.5145         0.371941   
    224. A(C   7,C  24,N  23)          109.8131         0.368459   
    225. A(C   7,C  24,C  25)          110.5022         0.359075   
    226. A(H  71,C  25,H  73)          108.8566         0.287827   
    227. A(C  24,C  25,H  73)          110.1213         0.321989   
    228. A(H  71,C  25,H  72)          108.2989         0.288458   
    229. A(C  24,C  25,H  72)          111.4232         0.322728   
    230. A(C  24,C  25,H  71)          110.3062         0.322348   
    231. A(H  72,C  25,H  73)          107.7522         0.288151   
    232. A(C  28,C  27,H  75)          108.8935         0.321621   
    233. A(C  21,C  27,C  28)          114.5286         0.355641   
    234. A(H  74,C  27,H  75)          106.5853         0.287310   
    235. A(C  21,C  27,H  75)          107.2696         0.317217   
    236. A(C  28,C  27,H  74)          109.3790         0.320700   
    237. A(C  21,C  27,H  74)          109.8656         0.316312   
    238. A(C  29,C  28,C  30)          110.6184         0.362301   
    239. A(C  27,C  28,C  30)          112.4143         0.361394   
    240. A(C  27,C  28,C  29)          109.7331         0.361693   
    241. A(C  30,C  28,H  76)          108.6725         0.321408   
    242. A(C  29,C  28,H  76)          108.6496         0.321663   
    243. A(C  27,C  28,H  76)          106.6019         0.320891   
    244. A(C  28,C  29,H  79)          111.1618         0.322136   
    245. A(H  78,C  29,H  79)          107.6896         0.287214   
    246. A(H  77,C  29,H  79)          107.8819         0.287710   
    247. A(H  77,C  29,H  78)          107.8942         0.287269   
    248. A(C  28,C  29,H  78)          111.0225         0.321618   
    249. A(C  28,C  29,H  77)          111.0377         0.322200   
    250. A(H  81,C  30,H  82)          107.4496         0.287118   
    251. A(H  80,C  30,H  82)          108.7164         0.286559   
    252. A(C  28,C  30,H  82)          111.0259         0.321204   
    253. A(H  80,C  30,H  81)          106.2224         0.287175   
    254. A(C  28,C  30,H  81)          110.9798         0.321927   
    255. A(C  28,C  30,H  80)          112.2146         0.321270   
    256. A(C  33,C  32,O  42)          121.1345         0.436658   
    257. A(C  18,C  32,O  42)          119.8428         0.429848   
    258. A(C  18,C  32,C  33)          118.9361         0.363499   
    259. A(C  32,C  33,C  34)          109.3297         0.363071   
    260. A(C  34,C  33,H  84)          110.4396         0.319991   
    261. A(H  83,C  33,H  84)          107.1256         0.287519   
    262. A(C  32,C  33,H  84)          107.9914         0.324974   
    263. A(C  34,C  33,H  83)          110.3268         0.319570   
    264. A(C  32,C  33,H  83)          111.5839         0.324543   
    265. A(C  33,C  34,C  35)          113.3774         0.360747   
    266. A(H  85,C  34,H  86)          105.8852         0.287214   
    267. A(C  35,C  34,H  86)          108.2620         0.322452   
    268. A(C  33,C  34,H  86)          109.1789         0.319477   
    269. A(C  35,C  34,H  85)          111.1194         0.322706   
    270. A(C  33,C  34,H  85)          108.7332         0.319728   
    271. A(C  34,C  35,C  36)          111.9041         0.363597   
    272. A(H  87,C  35,H  88)          106.6104         0.286457   
    273. A(C  36,C  35,H  88)          110.1952         0.321439   
    274. A(C  34,C  35,H  88)          110.0564         0.321995   
    275. A(C  36,C  35,H  87)          109.4030         0.321713   
    276. A(C  34,C  35,H  87)          108.5128         0.322269   
    277. A(C  35,C  36,C  37)          115.4006         0.362138   
    278. A(H  89,C  36,H  90)          105.9000         0.286238   
    279. A(C  37,C  36,H  90)          108.5354         0.320647   
    280. A(C  35,C  36,H  90)          108.1395         0.321328   
    281. A(C  37,C  36,H  89)          109.1527         0.320885   
    282. A(C  35,C  36,H  89)          109.2872         0.321567   
    283. A(C  36,C  37,C  38)          114.3290         0.359644   
    284. A(H  91,C  37,H  92)          105.8242         0.286642   
    285. A(C  38,C  37,H  92)          109.7383         0.319805   
    286. A(C  36,C  37,H  92)          107.9274         0.321250   
    287. A(C  38,C  37,H  91)          109.1086         0.319314   
    288. A(C  36,C  37,H  91)          109.5670         0.320756   
    289. A(C  37,C  38,C  39)          113.9417         0.360153   
    290. A(H  93,C  38,H  94)          106.0531         0.286395   
    291. A(C  39,C  38,H  94)          109.1387         0.321201   
    292. A(C  37,C  38,H  94)          109.4627         0.319324   
    293. A(C  39,C  38,H  93)          108.1476         0.321386   
    294. A(C  37,C  38,H  93)          109.7915         0.319507   
    295. A(C  38,C  39,C  40)          113.2642         0.363099   
    296. A(H  95,C  39,H  96)          105.9954         0.286483   
    297. A(C  40,C  39,H  96)          109.5497         0.321698   
    298. A(C  38,C  39,H  96)          108.8261         0.321074   
    299. A(C  40,C  39,H  95)          108.9433         0.322245   
    300. A(C  38,C  39,H  95)          110.0059         0.321618   
    301. A(C  39,C  40,C  41)          113.2178         0.363859   
    302. A(H  97,C  40,H  98)          106.9067         0.286091   
    303. A(C  41,C  40,H  98)          110.0002         0.321982   
    304. A(C  39,C  40,H  98)          108.1963         0.321964   
    305. A(C  41,C  40,H  97)          109.5349         0.321535   
    306. A(C  39,C  40,H  97)          108.7786         0.321517   
    307. A(H 100,C  41,H 101)          107.6145         0.287501   
    308. A(H  99,C  41,H 101)          107.3580         0.287557   
    309. A(C  40,C  41,H 101)          110.8953         0.322674   
    310. A(H  99,C  41,H 100)          107.6068         0.287413   
    311. A(C  40,C  41,H 100)          111.1266         0.322505   
    312. A(C  40,C  41,H  99)          112.0331         0.322571   
    313. A(C  17,O  43,H 102)          107.0702         0.350698   
    314. A(C  13,C  45,C  46)          113.0227         0.364604   
    315. A(C  46,C  45,H 104)          111.3089         0.322237   
    316. A(C  13,C  45,H 104)          108.8037         0.322952   
    317. A(C  46,C  45,H 103)          110.4565         0.322688   
    318. A(C  13,C  45,H 103)          107.6245         0.323403   
    319. A(H 103,C  45,H 104)          105.2675         0.287370   
    320. A(H 106,C  46,H 107)          107.3869         0.287591   
    321. A(H 105,C  46,H 107)          107.6497         0.287879   
    322. A(C  45,C  46,H 107)          111.9271         0.322648   
    323. A(H 105,C  46,H 106)          107.8049         0.287783   
    324. A(C  45,C  46,H 106)          111.1398         0.322536   
    325. A(C  45,C  46,H 105)          110.7441         0.322875   
    326. A(C  50,C  48,H 108)          107.4993         0.321401   
    327. A(C  49,C  48,H 108)          108.6259         0.321503   
    328. A(C  10,C  48,H 108)          106.4523         0.315623   
    329. A(C  49,C  48,C  50)          111.3986         0.363698   
    330. A(C  10,C  48,C  50)          110.8388         0.356750   
    331. A(C  10,C  48,C  49)          111.7823         0.356869   
    332. A(H 110,C  49,H 111)          107.7449         0.287906   
    333. A(H 109,C  49,H 111)          108.1494         0.287824   
    334. A(C  48,C  49,H 111)          111.2066         0.322828   
    335. A(H 109,C  49,H 110)          107.4921         0.287779   
    336. A(C  48,C  49,H 110)          110.5522         0.322775   
    337. A(C  48,C  49,H 109)          111.5328         0.322679   
    338. A(H 113,C  50,H 114)          107.5979         0.287871   
    339. A(H 112,C  50,H 114)          108.9139         0.288096   
    340. A(C  48,C  50,H 114)          110.0721         0.322670   
    341. A(H 112,C  50,H 113)          107.8520         0.288110   
    342. A(C  48,C  50,H 113)          110.2956         0.322686   
    343. A(C  48,C  50,H 112)          111.9806         0.322951   
    344. D(H  51,C   2,C   1,N   9)    -67.9053         0.009044   
    345. D(C   3,C   2,C   1,N   9)    166.4287         0.009044   
    346. D(N   6,C   2,C   1,N   9)     51.6278         0.009044   
    347. D(N   6,C   2,C   1,O   0)   -128.2717         0.009044   
    348. D(C   3,C   2,C   1,O   0)    -13.4708         0.009044   
    349. D(H  51,C   2,C   1,O   0)    112.1952         0.009044   
    350. D(C   4,C   3,C   2,N   6)     35.6906         0.011310   
    351. D(H  53,C   3,C   2,H  51)    -86.5160         0.011310   
    352. D(H  53,C   3,C   2,C   1)     35.6105         0.011310   
    353. D(C   4,C   3,C   2,H  51)    152.7319         0.011310   
    354. D(H  53,C   3,C   2,N   6)    156.4427         0.011310   
    355. D(H  52,C   3,C   2,H  51)     34.7085         0.011310   
    356. D(C   4,C   3,C   2,C   1)    -85.1416         0.011310   
    357. D(H  52,C   3,C   2,C   1)    156.8349         0.011310   
    358. D(H  52,C   3,C   2,N   6)    -82.3329         0.011310   
    359. D(H  55,C   4,C   3,H  53)     79.1992         0.010754   
    360. D(H  55,C   4,C   3,H  52)    -44.1542         0.010754   
    361. D(H  54,C   4,C   3,H  52)   -164.9706         0.010754   
    362. D(H  55,C   4,C   3,C   2)   -161.3200         0.010754   
    363. D(H  54,C   4,C   3,H  53)    -41.6172         0.010754   
    364. D(C   5,C   4,C   3,C   2)    -39.6974         0.010754   
    365. D(H  54,C   4,C   3,C   2)     77.8637         0.010754   
    366. D(C   5,C   4,C   3,H  53)   -159.1783         0.010754   
    367. D(C   5,C   4,C   3,H  52)     77.4684         0.010754   
    368. D(N   6,C   5,C   4,C   3)     27.9133         0.010835   
    369. D(H  57,C   5,C   4,C   3)    -90.5141         0.010835   
    370. D(H  56,C   5,C   4,H  55)    -89.3283         0.010835   
    371. D(H  56,C   5,C   4,C   3)    147.9353         0.010835   
    372. D(H  57,C   5,C   4,H  54)    152.6424         0.010835   
    373. D(H  56,C   5,C   4,H  54)     31.0918         0.010835   
    374. D(H  57,C   5,C   4,H  55)     32.2223         0.010835   
    375. D(N   6,C   5,C   4,H  54)    -88.9302         0.010835   
    376. D(N   6,C   5,C   4,H  55)    150.6497         0.010835   
    377. D(C   5,N   6,C   2,C   3)    -19.1276         0.013890   
    378. D(C   7,N   6,C   5,H  57)    -59.4275         0.014104   
    379. D(C   7,N   6,C   5,H  56)     60.5491         0.014104   
    380. D(C   7,N   6,C   5,C   4)   -178.0573         0.014104   
    381. D(C   2,N   6,C   5,H  57)    113.1004         0.014104   
    382. D(C   2,N   6,C   5,H  56)   -126.9230         0.014104   
    383. D(C   7,N   6,C   2,H  51)     32.8474         0.013890   
    384. D(C   2,N   6,C   5,C   4)     -5.5294         0.014104   
    385. D(C   7,N   6,C   2,C   3)    153.9091         0.013890   
    386. D(C   5,N   6,C   2,C   1)    100.5347         0.013890   
    387. D(C   7,N   6,C   2,C   1)    -86.4287         0.013890   
    388. D(C   5,N   6,C   2,H  51)   -140.1892         0.013890   
    389. D(C  24,C   7,N   6,C   5)      2.7399         0.032967   
    390. D(C  24,C   7,N   6,C   2)   -169.1444         0.032967   
    391. D(O   8,C   7,N   6,C   5)   -179.5943         0.032967   
    392. D(O   8,C   7,N   6,C   2)      8.5214         0.032967   
    393. D(H  58,N   9,C   1,O   0)   -167.3250         0.032577   
    394. D(C  10,N   9,C   1,C   2)    177.7046         0.032577   
    395. D(H  58,N   9,C   1,C   2)     12.7783         0.032577   
    396. D(C  10,N   9,C   1,O   0)     -2.3987         0.032577   
    397. D(H  59,C  10,N   9,C   1)    -20.2051         0.017490   
    398. D(C  48,C  10,N   9,H  58)    -96.9859         0.017490   
    399. D(C  48,C  10,N   9,C   1)     98.1392         0.017490   
    400. D(C  11,C  10,N   9,C   1)   -137.8688         0.017490   
    401. D(H  59,C  10,N   9,H  58)    144.6698         0.017490   
    402. D(C  11,C  10,N   9,H  58)     27.0061         0.017490   
    403. D(O  47,C  11,C  10,N   9)     -4.9627         0.010333   
    404. D(N  12,C  11,C  10,H  59)     60.0834         0.010333   
    405. D(N  12,C  11,C  10,C  48)    -59.0201         0.010333   
    406. D(N  12,C  11,C  10,N   9)    176.0919         0.010333   
    407. D(O  47,C  11,C  10,H  59)   -120.9713         0.010333   
    408. D(O  47,C  11,C  10,C  48)    119.9253         0.010333   
    409. D(H  60,N  12,C  11,O  47)   -172.3495         0.032120   
    410. D(H  60,N  12,C  11,C  10)      6.5945         0.032120   
    411. D(C  13,N  12,C  11,O  47)     -2.6987         0.032120   
    412. D(C  13,N  12,C  11,C  10)    176.2452         0.032120   
    413. D(H  61,C  13,N  12,C  11)     38.7774         0.015335   
    414. D(H  61,C  13,N  12,H  60)   -151.4449         0.015335   
    415. D(C  45,C  13,N  12,H  60)    -31.7668         0.015335   
    416. D(C  45,C  13,N  12,C  11)    158.4555         0.015335   
    417. D(C  14,C  13,N  12,C  11)    -77.9381         0.015335   
    418. D(C  14,C  13,N  12,H  60)     91.8397         0.015335   
    419. D(O  44,C  14,C  13,C  45)     19.8963         0.009318   
    420. D(O  44,C  14,C  13,N  12)   -102.9643         0.009318   
    421. D(N  15,C  14,C  13,H  61)    -39.4022         0.009318   
    422. D(N  15,C  14,C  13,C  45)   -161.1870         0.009318   
    423. D(O  44,C  14,C  13,H  61)    141.6811         0.009318   
    424. D(N  15,C  14,C  13,N  12)     75.9524         0.009318   
    425. D(H  62,N  15,C  14,O  44)    169.4949         0.034059   
    426. D(H  62,N  15,C  14,C  13)     -9.3919         0.034059   
    427. D(C  16,N  15,C  14,O  44)     -1.5907         0.034059   
    428. D(C  16,N  15,C  14,C  13)    179.5225         0.034059   
    429. D(H  64,C  16,N  15,H  62)     18.5481         0.015955   
    430. D(H  64,C  16,N  15,C  14)   -170.6553         0.015955   
    431. D(H  63,C  16,N  15,H  62)    134.9406         0.015955   
    432. D(H  63,C  16,N  15,C  14)    -54.2628         0.015955   
    433. D(C  17,C  16,N  15,C  14)     67.1391         0.015955   
    434. D(C  17,C  16,N  15,H  62)   -103.6575         0.015955   
    435. D(H  65,C  17,C  16,H  64)    -78.1231         0.010457   
    436. D(H  65,C  17,C  16,H  63)    164.3336         0.010457   
    437. D(H  65,C  17,C  16,N  15)     42.1350         0.010457   
    438. D(O  43,C  17,C  16,H  64)    160.3592         0.010457   
    439. D(O  43,C  17,C  16,H  63)     42.8159         0.010457   
    440. D(O  43,C  17,C  16,N  15)    -79.3827         0.010457   
    441. D(C  18,C  17,C  16,H  64)     40.4606         0.010457   
    442. D(C  18,C  17,C  16,H  63)    -77.0827         0.010457   
    443. D(C  18,C  17,C  16,N  15)    160.7187         0.010457   
    444. D(H  66,C  18,C  17,H  65)    170.4168         0.010262   
    445. D(H  66,C  18,C  17,O  43)    -69.9693         0.010262   
    446. D(H  66,C  18,C  17,C  16)     52.8357         0.010262   
    447. D(C  32,C  18,C  17,O  43)     45.9280         0.010262   
    448. D(C  32,C  18,C  17,C  16)    168.7330         0.010262   
    449. D(C  32,C  18,C  17,H  65)    -73.6858         0.010262   
    450. D(C  19,C  18,C  17,H  65)     54.0415         0.010262   
    451. D(C  19,C  18,C  17,O  43)    173.6554         0.010262   
    452. D(C  19,C  18,C  17,C  16)    -63.5396         0.010262   
    453. D(O  31,C  19,C  18,H  66)      4.6720         0.010081   
    454. D(O  31,C  19,C  18,C  32)   -110.4987         0.010081   
    455. D(O  31,C  19,C  18,C  17)    123.0975         0.010081   
    456. D(N  20,C  19,C  18,H  66)   -173.9595         0.010081   
    457. D(N  20,C  19,C  18,C  17)    -55.5339         0.010081   
    458. D(N  20,C  19,C  18,C  32)     70.8698         0.010081   
    459. D(H  67,N  20,C  19,O  31)   -178.3386         0.031621   
    460. D(H  67,N  20,C  19,C  18)      0.2841         0.031621   
    461. D(C  21,N  20,C  19,O  31)      0.3806         0.031621   
    462. D(C  21,N  20,C  19,C  18)    179.0033         0.031621   
    463. D(H  68,C  21,N  20,H  67)    123.3670         0.017522   
    464. D(H  68,C  21,N  20,C  19)    -55.4476         0.017522   
    465. D(C  27,C  21,N  20,H  67)   -116.0755         0.017522   
    466. D(C  27,C  21,N  20,C  19)     65.1100         0.017522   
    467. D(C  22,C  21,N  20,H  67)      7.4418         0.017522   
    468. D(C  22,C  21,N  20,C  19)   -171.3728         0.017522   
    469. D(N  23,C  22,C  21,C  27)    -64.4967         0.010183   
    470. D(N  23,C  22,C  21,N  20)    170.8882         0.010183   
    471. D(O  26,C  22,C  21,H  68)   -127.8103         0.010183   
    472. D(O  26,C  22,C  21,C  27)    113.0333         0.010183   
    473. D(O  26,C  22,C  21,N  20)    -11.5818         0.010183   
    474. D(N  23,C  22,C  21,H  68)     54.6596         0.010183   
    475. D(H  69,N  23,C  22,O  26)    168.5528         0.032639   
    476. D(H  69,N  23,C  22,C  21)    -13.9281         0.032639   
    477. D(C  24,N  23,C  22,O  26)     12.2310         0.032639   
    478. D(C  24,N  23,C  22,C  21)   -170.2499         0.032639   
    479. D(H  70,C  24,N  23,H  69)    149.0070         0.017064   
    480. D(H  70,C  24,N  23,C  22)    -54.6263         0.017064   
    481. D(C  25,C  24,N  23,H  69)     29.0883         0.017064   
    482. D(C  25,C  24,N  23,C  22)   -174.5450         0.017064   
    483. D(C   7,C  24,N  23,H  69)    -91.7923         0.017064   
    484. D(C   7,C  24,N  23,C  22)     64.5745         0.017064   
    485. D(H  70,C  24,C   7,O   8)    141.0170         0.009309   
    486. D(H  70,C  24,C   7,N   6)    -41.2735         0.009309   
    487. D(C  25,C  24,C   7,O   8)    -97.1304         0.009309   
    488. D(C  25,C  24,C   7,N   6)     80.5791         0.009309   
    489. D(N  23,C  24,C   7,O   8)     22.5439         0.009309   
    490. D(N  23,C  24,C   7,N   6)   -159.7466         0.009309   
    491. D(H  73,C  25,C  24,H  70)   -179.2426         0.010991   
    492. D(H  73,C  25,C  24,N  23)    -60.8306         0.010991   
    493. D(H  73,C  25,C  24,C   7)     59.6234         0.010991   
    494. D(H  72,C  25,C  24,H  70)     61.2478         0.010991   
    495. D(H  72,C  25,C  24,N  23)    179.6598         0.010991   
    496. D(H  72,C  25,C  24,C   7)    -59.8863         0.010991   
    497. D(H  71,C  25,C  24,H  70)    -59.0713         0.010991   
    498. D(H  71,C  25,C  24,N  23)     59.3408         0.010991   
    499. D(H  71,C  25,C  24,C   7)    179.7947         0.010991   
    500. D(H  75,C  27,C  21,H  68)    124.9336         0.009174   
    501. D(H  75,C  27,C  21,C  22)   -116.1463         0.009174   
    502. D(H  75,C  27,C  21,N  20)      4.3468         0.009174   
    503. D(H  74,C  27,C  21,H  68)   -119.5887         0.009174   
    504. D(H  74,C  27,C  21,C  22)     -0.6686         0.009174   
    505. D(H  74,C  27,C  21,N  20)    119.8244         0.009174   
    506. D(C  28,C  27,C  21,H  68)      3.9628         0.009174   
    507. D(C  28,C  27,C  21,C  22)    122.8829         0.009174   
    508. D(C  28,C  27,C  21,N  20)   -116.6240         0.009174   
    509. D(H  76,C  28,C  27,H  75)    -65.9647         0.010718   
    510. D(H  76,C  28,C  27,H  74)    177.9185         0.010718   
    511. D(H  76,C  28,C  27,C  21)     54.1067         0.010718   
    512. D(C  30,C  28,C  27,H  75)    175.0645         0.010718   
    513. D(C  30,C  28,C  27,H  74)     58.9477         0.010718   
    514. D(C  30,C  28,C  27,C  21)    -64.8642         0.010718   
    515. D(C  29,C  28,C  27,H  75)     51.5164         0.010718   
    516. D(C  29,C  28,C  27,H  74)    -64.6004         0.010718   
    517. D(C  29,C  28,C  27,C  21)    171.5877         0.010718   
    518. D(H  79,C  29,C  28,C  30)     57.2115         0.011017   
    519. D(H  79,C  29,C  28,C  27)   -178.1935         0.011017   
    520. D(H  78,C  29,C  28,H  76)    178.1445         0.011017   
    521. D(H  78,C  29,C  28,C  30)    -62.6457         0.011017   
    522. D(H  78,C  29,C  28,C  27)     61.9493         0.011017   
    523. D(H  77,C  29,C  28,H  76)     58.1119         0.011017   
    524. D(H  77,C  29,C  28,C  30)    177.3216         0.011017   
    525. D(H  79,C  29,C  28,H  76)    -61.9983         0.011017   
    526. D(H  77,C  29,C  28,C  27)    -58.0834         0.011017   
    527. D(H  82,C  30,C  28,H  76)   -177.3021         0.010917   
    528. D(H  82,C  30,C  28,C  29)     63.5020         0.010917   
    529. D(H  82,C  30,C  28,C  27)    -59.5509         0.010917   
    530. D(H  81,C  30,C  28,H  76)     63.2612         0.010917   
    531. D(H  81,C  30,C  28,C  29)    -55.9347         0.010917   
    532. D(H  81,C  30,C  28,C  27)   -178.9876         0.010917   
    533. D(H  80,C  30,C  28,H  76)    -55.4106         0.010917   
    534. D(H  80,C  30,C  28,C  29)   -174.6065         0.010917   
    535. D(H  80,C  30,C  28,C  27)     62.3406         0.010917   
    536. D(O  42,C  32,C  18,H  66)     -3.7001         0.009647   
    537. D(O  42,C  32,C  18,C  19)    111.6116         0.009647   
    538. D(O  42,C  32,C  18,C  17)   -121.8131         0.009647   
    539. D(C  33,C  32,C  18,H  66)    179.6451         0.009647   
    540. D(C  33,C  32,C  18,C  19)    -65.0432         0.009647   
    541. D(C  33,C  32,C  18,C  17)     61.5321         0.009647   
    542. D(H  84,C  33,C  32,O  42)     45.7354         0.011356   
    543. D(H  84,C  33,C  32,C  18)   -137.6546         0.011356   
    544. D(H  83,C  33,C  32,O  42)    163.2146         0.011356   
    545. D(H  83,C  33,C  32,C  18)    -20.1754         0.011356   
    546. D(C  34,C  33,C  32,O  42)    -74.4649         0.011356   
    547. D(C  34,C  33,C  32,C  18)    102.1451         0.011356   
    548. D(H  86,C  34,C  33,H  84)   -160.4802         0.010161   
    549. D(H  86,C  34,C  33,H  83)     81.2789         0.010161   
    550. D(H  86,C  34,C  33,C  32)    -41.7916         0.010161   
    551. D(H  85,C  34,C  33,H  84)    -45.3952         0.010161   
    552. D(H  85,C  34,C  33,H  83)   -163.6361         0.010161   
    553. D(H  85,C  34,C  33,C  32)     73.2934         0.010161   
    554. D(C  35,C  34,C  33,H  84)     78.7359         0.010161   
    555. D(C  35,C  34,C  33,H  83)    -39.5051         0.010161   
    556. D(C  35,C  34,C  33,C  32)   -162.5756         0.010161   
    557. D(H  88,C  35,C  34,H  86)    174.3270         0.011297   
    558. D(H  88,C  35,C  34,H  85)     58.4500         0.011297   
    559. D(H  88,C  35,C  34,C  33)    -64.3728         0.011297   
    560. D(H  87,C  35,C  34,H  86)    -69.3667         0.011297   
    561. D(H  87,C  35,C  34,H  85)    174.7564         0.011297   
    562. D(H  87,C  35,C  34,C  33)     51.9336         0.011297   
    563. D(C  36,C  35,C  34,H  86)     51.4460         0.011297   
    564. D(C  36,C  35,C  34,H  85)    -64.4310         0.011297   
    565. D(C  36,C  35,C  34,C  33)    172.7462         0.011297   
    566. D(H  90,C  36,C  35,H  87)     62.6042         0.011075   
    567. D(H  90,C  36,C  35,C  34)    -57.6904         0.011075   
    568. D(H  89,C  36,C  35,H  88)    -65.6533         0.011075   
    569. D(H  89,C  36,C  35,H  87)    177.4436         0.011075   
    570. D(H  89,C  36,C  35,C  34)     57.1490         0.011075   
    571. D(C  37,C  36,C  35,H  88)     57.7798         0.011075   
    572. D(C  37,C  36,C  35,H  87)    -59.1233         0.011075   
    573. D(H  90,C  36,C  35,H  88)    179.5074         0.011075   
    574. D(C  37,C  36,C  35,C  34)   -179.4180         0.011075   
    575. D(H  92,C  37,C  36,H  90)     57.7190         0.010808   
    576. D(H  92,C  37,C  36,H  89)    -57.2626         0.010808   
    577. D(H  92,C  37,C  36,C  35)    179.2334         0.010808   
    578. D(H  91,C  37,C  36,H  90)    172.5004         0.010808   
    579. D(H  91,C  37,C  36,H  89)     57.5188         0.010808   
    580. D(H  91,C  37,C  36,C  35)    -65.9852         0.010808   
    581. D(C  38,C  37,C  36,H  90)    -64.6808         0.010808   
    582. D(C  38,C  37,C  36,H  89)   -179.6624         0.010808   
    583. D(C  38,C  37,C  36,C  35)     56.8335         0.010808   
    584. D(H  94,C  38,C  37,H  92)    -95.3850         0.010267   
    585. D(H  94,C  38,C  37,H  91)    149.0897         0.010267   
    586. D(H  94,C  38,C  37,C  36)     26.0226         0.010267   
    587. D(H  93,C  38,C  37,H  92)     20.6465         0.010267   
    588. D(H  93,C  38,C  37,H  91)    -94.8788         0.010267   
    589. D(H  93,C  38,C  37,C  36)    142.0541         0.010267   
    590. D(C  39,C  38,C  37,H  92)    142.1103         0.010267   
    591. D(C  39,C  38,C  37,H  91)     26.5850         0.010267   
    592. D(C  39,C  38,C  37,C  36)    -96.4821         0.010267   
    593. D(H  95,C  39,C  38,H  94)    -69.7001         0.010978   
    594. D(H  95,C  39,C  38,H  93)    175.3531         0.010978   
    595. D(H  95,C  39,C  38,C  37)     52.9820         0.010978   
    596. D(C  40,C  39,C  38,H  94)     52.4802         0.010978   
    597. D(C  40,C  39,C  38,H  93)    -62.4666         0.010978   
    598. D(C  40,C  39,C  38,C  37)    175.1624         0.010978   
    599. D(H  96,C  39,C  38,H  94)    174.5806         0.010978   
    600. D(H  96,C  39,C  38,H  93)     59.6338         0.010978   
    601. D(H  96,C  39,C  38,C  37)    -62.7372         0.010978   
    602. D(H  98,C  40,C  39,H  95)     58.1529         0.011226   
    603. D(H  98,C  40,C  39,C  38)    -64.6178         0.011226   
    604. D(H  97,C  40,C  39,H  96)    -70.5220         0.011226   
    605. D(H  97,C  40,C  39,H  95)    173.9446         0.011226   
    606. D(H  97,C  40,C  39,C  38)     51.1738         0.011226   
    607. D(C  41,C  40,C  39,H  96)     51.4941         0.011226   
    608. D(C  41,C  40,C  39,H  95)    -64.0393         0.011226   
    609. D(H  98,C  40,C  39,H  96)    173.6863         0.011226   
    610. D(C  41,C  40,C  39,C  38)    173.1900         0.011226   
    611. D(H 101,C  41,C  40,H  98)    -62.3564         0.011233   
    612. D(H 101,C  41,C  40,H  97)   -179.5836         0.011233   
    613. D(H 101,C  41,C  40,C  39)     58.8239         0.011233   
    614. D(H 100,C  41,C  40,H  98)    177.9891         0.011233   
    615. D(H 100,C  41,C  40,H  97)     60.7619         0.011233   
    616. D(H 100,C  41,C  40,C  39)    -60.8306         0.011233   
    617. D(H  99,C  41,C  40,H  98)     57.5778         0.011233   
    618. D(H  99,C  41,C  40,H  97)    -59.6494         0.011233   
    619. D(H  99,C  41,C  40,C  39)    178.7581         0.011233   
    620. D(H 102,O  43,C  17,H  65)    -86.2920         0.020402   
    621. D(H 102,O  43,C  17,C  18)    154.8360         0.020402   
    622. D(H 102,O  43,C  17,C  16)     33.6264         0.020402   
    623. D(H 104,C  45,C  13,H  61)    177.6370         0.011504   
    624. D(H 104,C  45,C  13,C  14)    -61.6402         0.011504   
    625. D(H 104,C  45,C  13,N  12)     60.3730         0.011504   
    626. D(H 103,C  45,C  13,H  61)    -68.7819         0.011504   
    627. D(H 103,C  45,C  13,C  14)     51.9409         0.011504   
    628. D(H 103,C  45,C  13,N  12)    173.9541         0.011504   
    629. D(C  46,C  45,C  13,H  61)     53.4566         0.011504   
    630. D(C  46,C  45,C  13,C  14)    174.1794         0.011504   
    631. D(C  46,C  45,C  13,N  12)    -63.8074         0.011504   
    632. D(H 107,C  46,C  45,H 104)    -63.0304         0.011213   
    633. D(H 107,C  46,C  45,H 103)   -179.5929         0.011213   
    634. D(H 107,C  46,C  45,C  13)     59.7675         0.011213   
    635. D(H 106,C  46,C  45,H 104)    176.9023         0.011213   
    636. D(H 106,C  46,C  45,H 103)     60.3397         0.011213   
    637. D(H 106,C  46,C  45,C  13)    -60.2999         0.011213   
    638. D(H 105,C  46,C  45,H 104)     57.0996         0.011213   
    639. D(H 105,C  46,C  45,H 103)    -59.4630         0.011213   
    640. D(H 105,C  46,C  45,C  13)    179.8974         0.011213   
    641. D(H 108,C  48,C  10,H  59)    -55.0477         0.009105   
    642. D(H 108,C  48,C  10,C  11)     64.9383         0.009105   
    643. D(H 108,C  48,C  10,N   9)   -172.7586         0.009105   
    644. D(C  50,C  48,C  10,H  59)     61.5603         0.009105   
    645. D(C  50,C  48,C  10,C  11)   -178.4537         0.009105   
    646. D(C  50,C  48,C  10,N   9)    -56.1506         0.009105   
    647. D(C  49,C  48,C  10,H  59)   -173.5138         0.009105   
    648. D(C  49,C  48,C  10,C  11)    -53.5278         0.009105   
    649. D(C  49,C  48,C  10,N   9)     68.7753         0.009105   
    650. D(H 111,C  49,C  48,C  50)     64.0360         0.011223   
    651. D(H 111,C  49,C  48,C  10)    -60.5785         0.011223   
    652. D(H 110,C  49,C  48,H 108)     62.6134         0.011223   
    653. D(H 110,C  49,C  48,C  50)    -55.6081         0.011223   
    654. D(H 110,C  49,C  48,C  10)    179.7774         0.011223   
    655. D(H 109,C  49,C  48,H 108)    -56.9262         0.011223   
    656. D(H 109,C  49,C  48,C  50)   -175.1478         0.011223   
    657. D(H 111,C  49,C  48,H 108)   -177.7424         0.011223   
    658. D(H 109,C  49,C  48,C  10)     60.2378         0.011223   
    659. D(H 114,C  50,C  48,H 108)    -59.1097         0.011182   
    660. D(H 114,C  50,C  48,C  49)     59.7870         0.011182   
    661. D(H 114,C  50,C  48,C  10)   -175.0705         0.011182   
    662. D(H 113,C  50,C  48,H 108)   -177.6857         0.011182   
    663. D(H 113,C  50,C  48,C  49)    -58.7891         0.011182   
    664. D(H 113,C  50,C  48,C  10)     66.3535         0.011182   
    665. D(H 112,C  50,C  48,H 108)     62.1988         0.011182   
    666. D(H 112,C  50,C  48,C  49)   -178.9046         0.011182   
    667. D(H 112,C  50,C  48,C  10)    -53.7620         0.011182   
    -----------------------------------------------------------------

Number of atoms                         .... 115
Number of degrees of freedom            .... 667

         *************************************************************
         *                GEOMETRY OPTIMIZATION CYCLE   1            *
         *************************************************************
---------------------------------
CARTESIAN COORDINATES (ANGSTROEM)
---------------------------------
  O      0.345434    4.751018   -2.576334
  C     -0.219536    3.662442   -2.447955
  C     -1.759251    3.527760   -2.580093
  C     -2.435016    4.897540   -2.542675
  C     -2.586909    5.150881   -1.036198
  C     -2.982123    3.777450   -0.478673
  N     -2.372640    2.827112   -1.430947
  C     -2.461693    1.475461   -1.403353
  O     -1.906804    0.757076   -2.246304
  N      0.426441    2.499638   -2.182784
  C      1.869951    2.458959   -2.080946
  C      2.370151    1.204017   -2.802259
  N      3.720295    1.070304   -2.863665
  C      4.378163   -0.103979   -3.443212
  C      4.328838   -1.267848   -2.425663
  N      3.117877   -1.859493   -2.335561
  C      2.825615   -2.985488   -1.453213
  C      2.880554   -2.651874    0.048435
  C      2.110991   -3.719511    0.851984
  C      0.619108   -3.726802    0.490475
  N     -0.040964   -2.544869    0.621787
  C     -1.443661   -2.393821    0.298272
  C     -1.745126   -0.891810    0.369073
  N     -2.969313   -0.536014   -0.093356
  C     -3.341371    0.852012   -0.294141
  C     -4.820797    0.906994   -0.688223
  O     -0.950797   -0.079166    0.854422
  C     -2.389929   -3.219552    1.221363
  C     -3.195791   -4.308266    0.497833
  C     -3.922185   -5.182382    1.524584
  C     -4.189094   -3.725206   -0.513789
  O      0.060748   -4.746993    0.078554
  C      2.377824   -3.576393    2.363528
  C      1.975643   -2.290122    3.061680
  C      0.663306   -2.520469    3.840745
  C     -0.049813   -1.224491    4.223847
  C     -1.428222   -1.490157    4.834633
  C     -2.222039   -0.240056    5.236606
  C     -2.455736    0.760858    4.087208
  C     -1.441886    1.908906    4.046701
  C     -1.615436    2.825366    2.835243
  C     -0.715702    4.060606    2.880140
  O      2.847271   -4.510813    2.987009
  O      4.206027   -2.612852    0.546415
  O      5.318689   -1.593408   -1.751924
  C      5.807766    0.229750   -3.857662
  C      5.879152    1.279388   -4.967306
  O      1.597191    0.361483   -3.277474
  C      2.377209    2.509588   -0.606818
  C      2.034475    1.229249    0.155436
  C      1.838811    3.747867    0.111641
  H     -1.970387    2.948031   -3.491087
  H     -3.417414    4.842005   -3.034255
  H     -1.819301    5.653288   -3.041232
  H     -1.619133    5.466814   -0.621766
  H     -3.329627    5.920638   -0.793184
  H     -2.608170    3.605813    0.538183
  H     -4.077470    3.661587   -0.467310
  H     -0.089258    1.616489   -2.286541
  H      2.250609    3.354423   -2.600098
  H      4.301661    1.731137   -2.355576
  H      3.782322   -0.387644   -4.324888
  H      2.348251   -1.387448   -2.824073
  H      3.542375   -3.798996   -1.647280
  H      1.825366   -3.346973   -1.724948
  H      2.388697   -1.667919    0.188954
  H      2.487736   -4.714405    0.580708
  H      0.416883   -1.689759    0.937828
  H     -1.598995   -2.723803   -0.743867
  H     -3.479092   -1.230702   -0.633872
  H     -3.173403    1.391098    0.649114
  H     -5.441882    0.460407    0.099605
  H     -5.154920    1.938940   -0.846379
  H     -4.983565    0.354427   -1.625296
  H     -3.081806   -2.542769    1.750388
  H     -1.764365   -3.692092    1.990429
  H     -2.466530   -4.932514   -0.043372
  H     -3.210730   -5.642279    2.225033
  H     -4.640130   -4.587769    2.112731
  H     -4.481924   -5.990812    1.032477
  H     -3.683992   -3.168968   -1.320918
  H     -4.765117   -4.522754   -1.004315
  H     -4.910063   -3.053289   -0.018336
  H      1.855509   -1.461575    2.346530
  H      2.785746   -2.009398    3.749034
  H      0.882640   -3.130072    4.730024
  H     -0.022673   -3.122643    3.224110
  H     -0.163557   -0.606542    3.317925
  H      0.572638   -0.643243    4.926216
  H     -1.316624   -2.146465    5.714386
  H     -2.023875   -2.063990    4.102651
  H     -1.705655    0.275237    6.065133
  H     -3.190158   -0.570040    5.645072
  H     -3.465296    1.196917    4.171219
  H     -2.434110    0.224723    3.122524
  H     -0.416376    1.506292    4.046592
  H     -1.536395    2.500788    4.974457
  H     -2.673360    3.140585    2.776137
  H     -1.404470    2.237771    1.925744
  H     -0.840313    4.694535    1.989699
  H     -0.935726    4.679699    3.762938
  H      0.344127    3.772161    2.931777
  H      4.781623   -2.269445   -0.184513
  H      6.287208   -0.704930   -4.181538
  H      6.370129    0.550541   -2.966407
  H      6.922880    1.492307   -5.234820
  H      5.363246    0.932860   -5.874976
  H      5.412126    2.227980   -4.665827
  H      3.477279    2.606646   -0.657403
  H      2.492848    0.346163   -0.312337
  H      2.404015    1.284880    1.188886
  H      0.948212    1.069804    0.196374
  H      2.062896    4.671313   -0.437496
  H      0.747877    3.679096    0.224081
  H      2.272856    3.818094    1.118798

----------------------------
CARTESIAN COORDINATES (A.U.)
----------------------------
  NO LB      ZA    FRAG     MASS         X           Y           Z
   0 O     8.0000    0    15.999    0.652775    8.978123   -4.868565
   1 C     6.0000    0    12.011   -0.414864    6.921013   -4.625964
   2 C     6.0000    0    12.011   -3.324503    6.666499   -4.875670
   3 C     6.0000    0    12.011   -4.601513    9.255009   -4.804959
   4 C     6.0000    0    12.011   -4.888549    9.733755   -1.958130
   5 C     6.0000    0    12.011   -5.635397    7.138345   -0.904561
   6 N     7.0000    0    14.007   -4.483641    5.342467   -2.704098
   7 C     6.0000    0    12.011   -4.651925    2.788217   -2.651953
   8 O     8.0000    0    15.999   -3.603337    1.430666   -4.244899
   9 N     7.0000    0    14.007    0.805856    4.723632   -4.124865
  10 C     6.0000    0    12.011    3.533695    4.646758   -3.932418
  11 C     6.0000    0    12.011    4.478936    2.275263   -5.295502
  12 N     7.0000    0    14.007    7.030338    2.022582   -5.411542
  13 C     6.0000    0    12.011    8.273529   -0.196492   -6.506727
  14 C     6.0000    0    12.011    8.180318   -2.395885   -4.583839
  15 N     7.0000    0    14.007    5.891933   -3.513933   -4.413571
  16 C     6.0000    0    12.011    5.339638   -5.641755   -2.746174
  17 C     6.0000    0    12.011    5.443458   -5.011315    0.091529
  18 C     6.0000    0    12.011    3.989194   -7.028858    1.610016
  19 C     6.0000    0    12.011    1.169944   -7.042634    0.926863
  20 N     7.0000    0    14.007   -0.077411   -4.809106    1.175007
  21 C     6.0000    0    12.011   -2.728123   -4.523666    0.563652
  22 C     6.0000    0    12.011   -3.297811   -1.685276    0.697448
  23 N     7.0000    0    14.007   -5.611189   -1.012920   -0.176418
  24 C     6.0000    0    12.011   -6.314276    1.610070   -0.555846
  25 C     6.0000    0    12.011   -9.109986    1.713970   -1.300554
  26 O     8.0000    0    15.999   -1.796746   -0.149602    1.614623
  27 C     6.0000    0    12.011   -4.516311   -6.084071    2.308042
  28 C     6.0000    0    12.011   -6.039170   -8.141443    0.940769
  29 C     6.0000    0    12.011   -7.411856   -9.793282    2.881046
  30 C     6.0000    0    12.011   -7.916241   -7.039619   -0.970921
  31 O     8.0000    0    15.999    0.114797   -8.970516    0.148445
  32 C     6.0000    0    12.011    4.493437   -6.758404    4.466421
  33 C     6.0000    0    12.011    3.733425   -4.327704    5.785737
  34 C     6.0000    0    12.011    1.253467   -4.762996    7.257957
  35 C     6.0000    0    12.011   -0.094133   -2.313953    7.981914
  36 C     6.0000    0    12.011   -2.698949   -2.815988    9.136133
  37 C     6.0000    0    12.011   -4.199046   -0.453640    9.895751
  38 C     6.0000    0    12.011   -4.640669    1.437814    7.723703
  39 C     6.0000    0    12.011   -2.724769    3.607310    7.647156
  40 C     6.0000    0    12.011   -3.052731    5.339167    5.357833
  41 C     6.0000    0    12.011   -1.352480    7.673433    5.442675
  42 O     8.0000    0    15.999    5.380562   -8.524201    5.644629
  43 O     8.0000    0    15.999    7.948240   -4.937574    1.032575
  44 O     8.0000    0    15.999   10.050865   -3.011104   -3.310656
  45 C     6.0000    0    12.011   10.975087    0.434165   -7.289925
  46 C     6.0000    0    12.011   11.109987    2.417692   -9.386849
  47 O     8.0000    0    15.999    3.018253    0.683103   -6.193528
  48 C     6.0000    0    12.011    4.492274    4.742435   -1.146720
  49 C     6.0000    0    12.011    3.844601    2.322945    0.293732
  50 C     6.0000    0    12.011    3.474849    7.082442    0.210972
  51 H     1.0000    0     1.008   -3.723493    5.570970   -6.597198
  52 H     1.0000    0     1.008   -6.457976    9.150064   -5.733912
  53 H     1.0000    0     1.008   -3.437981   10.683167   -5.747096
  54 H     1.0000    0     1.008   -3.059717   10.330781   -1.174968
  55 H     1.0000    0     1.008   -6.292084   11.188383   -1.498900
  56 H     1.0000    0     1.008   -4.928727    6.813999    1.017019
  57 H     1.0000    0     1.008   -7.705301    6.919396   -0.883087
  58 H     1.0000    0     1.008   -0.168673    3.054721   -4.320937
  59 H     1.0000    0     1.008    4.253034    6.338940   -4.913474
  60 H     1.0000    0     1.008    8.128962    3.271376   -4.451394
  61 H     1.0000    0     1.008    7.147553   -0.732540   -8.172853
  62 H     1.0000    0     1.008    4.437552   -2.621896   -5.336725
  63 H     1.0000    0     1.008    6.694119   -7.179063   -3.112909
  64 H     1.0000    0     1.008    3.449442   -6.324863   -3.259679
  65 H     1.0000    0     1.008    4.513983   -3.151910    0.357072
  66 H     1.0000    0     1.008    4.701141   -8.908934    1.097380
  67 H     1.0000    0     1.008    0.787794   -3.193182    1.772238
  68 H     1.0000    0     1.008   -3.021662   -5.147242   -1.405706
  69 H     1.0000    0     1.008   -6.574531   -2.325689   -1.197844
  70 H     1.0000    0     1.008   -5.996863    2.628794    1.226648
  71 H     1.0000    0     1.008  -10.283667    0.870043    0.188227
  72 H     1.0000    0     1.008   -9.741388    3.664066   -1.599425
  73 H     1.0000    0     1.008   -9.417573    0.669770   -3.071364
  74 H     1.0000    0     1.008   -5.823768   -4.805136    3.307754
  75 H     1.0000    0     1.008   -3.334166   -6.977042    3.761365
  76 H     1.0000    0     1.008   -4.661066   -9.321100   -0.081961
  77 H     1.0000    0     1.008   -6.067400  -10.662362    4.204703
  78 H     1.0000    0     1.008   -8.768575   -8.669626    3.992482
  79 H     1.0000    0     1.008   -8.469609  -11.320994    1.951098
  80 H     1.0000    0     1.008   -6.961737   -5.988482   -2.496174
  81 H     1.0000    0     1.008   -9.004767   -8.546767   -1.897880
  82 H     1.0000    0     1.008   -9.278674   -5.769881   -0.034651
  83 H     1.0000    0     1.008    3.506405   -2.761976    4.434299
  84 H     1.0000    0     1.008    5.264297   -3.797212    7.084648
  85 H     1.0000    0     1.008    1.667948   -5.914980    8.938451
  86 H     1.0000    0     1.008   -0.042845   -5.900941    6.092684
  87 H     1.0000    0     1.008   -0.309078   -1.146199    6.269970
  88 H     1.0000    0     1.008    1.082129   -1.215553    9.309198
  89 H     1.0000    0     1.008   -2.488058   -4.056231   10.798624
  90 H     1.0000    0     1.008   -3.824569   -3.900375    7.752886
  91 H     1.0000    0     1.008   -3.223220    0.520122   11.461440
  92 H     1.0000    0     1.008   -6.028525   -1.077220   10.667640
  93 H     1.0000    0     1.008   -6.548460    2.261845    7.882462
  94 H     1.0000    0     1.008   -4.599801    0.424664    5.900714
  95 H     1.0000    0     1.008   -0.786837    2.846480    7.646950
  96 H     1.0000    0     1.008   -2.903366    4.725804    9.400361
  97 H     1.0000    0     1.008   -5.051919    5.934846    5.246139
  98 H     1.0000    0     1.008   -2.654063    4.228774    3.639129
  99 H     1.0000    0     1.008   -1.587962    8.871386    3.759986
 100 H     1.0000    0     1.008   -1.768265    8.843350    7.110922
 101 H     1.0000    0     1.008    0.650306    7.128350    5.540255
 102 H     1.0000    0     1.008    9.035959   -4.288629   -0.348679
 103 H     1.0000    0     1.008   11.881101   -1.332124   -7.901961
 104 H     1.0000    0     1.008   12.037800    1.040372   -5.605697
 105 H     1.0000    0     1.008   13.082346    2.820051   -9.892376
 106 H     1.0000    0     1.008   10.135067    1.762849  -11.102096
 107 H     1.0000    0     1.008   10.227435    4.210272   -8.817135
 108 H     1.0000    0     1.008    6.571104    4.925847   -1.242312
 109 H     1.0000    0     1.008    4.710801    0.654153   -0.590231
 110 H     1.0000    0     1.008    4.542930    2.428071    2.246669
 111 H     1.0000    0     1.008    1.791860    2.021636    0.371093
 112 H     1.0000    0     1.008    3.898308    8.827503   -0.826749
 113 H     1.0000    0     1.008    1.413284    6.952483    0.423452
 114 H     1.0000    0     1.008    4.295074    7.215152    2.114222

--------------------------------
INTERNAL COORDINATES (ANGSTROEM)
--------------------------------
 O      0   0   0     0.000000000000     0.00000000     0.00000000
 C      1   0   0     1.233154104222     0.00000000     0.00000000
 C      2   1   0     1.551232278343   121.50173803     0.00000000
 C      3   2   1     1.527860012791   111.04399973   346.52918658
 C      4   3   2     1.535163086125   102.45930327   274.85835520
 C      5   4   3     1.534060892061   103.55531075   320.30262246
 N      6   5   4     1.476969290096   103.61704274    27.91328217
 C      7   6   5     1.354861885936   126.98876900   181.94270329
 O      8   7   6     1.238767307395   122.36045300   180.40568829
 N      2   1   3     1.356361083724   123.98253645   180.11021913
 C     10   2   1     1.447669637529   120.84598290   357.60128809
 C     11  10   2     1.531460083791   108.39531743   222.13124341
 N     12  11  10     1.358137804767   115.25614178   176.09194800
 C     13  12  11     1.465471544219   122.89088164   176.24524220
 C     14  13  12     1.546747906327   109.17587554   282.06189002
 N     15  14  13     1.350773983466   113.70656092    75.95236512
 C     16  15  14     1.460075371763   123.88622129   179.52246072
 C     17  16  15     1.539240996622   114.53608161    67.13905175
 C     18  17  16     1.542001026802   109.90755418   160.71870330
 C     19  18  17     1.535075341233   111.44408880   296.46039090
 N     20  19  18     1.360111046509   116.40985758   304.46606416
 C     21  20  19     1.447423346567   122.64400642   179.00326127
 C     22  21  20     1.533601152782   106.40274767   188.62724350
 N     23  22  21     1.356121621464   114.75033579   170.88817036
 C     24  23  22     1.450985452887   121.98083795   189.75013650
 C     25  24  23     1.532000231837   108.51450846   185.45502243
 O     23  22  21     1.235683072435   122.40305173   348.41819729
 C     22  21  20     1.558637706861   113.62154565    65.10995157
 C     28  22  21     1.535645961462   114.52861815   243.37600035
 C     29  28  22     1.531647238755   109.73312797   171.58774905
 C     29  28  22     1.532967616944   112.41429271   295.13584080
 O     20  19  18     1.233788900245   121.49174485   123.09752816
 C     19  18  17     1.541573755852   111.11821349   168.73300758
 C     33  19  18     1.517781047274   118.93611313    61.53212860
 C     34  33  19     1.543447403193   109.32971456   102.14511176
 C     35  34  33     1.528026214493   113.37736821   197.42443346
 C     36  35  34     1.530898574249   111.90407465   172.74618304
 C     37  36  35     1.534431137269   115.40059641   180.58204963
 C     38  37  36     1.541933783588   114.32897032    56.83354096
 C     39  38  37     1.532170711853   113.94174260   263.51793269
 C     40  39  38     1.528936828596   113.26421026   175.16236706
 C     41  40  39     1.528841449418   113.21782187   173.18998591
 O     33  19  18     1.217476194625   119.84277406   238.18690818
 O     18  17  16     1.416470018370   112.47920679   280.61732402
 O     15  14  13     1.240853751049   121.95001579   257.03566756
 C     14  13  12     1.525421022898   110.66196557   158.45546941
 C     46  14  13     1.529099413188   113.02274995   296.19258974
 O     12  11  10     1.238208918850   122.30715793   355.03731079
 C     11  10   2     1.559784430811   112.94499368    98.13918443
 C     49  11  10     1.528975805755   111.78234281    68.77528868
 C     49  11  10     1.529506831338   110.83877451   303.84935002
 H      3   2   1     1.100260821889   107.86339596   112.19516724
 H      4   3   2     1.099927858925   109.80522297   156.83493979
 H      4   3   2     1.094906406012   111.03577254    35.61046292
 H      5   4   3     1.099162000489   109.28794696    77.86366562
 H      5   4   3     1.096910306227   113.59100613   198.68004722
 H      6   5   4     1.096948714933   112.90182216   147.93533838
 H      6   5   4     1.101515572769   110.73854909   269.48594016
 H     10   2   1     1.027941272274   118.54693374   192.67502095
 H     11  10   2     1.102848627859   106.75238750   339.79487730
 H     13  12  11     1.016287872454   118.82001524     6.59446314
 H     14  13  12     1.101292167975   106.26742123    38.77737451
 H     16  15  14     1.026544702547   116.03810832   350.60806217
 H     17  16  15     1.101455271084   109.44172681   305.73716700
 H     17  16  15     1.097728861202   106.66372570   189.34468078
 H     18  17  16     1.108979985192   107.46300996    42.13497702
 H     19  18  17     1.097879831069   109.11129365    52.83568977
 H     21  20  19     1.020156352063   122.71828609     0.28409654
 H     22  21  20     1.104115616195   108.42814656   304.55239795
 H     24  23  22     1.017163709175   117.02864815   346.07187087
 H     25  24  23     1.099343593929   108.13062989   305.37371860
 H     26  25  24     1.098116805246   110.30619816    59.34075115
 H     26  25  24     1.096159323933   111.42315303   179.65980039
 H     26  25  24     1.099967394182   110.12127872   299.16943700
 H     28  22  21     1.102994042935   109.86559057   119.82444641
 H     28  22  21     1.098219796966   107.26958828     4.34677827
 H     29  28  22     1.102002793308   106.60192929    54.10665424
 H     30  29  28     1.099228293156   111.03769935   301.91663714
 H     30  29  28     1.102236880026   111.02253930    61.94930633
 H     30  29  28     1.099562101104   111.16183488   181.80647113
 H     31  29  28     1.102717252395   112.21455764    62.34062914
 H     31  29  28     1.099318563724   110.97981101   181.01243137
 H     31  29  28     1.103060135845   111.02585834   300.44911818
 H     34  33  19     1.101073690122   111.58387152   339.82464486
 H     34  33  19     1.098875703608   107.99140999   222.34543913
 H     35  34  33     1.100245715379   108.73317243    73.29339288
 H     35  34  33     1.101553928693   109.17890693   318.20839692
 H     36  35  34     1.102493793295   108.51279743    51.93356039
 H     36  35  34     1.103909792505   110.05644614   295.62719193
 H     37  36  35     1.103249428363   109.28720084    57.14896076
 H     37  36  35     1.104483916403   108.13949035   302.30957047
 H     38  37  36     1.103918849876   109.56700364   294.01476213
 H     38  37  36     1.101357206902   107.92737076   179.23335417
 H     39  38  37     1.102912088993   109.79146272   142.05412622
 H     39  38  37     1.103868217818   109.46272851    26.02259708
 H     40  39  38     1.101710969261   110.00593097    52.98203922
 H     40  39  38     1.104530397258   108.82610373   297.26280470
 H     41  40  39     1.105469015717   108.77860414    51.17381621
 H     41  40  39     1.103160356756   108.19627428   295.38217141
 H     42  41  40     1.100127095602   112.03312201   178.75805721
 H     42  41  40     1.100463529744   111.12664112   299.16939475
 H     42  41  40     1.099592837490   110.89525255    58.82391616
 H     44  18  17     0.991713189008   107.07024453    33.62643886
 H     46  14  13     1.099266451678   107.62453882   173.95407087
 H     46  14  13     1.101587344858   108.80369062    60.37298059
 H     47  46  14     1.098301061864   110.74414306   179.89741592
 H     47  46  14     1.100047339345   111.13977336   299.70009395
 H     47  46  14     1.099468531999   111.92710814    59.76747803
 H     49  11  10     1.105500693091   106.45234456   187.24141772
 H     50  49  11     1.099435665415   111.53280005    60.23776763
 H     50  49  11     1.098941939646   110.55220877   179.77737405
 H     50  49  11     1.098666035774   111.20657995   299.42150400
 H     51  49  11     1.097505982537   111.98058813   306.23796612
 H     51  49  11     1.098866554071   110.29561363    66.35346806
 H     51  49  11     1.098950329660   110.07212656   184.92950331

---------------------------
INTERNAL COORDINATES (A.U.)
---------------------------
 O      0   0   0     0.000000000000     0.00000000     0.00000000
 C      1   0   0     2.330323537901     0.00000000     0.00000000
 C      2   1   0     2.931404176168   121.50173803     0.00000000
 C      3   2   1     2.887236995144   111.04399973   346.52918658
 C      4   3   2     2.901037803681   102.45930327   274.85835520
 C      5   4   3     2.898954958754   103.55531075   320.30262246
 N      6   5   4     2.791067466493   103.61704274    27.91328217
 C      7   6   5     2.560317913707   126.98876900   181.94270329
 O      8   7   6     2.340930954632   122.36045300   180.40568829
 N      2   1   3     2.563150986946   123.98253645   180.11021913
 C     10   2   1     2.735699147322   120.84598290   357.60128809
 C     11  10   2     2.894040143396   108.39531743   222.13124341
 N     12  11  10     2.566508503135   115.25614178   176.09194800
 C     13  12  11     2.769339875629   122.89088164   176.24524220
 C     14  13  12     2.922929941175   109.17587554   282.06189002
 N     15  14  13     2.552592897576   113.70656092    75.95236512
 C     16  15  14     2.759142587515   123.88622129   179.52246072
 C     17  16  15     2.908743937719   114.53608161    67.13905175
 C     18  17  16     2.913959638881   109.90755418   160.71870330
 C     19  18  17     2.900871989866   111.44408880   296.46039090
 N     20  19  18     2.570237389623   116.40985758   304.46606416
 C     21  20  19     2.735233724855   122.64400642   179.00326127
 C     22  21  20     2.898086177423   106.40274767   188.62724350
 N     23  22  21     2.562698468855   114.75033579   170.88817036
 C     24  23  22     2.741965130260   121.98083795   189.75013650
 C     25  24  23     2.895060875276   108.51450846   185.45502243
 O     23  22  21     2.335102595225   122.40305173   348.41819729
 C     22  21  20     2.945398407971   113.62154565    65.10995157
 C     28  22  21     2.901950305825   114.52861815   243.37600035
 C     29  28  22     2.894393815024   109.73312797   171.58774905
 C     29  28  22     2.896888968195   112.41429271   295.13584080
 O     20  19  18     2.331523128535   121.49174485   123.09752816
 C     19  18  17     2.913152213800   111.11821349   168.73300758
 C     33  19  18     2.868190510604   118.93611313    61.53212860
 C     34  33  19     2.916692894147   109.32971456   102.14511176
 C     35  34  33     2.887551070845   113.37736821   197.42443346
 C     36  35  34     2.892979044141   111.90407465   172.74618304
 C     37  36  35     2.899654620800   115.40059641   180.58204963
 C     38  37  36     2.913832567621   114.32897032    56.83354096
 C     39  38  37     2.895383035817   113.94174260   263.51793269
 C     40  39  38     2.889271882113   113.26421026   175.16236706
 C     41  40  39     2.889091641587   113.21782187   173.18998591
 O     33  19  18     2.300696582410   119.84277406   238.18690818
 O     18  17  16     2.676740411630   112.47920679   280.61732402
 O     15  14  13     2.344873761731   121.95001579   257.03566756
 C     14  13  12     2.882627972203   110.66196557   158.45546941
 C     46  14  13     2.889579122464   113.02274995   296.19258974
 O     12  11  10     2.339875753205   122.30715793   355.03731079
 C     11  10   2     2.947565402186   112.94499368    98.13918443
 C     49  11  10     2.889345538268   111.78234281    68.77528868
 C     49  11  10     2.890349031191   110.83877451   303.84935002
 H      3   2   1     2.079191629254   107.86339596   112.19516724
 H      4   3   2     2.078562420438   109.80522297   156.83493979
 H      4   3   2     2.069073249638   111.03577254    35.61046292
 H      5   4   3     2.077115157738   109.28794696    77.86366562
 H      5   4   3     2.072860072244   113.59100613   198.68004722
 H      6   5   4     2.072932654181   112.90182216   147.93533838
[...]
freq.      88.03  E(vib)   ...       0.48 
freq.      89.78  E(vib)   ...       0.47 
freq.      93.43  E(vib)   ...       0.47 
freq.      99.62  E(vib)   ...       0.46 
freq.     107.34  E(vib)   ...       0.45 
freq.     112.93  E(vib)   ...       0.45 
freq.     114.87  E(vib)   ...       0.44 
freq.     118.59  E(vib)   ...       0.44 
freq.     124.27  E(vib)   ...       0.43 
freq.     125.74  E(vib)   ...       0.43 
freq.     127.78  E(vib)   ...       0.43 
freq.     135.94  E(vib)   ...       0.42 
freq.     142.46  E(vib)   ...       0.41 
freq.     150.42  E(vib)   ...       0.40 
freq.     152.93  E(vib)   ...       0.40 
freq.     165.26  E(vib)   ...       0.39 
freq.     169.13  E(vib)   ...       0.38 
freq.     175.04  E(vib)   ...       0.38 
freq.     180.19  E(vib)   ...       0.37 
freq.     181.62  E(vib)   ...       0.37 
freq.     187.12  E(vib)   ...       0.36 
freq.     192.85  E(vib)   ...       0.36 
freq.     209.91  E(vib)   ...       0.34 
freq.     217.88  E(vib)   ...       0.33 
freq.     220.49  E(vib)   ...       0.33 
freq.     220.99  E(vib)   ...       0.33 
freq.     224.81  E(vib)   ...       0.33 
freq.     228.07  E(vib)   ...       0.33 
freq.     229.84  E(vib)   ...       0.32 
freq.     234.73  E(vib)   ...       0.32 
freq.     238.75  E(vib)   ...       0.32 
freq.     246.07  E(vib)   ...       0.31 
freq.     251.37  E(vib)   ...       0.30 
freq.     257.37  E(vib)   ...       0.30 
freq.     260.01  E(vib)   ...       0.30 
freq.     276.28  E(vib)   ...       0.28 
freq.     278.56  E(vib)   ...       0.28 
freq.     285.52  E(vib)   ...       0.28 
freq.     297.34  E(vib)   ...       0.27 
freq.     300.25  E(vib)   ...       0.26 
freq.     301.07  E(vib)   ...       0.26 
freq.     310.98  E(vib)   ...       0.26 
freq.     324.88  E(vib)   ...       0.24 
freq.     331.94  E(vib)   ...       0.24 
freq.     335.28  E(vib)   ...       0.24 
freq.     342.21  E(vib)   ...       0.23 
freq.     351.62  E(vib)   ...       0.23 
freq.     357.79  E(vib)   ...       0.22 
freq.     368.88  E(vib)   ...       0.21 
freq.     374.64  E(vib)   ...       0.21 
freq.     381.25  E(vib)   ...       0.21 
freq.     381.66  E(vib)   ...       0.21 
freq.     387.94  E(vib)   ...       0.20 
freq.     390.13  E(vib)   ...       0.20 
freq.     393.26  E(vib)   ...       0.20 
freq.     397.58  E(vib)   ...       0.20 
freq.     413.81  E(vib)   ...       0.19 
freq.     430.86  E(vib)   ...       0.18 
freq.     447.03  E(vib)   ...       0.17 
freq.     452.53  E(vib)   ...       0.16 
freq.     459.65  E(vib)   ...       0.16 
freq.     471.08  E(vib)   ...       0.15 
freq.     477.54  E(vib)   ...       0.15 
freq.     490.71  E(vib)   ...       0.15 
freq.     499.45  E(vib)   ...       0.14 
freq.     519.60  E(vib)   ...       0.13 
freq.     523.98  E(vib)   ...       0.13 
freq.     536.24  E(vib)   ...       0.12 
freq.     548.07  E(vib)   ...       0.12 
freq.     567.82  E(vib)   ...       0.11 
freq.     583.71  E(vib)   ...       0.11 
freq.     594.69  E(vib)   ...       0.10 
freq.     616.52  E(vib)   ...       0.09 
freq.     644.05  E(vib)   ...       0.09 
freq.     652.37  E(vib)   ...       0.08 
freq.     657.52  E(vib)   ...       0.08 
freq.     663.56  E(vib)   ...       0.08 
freq.     665.91  E(vib)   ...       0.08 
freq.     676.20  E(vib)   ...       0.08 
freq.     682.06  E(vib)   ...       0.08 
freq.     708.60  E(vib)   ...       0.07 
freq.     715.55  E(vib)   ...       0.07 
freq.     719.94  E(vib)   ...       0.07 
freq.     722.56  E(vib)   ...       0.07 
freq.     726.33  E(vib)   ...       0.06 
freq.     732.53  E(vib)   ...       0.06 
freq.     743.42  E(vib)   ...       0.06 
freq.     746.64  E(vib)   ...       0.06 
freq.     752.29  E(vib)   ...       0.06 
freq.     757.80  E(vib)   ...       0.06 
freq.     767.09  E(vib)   ...       0.06 
freq.     772.64  E(vib)   ...       0.05 
freq.     779.99  E(vib)   ...       0.05 
freq.     809.34  E(vib)   ...       0.05 
freq.     810.93  E(vib)   ...       0.05 
freq.     817.53  E(vib)   ...       0.05 
freq.     835.18  E(vib)   ...       0.04 
freq.     838.56  E(vib)   ...       0.04 
freq.     848.73  E(vib)   ...       0.04 
freq.     855.42  E(vib)   ...       0.04 
freq.     858.67  E(vib)   ...       0.04 
freq.     864.90  E(vib)   ...       0.04 
freq.     868.42  E(vib)   ...       0.04 
freq.     882.60  E(vib)   ...       0.04 
freq.     891.86  E(vib)   ...       0.03 
freq.     898.60  E(vib)   ...       0.03 
freq.     904.24  E(vib)   ...       0.03 
freq.     904.83  E(vib)   ...       0.03 
freq.     907.99  E(vib)   ...       0.03 
freq.     908.73  E(vib)   ...       0.03 
freq.     914.15  E(vib)   ...       0.03 
freq.     922.27  E(vib)   ...       0.03 
freq.     930.08  E(vib)   ...       0.03 
freq.     936.31  E(vib)   ...       0.03 
freq.     941.24  E(vib)   ...       0.03 
freq.     942.44  E(vib)   ...       0.03 
freq.     945.86  E(vib)   ...       0.03 
freq.     949.06  E(vib)   ...       0.03 
freq.     950.98  E(vib)   ...       0.03 
freq.     954.62  E(vib)   ...       0.03 
freq.     959.39  E(vib)   ...       0.03 
freq.     966.12  E(vib)   ...       0.03 
freq.     973.41  E(vib)   ...       0.03 
freq.     985.51  E(vib)   ...       0.02 
freq.     992.27  E(vib)   ...       0.02 
freq.     997.90  E(vib)   ...       0.02 
freq.    1008.28  E(vib)   ...       0.02 
freq.    1022.85  E(vib)   ...       0.02 
freq.    1025.19  E(vib)   ...       0.02 
freq.    1027.27  E(vib)   ...       0.02 
freq.    1031.27  E(vib)   ...       0.02 
freq.    1035.89  E(vib)   ...       0.02 
freq.    1038.84  E(vib)   ...       0.02 
freq.    1040.54  E(vib)   ...       0.02 
freq.    1040.86  E(vib)   ...       0.02 
freq.    1052.04  E(vib)   ...       0.02 
freq.    1053.06  E(vib)   ...       0.02 
freq.    1064.62  E(vib)   ...       0.02 
freq.    1073.11  E(vib)   ...       0.02 
freq.    1074.33  E(vib)   ...       0.02 
freq.    1082.41  E(vib)   ...       0.02 
freq.    1086.58  E(vib)   ...       0.02 
freq.    1092.50  E(vib)   ...       0.02 
freq.    1098.74  E(vib)   ...       0.02 
freq.    1107.48  E(vib)   ...       0.02 
freq.    1111.04  E(vib)   ...       0.01 
freq.    1111.06  E(vib)   ...       0.01 
freq.    1130.54  E(vib)   ...       0.01 
freq.    1130.79  E(vib)   ...       0.01 
freq.    1134.16  E(vib)   ...       0.01 
freq.    1141.70  E(vib)   ...       0.01 
freq.    1146.71  E(vib)   ...       0.01 
freq.    1152.63  E(vib)   ...       0.01 
freq.    1158.41  E(vib)   ...       0.01 
freq.    1160.20  E(vib)   ...       0.01 
freq.    1163.40  E(vib)   ...       0.01 
freq.    1165.81  E(vib)   ...       0.01 
freq.    1173.28  E(vib)   ...       0.01 
freq.    1184.54  E(vib)   ...       0.01 
freq.    1192.72  E(vib)   ...       0.01 
freq.    1194.66  E(vib)   ...       0.01 
freq.    1202.51  E(vib)   ...       0.01 
freq.    1205.54  E(vib)   ...       0.01 
freq.    1210.45  E(vib)   ...       0.01 
freq.    1211.60  E(vib)   ...       0.01 
freq.    1218.42  E(vib)   ...       0.01 
freq.    1224.75  E(vib)   ...       0.01 
freq.    1229.66  E(vib)   ...       0.01 
freq.    1232.24  E(vib)   ...       0.01 
freq.    1236.79  E(vib)   ...       0.01 
freq.    1238.70  E(vib)   ...       0.01 
freq.    1243.41  E(vib)   ...       0.01 
freq.    1248.61  E(vib)   ...       0.01 
freq.    1258.19  E(vib)   ...       0.01 
freq.    1259.48  E(vib)   ...       0.01 
freq.    1261.91  E(vib)   ...       0.01 
freq.    1265.93  E(vib)   ...       0.01 
freq.    1268.10  E(vib)   ...       0.01 
freq.    1272.43  E(vib)   ...       0.01 
freq.    1281.34  E(vib)   ...       0.01 
freq.    1283.73  E(vib)   ...       0.01 
freq.    1285.25  E(vib)   ...       0.01 
freq.    1287.71  E(vib)   ...       0.01 
freq.    1289.15  E(vib)   ...       0.01 
freq.    1293.43  E(vib)   ...       0.01 
freq.    1294.04  E(vib)   ...       0.01 
freq.    1300.99  E(vib)   ...       0.01 
freq.    1301.22  E(vib)   ...       0.01 
freq.    1303.45  E(vib)   ...       0.01 
freq.    1306.62  E(vib)   ...       0.01 
freq.    1309.24  E(vib)   ...       0.01 
freq.    1313.08  E(vib)   ...       0.01 
freq.    1317.60  E(vib)   ...       0.01 
freq.    1319.68  E(vib)   ...       0.01 
freq.    1320.75  E(vib)   ...       0.01 
freq.    1326.15  E(vib)   ...       0.01 
freq.    1328.90  E(vib)   ...       0.01 
freq.    1329.73  E(vib)   ...       0.01 
freq.    1332.38  E(vib)   ...       0.01 
freq.    1334.60  E(vib)   ...       0.01 
freq.    1336.56  E(vib)   ...       0.01 
freq.    1338.56  E(vib)   ...       0.01 
freq.    1342.72  E(vib)   ...       0.01 
freq.    1344.35  E(vib)   ...       0.01 
freq.    1347.81  E(vib)   ...       0.01 
freq.    1349.50  E(vib)   ...       0.01 
freq.    1355.43  E(vib)   ...       0.01 
freq.    1356.00  E(vib)   ...       0.01 
freq.    1356.36  E(vib)   ...       0.01 
freq.    1364.25  E(vib)   ...       0.01 
freq.    1368.10  E(vib)   ...       0.01 
freq.    1369.63  E(vib)   ...       0.01 
freq.    1379.57  E(vib)   ...       0.01 
freq.    1400.94  E(vib)   ...       0.00 
freq.    1417.56  E(vib)   ...       0.00 
freq.    1423.65  E(vib)   ...       0.00 
freq.    1425.56  E(vib)   ...       0.00 
freq.    1430.88  E(vib)   ...       0.00 
freq.    1431.42  E(vib)   ...       0.00 
freq.    1432.68  E(vib)   ...       0.00 
freq.    1435.24  E(vib)   ...       0.00 
freq.    1435.36  E(vib)   ...       0.00 
freq.    1437.78  E(vib)   ...       0.00 
freq.    1440.60  E(vib)   ...       0.00 
freq.    1441.48  E(vib)   ...       0.00 
freq.    1442.38  E(vib)   ...       0.00 
freq.    1444.49  E(vib)   ...       0.00 
freq.    1444.90  E(vib)   ...       0.00 
freq.    1445.56  E(vib)   ...       0.00 
freq.    1446.81  E(vib)   ...       0.00 
freq.    1449.69  E(vib)   ...       0.00 
freq.    1450.81  E(vib)   ...       0.00 
freq.    1450.90  E(vib)   ...       0.00 
freq.    1452.82  E(vib)   ...       0.00 
freq.    1453.55  E(vib)   ...       0.00 
freq.    1454.28  E(vib)   ...       0.00 
freq.    1456.06  E(vib)   ...       0.00 
freq.    1458.82  E(vib)   ...       0.00 
freq.    1458.98  E(vib)   ...       0.00 
freq.    1465.15  E(vib)   ...       0.00 
freq.    1465.97  E(vib)   ...       0.00 
freq.    1466.05  E(vib)   ...       0.00 
freq.    1467.50  E(vib)   ...       0.00 
freq.    1471.58  E(vib)   ...       0.00 
freq.    1481.13  E(vib)   ...       0.00 
freq.    1493.71  E(vib)   ...       0.00 
freq.    1507.15  E(vib)   ...       0.00 
freq.    1533.89  E(vib)   ...       0.00 
freq.    1638.39  E(vib)   ...       0.00 
freq.    1647.70  E(vib)   ...       0.00 
freq.    1656.07  E(vib)   ...       0.00 
freq.    1663.65  E(vib)   ...       0.00 
freq.    1674.54  E(vib)   ...       0.00 
freq.    1676.74  E(vib)   ...       0.00 
freq.    1717.85  E(vib)   ...       0.00 
freq.    2881.61  E(vib)   ...       0.00 
freq.    2919.24  E(vib)   ...       0.00 
freq.    2919.33  E(vib)   ...       0.00 
freq.    2930.11  E(vib)   ...       0.00 
freq.    2932.66  E(vib)   ...       0.00 
freq.    2935.08  E(vib)   ...       0.00 
freq.    2937.90  E(vib)   ...       0.00 
freq.    2939.66  E(vib)   ...       0.00 
freq.    2940.98  E(vib)   ...       0.00 
freq.    2941.24  E(vib)   ...       0.00 
freq.    2950.68  E(vib)   ...       0.00 
freq.    2951.31  E(vib)   ...       0.00 
freq.    2956.94  E(vib)   ...       0.00 
freq.    2957.50  E(vib)   ...       0.00 
freq.    2962.04  E(vib)   ...       0.00 
freq.    2964.92  E(vib)   ...       0.00 
freq.    2965.92  E(vib)   ...       0.00 
freq.    2966.63  E(vib)   ...       0.00 
freq.    2967.03  E(vib)   ...       0.00 
freq.    2968.26  E(vib)   ...       0.00 
freq.    2969.66  E(vib)   ...       0.00 
freq.    2971.53  E(vib)   ...       0.00 
freq.    2972.91  E(vib)   ...       0.00 
freq.    2973.35  E(vib)   ...       0.00 
freq.    2973.51  E(vib)   ...       0.00 
freq.    2974.08  E(vib)   ...       0.00 
freq.    2974.31  E(vib)   ...       0.00 
freq.    2981.65  E(vib)   ...       0.00 
freq.    2984.07  E(vib)   ...       0.00 
freq.    2984.37  E(vib)   ...       0.00 
freq.    2986.01  E(vib)   ...       0.00 
freq.    2995.22  E(vib)   ...       0.00 
freq.    2995.91  E(vib)   ...       0.00 
freq.    2997.45  E(vib)   ...       0.00 
freq.    2998.81  E(vib)   ...       0.00 
freq.    3001.89  E(vib)   ...       0.00 
freq.    3006.14  E(vib)   ...       0.00 
freq.    3011.83  E(vib)   ...       0.00 
freq.    3017.01  E(vib)   ...       0.00 
freq.    3020.51  E(vib)   ...       0.00 
freq.    3020.74  E(vib)   ...       0.00 
freq.    3025.07  E(vib)   ...       0.00 
freq.    3026.61  E(vib)   ...       0.00 
freq.    3028.52  E(vib)   ...       0.00 
freq.    3028.74  E(vib)   ...       0.00 
freq.    3034.30  E(vib)   ...       0.00 
freq.    3034.58  E(vib)   ...       0.00 
freq.    3034.69  E(vib)   ...       0.00 
freq.    3035.78  E(vib)   ...       0.00 
freq.    3038.19  E(vib)   ...       0.00 
freq.    3038.92  E(vib)   ...       0.00 
freq.    3042.02  E(vib)   ...       0.00 
freq.    3044.79  E(vib)   ...       0.00 
freq.    3048.80  E(vib)   ...       0.00 
freq.    3049.25  E(vib)   ...       0.00 
freq.    3053.79  E(vib)   ...       0.00 
freq.    3065.64  E(vib)   ...       0.00 
freq.    3071.57  E(vib)   ...       0.00 
freq.    3321.13  E(vib)   ...       0.00 
freq.    3323.25  E(vib)   ...       0.00 
freq.    3333.04  E(vib)   ...       0.00 
freq.    3438.93  E(vib)   ...       0.00 
freq.    3487.14  E(vib)   ...       0.00 
freq.    3502.47  E(vib)   ...       0.00 

------------
INNER ENERGY
------------

The inner energy is: U= E(el) + E(ZPE) + E(vib) + E(rot) + E(trans)
    E(el)   - is the total energy from the electronic structure calculation
              = E(kin-el) + E(nuc-el) + E(el-el) + E(nuc-nuc)
    E(ZPE)  - the the zero temperature vibrational energy from the frequency calculation
    E(vib)  - the the finite temperature correction to E(ZPE) due to population
              of excited vibrational states
    E(rot)  - is the rotational thermal energy
    E(trans)- is the translational thermal energy

Summary of contributions to the inner energy U:
Electronic energy                ...  -2380.08149241 Eh
Zero point energy                ...      0.97805035 Eh     613.73 kcal/mol
Thermal vibrational correction   ...      0.05522150 Eh      34.65 kcal/mol
Thermal rotational correction    ...      0.00141627 Eh       0.89 kcal/mol
Thermal translational correction ...      0.00141627 Eh       0.89 kcal/mol
-----------------------------------------------------------------------
Total thermal energy                  -2379.04538801 Eh


Summary of corrections to the electronic energy:
(perhaps to be used in another calculation)
Total thermal correction                  0.05805404 Eh      36.43 kcal/mol
Non-thermal (ZPE) correction              0.97805035 Eh     613.73 kcal/mol
-----------------------------------------------------------------------
Total correction                          1.03610440 Eh     650.16 kcal/mol


--------
ENTHALPY
--------

The enthalpy is H = U + kB*T
                kB is Boltzmann's constant
Total free energy                 ...  -2379.04538801 Eh 
Thermal Enthalpy correction       ...      0.00094421 Eh       0.59 kcal/mol
-----------------------------------------------------------------------
Total Enthalpy                    ...  -2379.04444380 Eh


Note: Only C1 symmetry has been detected, increase convergence thresholds 
      if your molecule has a higher symmetry. Symmetry factor of 1.0 is   
      used for the rotational entropy correction. 
 

Note: Rotational entropy computed according to Herzberg 
Infrared and Raman Spectra, Chapter V,1, Van Nostrand Reinhold, 1945 
Point Group:  C1, Symmetry Number:   1  
Rotational constants in cm-1:     0.001903     0.001791     0.001243 

Vibrational entropy computed according to the QRRHO of S. Grimme
Chem.Eur.J. 2012 18 9955


-------
ENTROPY
-------

The entropy contributions are T*S = T*(S(el)+S(vib)+S(rot)+S(trans))
     S(el)   - electronic entropy
     S(vib)  - vibrational entropy
     S(rot)  - rotational entropy
     S(trans)- translational entropy
The entropies will be listed as mutliplied by the temperature to get
units of energy

Electronic entropy                ...      0.00000000 Eh      0.00 kcal/mol
Vibrational entropy               ...      0.10028581 Eh     62.93 kcal/mol
Rotational entropy                ...      0.01861272 Eh     11.68 kcal/mol
Translational entropy             ...      0.02166895 Eh     13.60 kcal/mol
-----------------------------------------------------------------------
Final entropy term                ...      0.14056748 Eh     88.21 kcal/mol

In case the symmetry of your molecule has not been determined correctly
or in case you have a reason to use a different symmetry number we print 
out the resulting rotational entropy values for sn=1,12 :
 --------------------------------------------------------
|  sn= 1 | S(rot)=       0.01861272 Eh     11.68 kcal/mol|
|  sn= 2 | S(rot)=       0.01795826 Eh     11.27 kcal/mol|
|  sn= 3 | S(rot)=       0.01757543 Eh     11.03 kcal/mol|
|  sn= 4 | S(rot)=       0.01730380 Eh     10.86 kcal/mol|
|  sn= 5 | S(rot)=       0.01709312 Eh     10.73 kcal/mol|
|  sn= 6 | S(rot)=       0.01692097 Eh     10.62 kcal/mol|
|  sn= 7 | S(rot)=       0.01677542 Eh     10.53 kcal/mol|
|  sn= 8 | S(rot)=       0.01664935 Eh     10.45 kcal/mol|
|  sn= 9 | S(rot)=       0.01653814 Eh     10.38 kcal/mol|
|  sn=10 | S(rot)=       0.01643866 Eh     10.32 kcal/mol|
|  sn=11 | S(rot)=       0.01634867 Eh     10.26 kcal/mol|
|  sn=12 | S(rot)=       0.01626651 Eh     10.21 kcal/mol|
 --------------------------------------------------------


-------------------
GIBBS FREE ENERGY
-------------------

The Gibbs free energy is G = H - T*S

Total enthalpy                    ...  -2379.04444380 Eh 
Total entropy correction          ...     -0.14056748 Eh    -88.21 kcal/mol
-----------------------------------------------------------------------
Final Gibbs free energy         ...  -2379.18501128 Eh

For completeness - the Gibbs free energy minus the electronic energy
G-E(el)                           ...      0.89648113 Eh    562.55 kcal/mol

--------------------------------------------------------------------------
WARNING: No preset parameters were found for the device that Open MPI
detected:

  Local host:            eu-g1-022-1
  Device name:           mlx5_0
  Device vendor ID:      0x02c9
  Device vendor part ID: 4123

Default device parameters will be used, which may result in lower
performance.  You can edit any of the files specified by the
btl_openib_device_param_files MCA parameter to set values for your
device.

NOTE: You can turn off this warning by setting the MCA parameter
      btl_openib_warn_no_device_params_found to 0.
--------------------------------------------------------------------------
--------------------------------------------------------------------------
WARNING: There was an error initializing an OpenFabrics device.

  Local host:   eu-g1-022-1
  Local device: mlx5_0
--------------------------------------------------------------------------

Timings for individual modules:

Sum of individual times         ...    25649.516 sec (= 427.492 min)
GTO integral calculation        ...       12.910 sec (=   0.215 min)   0.1 %
SCF iterations                  ...      402.521 sec (=   6.709 min)   1.6 %
SCF Gradient evaluation         ...       71.751 sec (=   1.196 min)   0.3 %
Geometry relaxation             ...        4.007 sec (=   0.067 min)   0.0 %
Analytical frequency calculation...    25158.326 sec (= 419.305 min)  98.1 %
                             ****ORCA TERMINATED NORMALLY****
TOTAL RUN TIME: 0 days 7 hours 7 minutes 46 seconds 506 msec
