
                                 *****************
                                 * O   R   C   A *
                                 *****************

           --- An Ab Initio, DFT and Semiempirical electronic structure package ---

                  #######################################################
                  #                        -***-                        #
                  #          Department of theory and spectroscopy      #
                  #               Directorship: Frank Neese             #
                  #        Max Planck Institute fuer Kohlenforschung    #
                  #                Kaiser Wilhelm Platz 1               #
                  #                 D-45470 Muelheim/Ruhr               #
                  #                      Germany                        #
                  #                                                     #
                  #                  All rights reserved                #
                  #                        -***-                        #
                  #######################################################


                         Program Version 4.2.0 -  RELEASE  -


 With contributions from (in alphabetic order):
   Daniel Aravena         : Magnetic Suceptibility
   Michael Atanasov       : Ab Initio Ligand Field Theory (pilot matlab implementation)
   Alexander A. Auer      : GIAO ZORA, VPT2
   Ute Becker             : Parallelization
   Giovanni Bistoni       : ED, misc. LED, open-shell LED, HFLED
   Martin Brehm           : Molecular dynamics
   Dmytro Bykov           : SCF Hessian
   Vijay G. Chilkuri      : MRCI spin determinant printing, contributions to CSF-ICE
   Dipayan Datta          : RHF DLPNO-CCSD density
   Achintya Kumar Dutta   : EOM-CC, STEOM-CC
   Dmitry Ganyushin       : Spin-Orbit,Spin-Spin,Magnetic field MRCI
   Miquel Garcia          : C-PCM Hessian, Gaussian charge scheme
   Yang Guo               : DLPNO-NEVPT2, CIM, IAO-localization
   Andreas Hansen         : Spin unrestricted coupled pair/coupled cluster methods
   Benjamin Helmich-Paris : CASSCF linear response (MC-RPA)
   Lee Huntington         : MR-EOM, pCC
   Robert Izsak           : Overlap fitted RIJCOSX, COSX-SCS-MP3, EOM
   Christian Kollmar      : KDIIS, OOCD, Brueckner-CCSD(T), CCSD density
   Simone Kossmann        : Meta GGA functionals, TD-DFT gradient, OOMP2, MP2 Hessian
   Martin Krupicka        : AUTO-CI
   Lucas Lang             : DCDCAS
   Dagmar Lenk            : GEPOL surface, SMD
   Dimitrios Liakos       : Extrapolation schemes; Compound Job, initial MDCI parallelization
   Dimitrios Manganas     : Further ROCIS development; embedding schemes
   Dimitrios Pantazis     : SARC Basis sets
   Taras Petrenko         : DFT Hessian,TD-DFT gradient, ASA, ECA, R-Raman, ABS, FL, XAS/XES, NRVS
   Peter Pinski           : DLPNO-MP2, DLPNO-MP2 Gradient
   Christoph Reimann      : Effective Core Potentials
   Marius Retegan         : Local ZFS, SOC
   Christoph Riplinger    : Optimizer, TS searches, QM/MM, DLPNO-CCSD(T), (RO)-DLPNO pert. Triples
   Tobias Risthaus        : Range-separated hybrids, TD-DFT gradient, RPA, STAB
   Michael Roemelt        : Original ROCIS implementation
   Masaaki Saitow         : Open-shell DLPNO-CCSD energy and density
   Barbara Sandhoefer     : DKH picture change effects
   Avijit Sen             : IP-ROCIS
   Kantharuban Sivalingam : CASSCF convergence, NEVPT2, FIC-MRCI
   Bernardo de Souza      : ESD, SOC TD-DFT
   Georgi Stoychev        : AutoAux, RI-MP2 NMR
   Willem Van den Heuvel  : Paramagnetic NMR
   Boris Wezisla          : Elementary symmetry handling
   Frank Wennmohs         : Technical directorship


 We gratefully acknowledge several colleagues who have allowed us to
 interface, adapt or use parts of their codes:
   Stefan Grimme, W. Hujo, H. Kruse,             : VdW corrections, initial TS optimization,
                  C. Bannwarth                     DFT functionals, gCP, sTDA/sTD-DF
   Ed Valeev, F. Pavosevic, A. Kumar             : LibInt (2-el integral package), F12 methods
   Garnet Chan, S. Sharma, J. Yang, R. Olivares  : DMRG
   Ulf Ekstrom                                   : XCFun DFT Library
   Mihaly Kallay                                 : mrcc  (arbitrary order and MRCC methods)
   Andreas Klamt, Michael Diedenhofen            : otool_cosmo (COSMO solvation model)
   Jiri Pittner, Ondrej Demel                    : Mk-CCSD
   Frank Weinhold                                : gennbo (NPA and NBO analysis)
   Christopher J. Cramer and Donald G. Truhlar   : smd solvation model
   Lars Goerigk                                  : TD-DFT with DH, B97 family of functionals
   V. Asgeirsson, H. Jonsson                     : NEB implementation
   FAccTs GmbH                                   : IRC, NEB, NEB-TS, Multilevel, MM, QM/MM, CI optimization
   S Lehtola, MJT Oliveira, MAL Marques          : LibXC Library


 Your calculation uses the libint2 library for the computation of 2-el integrals
 For citations please refer to: http://libint.valeyev.net

 Your ORCA version has been built with support for libXC version: 4.2.3
 For citations please refer to: https://tddft.org/programs/libxc/

 This ORCA versions uses:
   CBLAS   interface :  Fast vector & matrix operations
   LAPACKE interface :  Fast linear algebra routines
   SCALAPACK package :  Parallel linear algebra routines




***************************************
The coordinates will be read from file: 22.xyz
***************************************


Your calculation utilizes the atom-pairwise dispersion correction
with the Becke-Johnson damping scheme (D3BJ)
Cite in your paper:
S.Grimme, S.Ehrlich, L.Goerigk, J Comput Chem, (2011), 32, 1456–1465 
S.Grimme, J.Antony, S.Ehrlich and H.Krieg, J.Chem.Phys., 132, (2010), 154104 
   

----- Orbital basis set information -----
Your calculation utilizes the basis: def2-TZVP
   F. Weigend and R. Ahlrichs, Phys. Chem. Chem. Phys. 7, 3297 (2005).

----- AuxJ basis set information -----
Your calculation utilizes the auxiliary basis: def2/J
   F. Weigend, Phys. Chem. Chem. Phys. 8, 1057 (2006).

================================================================================
                                        WARNINGS
                       Please study these warnings very carefully!
================================================================================


WARNING: Geometry Optimization
  ===> : Switching off AutoStart
         For restart on a previous wavefunction, please use MOREAD

INFO   : the flag for use of LIBINT has been found!

================================================================================
                                       INPUT FILE
================================================================================
NAME = 22.inp
|  1> !RI BP86 def2-tzvp def2/J D3BJ VeryTightSCF VeryTightOpt Grid5 FinalGrid6 freq
|  2> %maxcore 4000
|  3> %pal nprocs 24
|  4> end
|  5> * xyzfile 0 1 22.xyz 
|  6> 
|  7>                          ****END OF INPUT****
================================================================================

                       *****************************
                       * Geometry Optimization Run *
                       *****************************

Geometry optimization settings:
Update method            Update   .... BFGS
Choice of coordinates    CoordSys .... Z-matrix Internals
Initial Hessian          InHess   .... Almoef's Model

Convergence Tolerances:
Energy Change            TolE     ....  2.0000e-07 Eh
Max. Gradient            TolMAXG  ....  3.0000e-05 Eh/bohr
RMS Gradient             TolRMSG  ....  8.0000e-06 Eh/bohr
Max. Displacement        TolMAXD  ....  2.0000e-04 bohr
RMS Displacement         TolRMSD  ....  1.0000e-04 bohr
Strict Convergence                ....  False
------------------------------------------------------------------------------
                        ORCA OPTIMIZATION COORDINATE SETUP
------------------------------------------------------------------------------

The optimization will be done in new redundant internal coordinates
Making redundant internal coordinates   ...  (new redundants) done
Evaluating the initial hessian          ...  (Almloef) done
Evaluating the coordinates              ...  done
Calculating the B-matrix                .... done
Calculating the G-matrix                .... done
Diagonalizing the G-matrix              .... done
Small eigenvalue found = 2.063e-04
Small eigenvalue found = 6.410e-04
Small eigenvalue found = 1.219e-03
Small eigenvalue found = 2.329e-03
Small eigenvalue found = 4.176e-03
Small eigenvalue found = 4.369e-03
Small eigenvalue found = 5.155e-03
Small eigenvalue found = 6.560e-03
Small eigenvalue found = 7.405e-03
Small eigenvalue found = 8.325e-03
Small eigenvalue found = 8.579e-03
Small eigenvalue found = 1.044e-02
Small eigenvalue found = 1.154e-02
Small eigenvalue found = 1.290e-02
Small eigenvalue found = 1.449e-02
Small eigenvalue found = 1.574e-02
Small eigenvalue found = 1.810e-02
Small eigenvalue found = 2.041e-02
Small eigenvalue found = 2.282e-02
The first mode is                       ....  323
The number of degrees of freedom        ....  339

    -----------------------------------------------------------------
                    Redundant Internal Coordinates


    -----------------------------------------------------------------
         Definition                    Initial Value    Approx d2E/dq
    -----------------------------------------------------------------
      1. B(C   1,O   0)                  1.2467         0.947466   
      2. B(C   2,C   1)                  1.5475         0.350334   
      3. B(C   3,C   2)                  1.5334         0.368936   
      4. B(C   4,C   3)                  1.5349         0.366863   
      5. B(C   5,C   4)                  1.5297         0.374043   
      6. B(N   6,C   2)                  1.4782         0.404775   
      7. B(N   6,C   5)                  1.4784         0.404481   
      8. B(C   7,N   6)                  1.3597         0.625526   
      9. B(O   8,C   7)                  1.2429         0.960553   
     10. B(N   9,C   1)                  1.3440         0.662530   
     11. B(C  10,N   9)                  1.4616         0.430231   
     12. B(C  11,C  10)                  1.5542         0.341820   
     13. B(N  12,C  11)                  1.3660         0.611093   
     14. B(C  13,N  12)                  1.4545         0.441477   
     15. B(C  14,C  13)                  1.5419         0.357590   
     16. B(N  15,C  14)                  1.3592         0.626693   
     17. B(C  16,N  15)                  1.4510         0.447215   
     18. B(C  17,C  16)                  1.5387         0.361837   
     19. B(C  18,C  17)                  1.5432         0.355866   
     20. B(C  19,C  18)                  1.5454         0.352988   
     21. B(N  20,C  19)                  1.3583         0.628663   
     22. B(C  21,N  20)                  1.4632         0.427622   
     23. B(C  22,C  21)                  1.5501         0.346992   
     24. B(N  23,C  22)                  1.3615         0.621457   
     25. B(C  24,C   7)                  1.5320         0.370902   
     26. B(C  24,N  23)                  1.4637         0.426849   
     27. B(C  25,C  24)                  1.5284         0.375819   
     28. B(O  26,C  22)                  1.2318         1.000695   
     29. B(C  27,C  21)                  1.5380         0.362741   
     30. B(C  28,C  27)                  1.5387         0.361772   
     31. B(C  29,C  28)                  1.5330         0.369458   
     32. B(C  30,C  28)                  1.5320         0.370804   
     33. B(O  31,C  19)                  1.2320         0.999754   
     34. B(C  32,C  18)                  1.5376         0.363295   
     35. B(C  33,C  32)                  1.5098         0.402346   
     36. B(C  34,C  33)                  1.5240         0.381869   
     37. B(C  35,C  34)                  1.5297         0.373961   
     38. B(C  36,C  35)                  1.5302         0.373357   
     39. B(C  37,C  36)                  1.5301         0.373378   
     40. B(C  38,C  37)                  1.5303         0.373160   
     41. B(C  39,C  38)                  1.5302         0.373349   
     42. B(C  40,C  39)                  1.5310         0.372233   
     43. B(C  41,C  40)                  1.5298         0.373783   
     44. B(O  42,C  32)                  1.2216         1.038966   
     45. B(O  43,C  17)                  1.4266         0.489122   
     46. B(O  44,C  14)                  1.2328         0.996812   
     47. B(C  45,C  13)                  1.5337         0.368559   
     48. B(C  46,C  45)                  1.5280         0.376314   
     49. B(O  47,C  11)                  1.2269         1.018704   
     50. B(C  48,C  10)                  1.5494         0.347888   
     51. B(C  49,C  48)                  1.5330         0.369427   
     52. B(C  50,C  48)                  1.5364         0.364897   
     53. B(H  51,C   2)                  1.1022         0.344348   
     54. B(H  52,C   3)                  1.0970         0.350913   
     55. B(H  53,C   3)                  1.0981         0.349560   
     56. B(H  54,C   4)                  1.0966         0.351495   
     57. B(H  55,C   4)                  1.1008         0.346120   
     58. B(H  56,C   5)                  1.0952         0.353296   
     59. B(H  56,O  42)                  2.6293         0.001129   
     60. B(H  57,C   5)                  1.0962         0.351992   
     61. B(H  58,N   9)                  1.0310         0.400603   
     62. B(H  59,C  10)                  1.1017         0.344912   
     63. B(H  60,N  12)                  1.0150         0.424868   
     64. B(H  61,C  13)                  1.1007         0.346238   
     65. B(H  62,N  15)                  1.0231         0.412405   
     66. B(H  63,C  16)                  1.0960         0.352235   
     67. B(H  64,C  16)                  1.0991         0.348311   
     68. B(H  65,C  17)                  1.1036         0.342540   
     69. B(H  66,C  18)                  1.1045         0.341380   
     70. B(H  67,N  20)                  1.0145         0.425537   
     71. B(H  68,C  21)                  1.1022         0.344284   
     72. B(H  69,N  23)                  1.0242         0.410640   
     73. B(H  70,C  24)                  1.1055         0.340152   
     74. B(H  71,C  25)                  1.0970         0.350961   
     75. B(H  72,C  25)                  1.0967         0.351386   
     76. B(H  73,C  25)                  1.0973         0.350535   
     77. B(H  74,C  27)                  1.0969         0.351119   
     78. B(H  75,C  27)                  1.1026         0.343767   
     79. B(H  76,C  28)                  1.1015         0.345146   
     80. B(H  77,C  29)                  1.1009         0.346020   
     81. B(H  78,C  29)                  1.1022         0.344269   
     82. B(H  79,C  29)                  1.0997         0.347536   
     83. B(H  80,C  30)                  1.0993         0.347975   
     84. B(H  81,C  30)                  1.0999         0.347200   
     85. B(H  82,C  30)                  1.1024         0.344089   
     86. B(H  83,C  33)                  1.1081         0.336989   
     87. B(H  84,C  33)                  1.1026         0.343774   
     88. B(H  85,C  34)                  1.1017         0.344942   
     89. B(H  86,C  34)                  1.1011         0.345737   
     90. B(H  87,C  35)                  1.1047         0.341139   
     91. B(H  88,C  35)                  1.1042         0.341791   
     92. B(H  89,C  36)                  1.1041         0.341879   
     93. B(H  90,C  36)                  1.1043         0.341725   
     94. B(H  91,C  37)                  1.1044         0.341502   
     95. B(H  92,C  37)                  1.1043         0.341655   
     96. B(H  93,C  38)                  1.1044         0.341606   
     97. B(H  94,C  38)                  1.1044         0.341522   
     98. B(H  95,C  39)                  1.1046         0.341300   
     99. B(H  96,C  39)                  1.1045         0.341369   
    100. B(H  97,C  40)                  1.1034         0.342799   
    101. B(H  98,C  40)                  1.1034         0.342751   
    102. B(H  99,C  41)                  1.0994         0.347819   
    103. B(H 100,C  41)                  1.1007         0.346179   
    104. B(H 101,C  41)                  1.1008         0.346145   
    105. B(H 102,O   0)                  1.9982         0.011471   
    106. B(H 102,O  43)                  0.9820         0.479599   
    107. B(H 103,C  45)                  1.0989         0.348576   
    108. B(H 104,C  45)                  1.1045         0.341443   
    109. B(H 105,C  46)                  1.0987         0.348734   
    110. B(H 106,C  46)                  1.0997         0.347452   
    111. B(H 107,C  46)                  1.0997         0.347542   
    112. B(H 108,C  48)                  1.1042         0.341796   
    113. B(H 109,C  49)                  1.0964         0.351745   
    114. B(H 110,C  49)                  1.0992         0.348135   
    115. B(H 111,C  49)                  1.1011         0.345710   
    116. B(H 112,C  50)                  1.0982         0.349355   
    117. B(H 113,C  50)                  1.1010         0.345776   
    118. B(H 114,C  50)                  1.0988         0.348621   
    119. A(O   0,C   1,N   9)          124.0588         0.468256   
    120. A(C   2,C   1,N   9)          113.8592         0.394298   
    121. A(O   0,C   1,C   2)          122.0818         0.420045   
    122. A(C   1,C   2,H  51)          108.3168         0.318586   
    123. A(N   6,C   2,H  51)          108.5215         0.324264   
    124. A(C   1,C   2,N   6)          110.3822         0.362080   
    125. A(C   1,C   2,C   3)          113.0711         0.358628   
    126. A(C   3,C   2,H  51)          112.4073         0.321291   
    127. A(C   3,C   2,N   6)          104.0166         0.365297   
    128. A(C   4,C   3,H  53)          110.0960         0.321785   
    129. A(C   4,C   3,H  52)          113.5608         0.321988   
    130. A(C   2,C   3,C   4)          104.1243         0.361456   
    131. A(C   2,C   3,H  53)          109.0133         0.322082   
    132. A(C   2,C   3,H  52)          111.5475         0.322286   
    133. A(H  52,C   3,H  53)          108.3941         0.288318   
    134. A(H  54,C   4,H  55)          108.5712         0.287946   
    135. A(C   3,C   4,H  55)          110.9544         0.321264   
    136. A(C   3,C   4,C   5)          102.9344         0.362306   
    137. A(C   3,C   4,H  54)          112.3498         0.322076   
    138. A(C   5,C   4,H  55)          110.3763         0.322285   
    139. A(C   5,C   4,H  54)          111.5993         0.323101   
    140. A(H  56,C   5,H  57)          108.1184         0.288937   
    141. A(C   4,C   5,N   6)          102.7873         0.366112   
    142. A(C   4,C   5,H  56)          110.9570         0.323372   
    143. A(N   6,C   5,H  57)          110.3942         0.325398   
    144. A(N   6,C   5,H  56)          110.8110         0.325596   
    145. A(C   4,C   5,H  57)          113.7372         0.323176   
    146. A(C   5,N   6,C   7)          126.7440         0.397755   
    147. A(C   2,N   6,C   7)          119.6141         0.397805   
    148. A(C   2,N   6,C   5)          111.6039         0.368788   
    149. A(O   8,C   7,C  24)          120.9365         0.425391   
    150. A(N   6,C   7,O   8)          121.7939         0.464518   
    151. A(N   6,C   7,C  24)          117.2682         0.394269   
    152. A(C   1,N   9,C  10)          123.7344         0.406197   
    153. A(C  10,N   9,H  58)          119.1766         0.332969   
    154. A(C   1,N   9,H  58)          113.4452         0.358014   
    155. A(C  48,C  10,H  59)          107.2903         0.318307   
    156. A(C  11,C  10,H  59)          103.9521         0.317396   
    157. A(N   9,C  10,C  11)          109.1440         0.364338   
    158. A(N   9,C  10,C  48)          112.9844         0.365437   
    159. A(N   9,C  10,H  59)          104.8367         0.327623   
    160. A(C  11,C  10,C  48)          117.4543         0.353590   
    161. A(N  12,C  11,O  47)          122.8290         0.467542   
    162. A(C  10,C  11,O  47)          119.8457         0.423653   
    163. A(C  10,C  11,N  12)          117.3116         0.387100   
    164. A(C  13,N  12,H  60)          118.2365         0.337686   
    165. A(C  11,N  12,C  13)          122.2570         0.402272   
    166. A(C  11,N  12,H  60)          118.9642         0.356677   
    167. A(C  14,C  13,C  45)          110.5098         0.359819   
    168. A(N  12,C  13,H  61)          106.4931         0.329229   
    169. A(C  14,C  13,H  61)          104.7603         0.319940   
    170. A(N  12,C  13,C  14)          113.6713         0.368793   
    171. A(C  45,C  13,H  61)          109.8394         0.321525   
    172. A(N  12,C  13,C  45)          111.2433         0.370713   
    173. A(C  13,C  14,N  15)          115.7984         0.391882   
    174. A(N  15,C  14,O  44)          123.8482         0.467841   
    175. A(C  13,C  14,O  44)          120.3448         0.425429   
    176. A(C  14,N  15,H  62)          118.1267         0.356400   
    177. A(C  16,N  15,H  62)          115.4906         0.336739   
    178. A(C  14,N  15,C  16)          120.5538         0.404987   
    179. A(H  63,C  16,H  64)          109.4555         0.288326   
    180. A(C  17,C  16,H  64)          109.2240         0.320871   
    181. A(N  15,C  16,H  63)          108.0608         0.330871   
    182. A(C  17,C  16,H  63)          110.4368         0.321460   
    183. A(N  15,C  16,C  17)          110.4070         0.370363   
    184. A(N  15,C  16,H  64)          109.2326         0.330258   
    185. A(O  43,C  17,H  65)          105.8250         0.334270   
    186. A(C  18,C  17,H  65)          108.3463         0.319128   
    187. A(C  16,C  17,H  65)          105.8863         0.319996   
    188. A(C  16,C  17,C  18)          113.8384         0.358399   
    189. A(C  18,C  17,O  43)          110.6971         0.375046   
    190. A(C  16,C  17,O  43)          111.7538         0.376125   
    191. A(C  19,C  18,H  66)          108.1226         0.318529   
    192. A(C  17,C  18,H  66)          109.3241         0.318951   
    193. A(C  17,C  18,C  32)          114.4261         0.358644   
    194. A(C  17,C  18,C  19)          110.1493         0.356893   
    195. A(C  19,C  18,C  32)          105.8338         0.358149   
    196. A(C  32,C  18,H  66)          108.7707         0.320029   
    197. A(C  18,C  19,N  20)          115.6517         0.391210   
    198. A(N  20,C  19,O  31)          122.7204         0.468363   
    199. A(C  18,C  19,O  31)          121.6041         0.424668   
    200. A(C  19,N  20,H  67)          118.5968         0.358496   
    201. A(C  19,N  20,C  21)          122.4208         0.402021   
    202. A(C  21,N  20,H  67)          118.3489         0.335986   
    203. A(C  27,C  21,H  68)          108.5856         0.320392   
    204. A(C  22,C  21,H  68)          104.4260         0.318079   
    205. A(N  20,C  21,H  68)          104.7486         0.327196   
    206. A(N  20,C  21,C  22)          113.1822         0.364896   
    207. A(C  22,C  21,C  27)          111.6666         0.357015   
    208. A(N  20,C  21,C  27)          113.4684         0.367682   
    209. A(C  21,C  22,N  23)          116.6806         0.389256   
    210. A(C  21,C  22,O  26)          120.4458         0.423440   
    211. A(N  23,C  22,O  26)          122.6363         0.467455   
    212. A(C  22,N  23,C  24)          119.1645         0.401078   
    213. A(C  24,N  23,H  69)          119.5204         0.333902   
    214. A(C  22,N  23,H  69)          121.1725         0.355634   
    215. A(C  25,C  24,H  70)          108.3888         0.321618   
    216. A(N  23,C  24,H  70)          106.1147         0.326449   
    217. A(C   7,C  24,H  70)          108.2638         0.320926   
    218. A(N  23,C  24,C  25)          111.5152         0.369810   
    219. A(C   7,C  24,N  23)          111.3138         0.368974   
    220. A(C   7,C  24,C  25)          111.0262         0.363278   
    221. A(H  71,C  25,H  73)          109.7793         0.288449   
    222. A(C  24,C  25,H  73)          110.3536         0.323207   
    223. A(H  71,C  25,H  72)          109.0984         0.288559   
    224. A(C  24,C  25,H  72)          110.5420         0.323335   
    225. A(C  24,C  25,H  71)          108.8717         0.323271   
    226. A(H  72,C  25,H  73)          108.1790         0.288504   
    227. A(C  28,C  27,H  75)          108.9742         0.320174   
    228. A(C  21,C  27,C  28)          114.1176         0.359557   
    229. A(H  74,C  27,H  75)          107.1832         0.287592   
    230. A(C  21,C  27,H  75)          107.8560         0.320314   
    231. A(C  28,C  27,H  74)          109.9012         0.321283   
    232. A(C  21,C  27,H  74)          108.5674         0.321424   
    233. A(C  29,C  28,C  30)          110.5573         0.362204   
    234. A(C  27,C  28,C  30)          109.6671         0.360907   
    235. A(C  27,C  28,C  29)          112.0434         0.360683   
    236. A(C  30,C  28,H  76)          108.0402         0.321678   
    237. A(C  29,C  28,H  76)          109.0160         0.321487   
    238. A(C  27,C  28,H  76)          107.3821         0.320383   
    239. A(C  28,C  29,H  79)          111.0026         0.321850   
    240. A(H  78,C  29,H  79)          107.7114         0.287197   
    241. A(H  77,C  29,H  79)          106.9865         0.287424   
    242. A(H  77,C  29,H  78)          107.6032         0.287000   
    243. A(C  28,C  29,H  78)          110.7397         0.321353   
    244. A(C  28,C  29,H  77)          112.5742         0.321620   
    245. A(H  81,C  30,H  82)          107.6561         0.287130   
    246. A(H  80,C  30,H  82)          107.8876         0.287230   
    247. A(C  28,C  30,H  82)          110.8529         0.321517   
    248. A(H  80,C  30,H  81)          108.0482         0.287634   
    249. A(C  28,C  30,H  81)          111.2701         0.321991   
    250. A(C  28,C  30,H  80)          110.9790         0.322108   
    251. A(C  33,C  32,O  42)          122.7715         0.437784   
    252. A(C  18,C  32,O  42)          121.2569         0.429817   
    253. A(C  18,C  32,C  33)          115.9711         0.366241   
    254. A(C  32,C  33,C  34)          114.3372         0.369388   
    255. A(C  34,C  33,H  84)          111.3932         0.323021   
    256. A(H  83,C  33,H  84)          105.3958         0.285755   
    257. A(C  32,C  33,H  84)          107.5961         0.325804   
    258. A(C  34,C  33,H  83)          111.0298         0.321967   
    259. A(C  32,C  33,H  83)          106.5759         0.324738   
    260. A(C  33,C  34,C  35)          112.7763         0.364783   
    261. A(H  85,C  34,H  86)          105.9209         0.287051   
    262. A(C  35,C  34,H  86)          110.1296         0.322215   
    263. A(C  33,C  34,H  86)          109.3762         0.323323   
    264. A(C  35,C  34,H  85)          109.8248         0.322094   
    265. A(C  33,C  34,H  85)          108.5711         0.323201   
    266. A(C  34,C  35,C  36)          113.1410         0.363380   
    267. A(H  87,C  35,H  88)          105.9468         0.286042   
    268. A(C  36,C  35,H  88)          109.2559         0.321525   
    269. A(C  34,C  35,H  88)          109.4599         0.321610   
    270. A(C  36,C  35,H  87)          109.2654         0.321425   
    271. A(C  34,C  35,H  87)          109.5185         0.321510   
    272. A(C  35,C  36,C  37)          113.5019         0.363283   
    273. A(H  89,C  36,H  90)          105.9192         0.286130   
    274. A(C  37,C  36,H  90)          109.3506         0.321518   
    275. A(C  35,C  36,H  90)          109.2736         0.321515   
    276. A(C  37,C  36,H  89)          109.3212         0.321542   
    277. A(C  35,C  36,H  89)          109.1955         0.321539   
    278. A(C  36,C  37,C  38)          113.5058         0.363250   
    279. A(H  91,C  37,H  92)          105.9040         0.286072   
    280. A(C  38,C  37,H  92)          109.2844         0.321476   
    281. A(C  36,C  37,H  92)          109.2779         0.321507   
    282. A(C  38,C  37,H  91)          109.2808         0.321453   
    283. A(C  36,C  37,H  91)          109.3078         0.321484   
    284. A(C  37,C  38,C  39)          113.5473         0.363245   
    285. A(H  93,C  38,H  94)          105.8923         0.286068   
    286. A(C  39,C  38,H  94)          109.2915         0.321483   
    287. A(C  37,C  38,H  94)          109.2775         0.321456   
    288. A(C  39,C  38,H  93)          109.2871         0.321496   
    289. A(C  37,C  38,H  93)          109.2614         0.321469   
    290. A(C  38,C  39,C  40)          113.5889         0.363090   
    291. A(H  95,C  39,H  96)          105.8606         0.286008   
    292. A(C  40,C  39,H  96)          109.2378         0.321302   
    293. A(C  38,C  39,H  96)          109.3092         0.321459   
    294. A(C  40,C  39,H  95)          109.2374         0.321291   
    295. A(C  38,C  39,H  95)          109.3179         0.321448   
    296. A(C  39,C  40,C  41)          113.1376         0.363163   
    297. A(H  97,C  40,H  98)          105.9359         0.286384   
    298. A(C  41,C  40,H  98)          109.6361         0.321733   
    299. A(C  39,C  40,H  98)          109.1231         0.321514   
    300. A(C  41,C  40,H  97)          109.6338         0.321740   
    301. A(C  39,C  40,H  97)          109.1190         0.321521   
    302. A(H 100,C  41,H 101)          107.4396         0.287265   
    303. A(H  99,C  41,H 101)          107.6895         0.287477   
    304. A(C  40,C  41,H 101)          111.0902         0.322253   
    305. A(H  99,C  41,H 100)          107.6866         0.287481   
    306. A(C  40,C  41,H 100)          111.0866         0.322258   
    307. A(C  40,C  41,H  99)          111.6561         0.322507   
    308. A(C  17,O  43,H 102)          108.5936         0.350599   
    309. A(C  13,C  45,C  46)          113.2271         0.362966   
    310. A(C  46,C  45,H 104)          110.5321         0.321887   
    311. A(C  13,C  45,H 104)          108.8937         0.320792   
    312. A(C  46,C  45,H 103)          110.6236         0.322979   
    313. A(C  13,C  45,H 103)          106.8849         0.321879   
    314. A(H 103,C  45,H 104)          106.3878         0.286961   
    315. A(H 106,C  46,H 107)          107.4966         0.287610   
    316. A(H 105,C  46,H 107)          107.6972         0.287776   
    317. A(C  45,C  46,H 107)          111.7395         0.322822   
    318. A(H 105,C  46,H 106)          107.9445         0.287764   
    319. A(C  45,C  46,H 106)          110.7998         0.322808   
    320. A(C  45,C  46,H 105)          110.9922         0.323003   
    321. A(C  50,C  48,H 108)          109.8982         0.320323   
    322. A(C  49,C  48,H 108)          106.9400         0.320970   
    323. A(C  10,C  48,H 108)          108.4788         0.317837   
    324. A(C  49,C  48,C  50)          109.6335         0.361207   
    325. A(C  10,C  48,C  50)          110.1229         0.357531   
    326. A(C  10,C  48,C  49)          111.7017         0.358282   
    327. A(H 110,C  49,H 111)          107.7872         0.287461   
    328. A(H 109,C  49,H 111)          107.9412         0.287925   
    329. A(C  48,C  49,H 111)          110.8288         0.321568   
    330. A(H 109,C  49,H 110)          108.0925         0.288240   
    331. A(C  48,C  49,H 110)          110.0184         0.321937   
    332. A(C  48,C  49,H 109)          112.0291         0.322481   
    333. A(H 113,C  50,H 114)          107.5984         0.287533   
    334. A(H 112,C  50,H 114)          108.0286         0.287996   
    335. A(C  48,C  50,H 114)          110.7250         0.321360   
    336. A(H 112,C  50,H 113)          107.3375         0.287627   
    337. A(C  48,C  50,H 113)          109.9892         0.320930   
    338. A(C  48,C  50,H 112)          112.9588         0.321471   
    339. D(H  51,C   2,C   1,N   9)    -31.0171         0.009272   
    340. D(C   3,C   2,C   1,N   9)   -156.2880         0.009272   
    341. D(N   6,C   2,C   1,N   9)     87.6657         0.009272   
    342. D(N   6,C   2,C   1,O   0)    -92.5056         0.009272   
    343. D(C   3,C   2,C   1,O   0)     23.5407         0.009272   
    344. D(H  51,C   2,C   1,O   0)    148.8116         0.009272   
    345. D(C   4,C   3,C   2,N   6)    -24.6418         0.010885   
    346. D(H  53,C   3,C   2,H  51)   -149.9617         0.010885   
    347. D(H  53,C   3,C   2,C   1)    -26.9294         0.010885   
    348. D(C   4,C   3,C   2,H  51)     92.5569         0.010885   
    349. D(H  53,C   3,C   2,N   6)     92.8396         0.010885   
    350. D(H  52,C   3,C   2,H  51)    -30.2982         0.010885   
    351. D(C   4,C   3,C   2,C   1)   -144.4109         0.010885   
    352. D(H  52,C   3,C   2,C   1)     92.7341         0.010885   
    353. D(H  52,C   3,C   2,N   6)   -147.4968         0.010885   
    354. D(H  55,C   4,C   3,H  53)    162.5779         0.010770   
    355. D(H  55,C   4,C   3,H  52)     40.8347         0.010770   
    356. D(H  54,C   4,C   3,H  52)    -80.9134         0.010770   
    357. D(H  55,C   4,C   3,C   2)    -80.6920         0.010770   
    358. D(H  54,C   4,C   3,H  53)     40.8298         0.010770   
    359. D(C   5,C   4,C   3,C   2)     37.3747         0.010770   
    360. D(H  54,C   4,C   3,C   2)    157.5599         0.010770   
    361. D(C   5,C   4,C   3,H  53)    -79.3554         0.010770   
    362. D(C   5,C   4,C   3,H  52)    158.9014         0.010770   
    363. D(N   6,C   5,C   4,C   3)    -35.2141         0.011170   
    364. D(H  57,C   5,C   4,C   3)   -154.5659         0.011170   
    365. D(H  56,C   5,C   4,H  55)   -158.2486         0.011170   
    366. D(H  56,C   5,C   4,C   3)     83.2792         0.011170   
    367. D(H  57,C   5,C   4,H  54)     84.7336         0.011170   
    368. D(H  56,C   5,C   4,H  54)    -37.4213         0.011170   
    369. D(H  57,C   5,C   4,H  55)    -36.0937         0.011170   
    370. D(N   6,C   5,C   4,H  54)   -155.9147         0.011170   
    371. D(N   6,C   5,C   4,H  55)     83.2580         0.011170   
    372. D(C   5,N   6,C   2,C   3)      2.3790         0.013983   
    373. D(C   7,N   6,C   5,H  57)    -21.0703         0.013963   
    374. D(C   7,N   6,C   5,H  56)     98.6815         0.013963   
    375. D(C   7,N   6,C   5,C   4)   -142.7227         0.013963   
    376. D(C   2,N   6,C   5,H  57)    142.4499         0.013963   
    377. D(C   2,N   6,C   5,H  56)    -97.7983         0.013963   
    378. D(C   7,N   6,C   2,H  51)     47.3553         0.013983   
    379. D(C   2,N   6,C   5,C   4)     20.7974         0.013963   
    380. D(C   7,N   6,C   2,C   3)    167.2216         0.013983   
    381. D(C   5,N   6,C   2,C   1)    123.9548         0.013983   
    382. D(C   7,N   6,C   2,C   1)    -71.2025         0.013983   
    383. D(C   5,N   6,C   2,H  51)   -117.4873         0.013983   
    384. D(C  24,C   7,N   6,C   5)    -20.1417         0.031729   
    385. D(C  24,C   7,N   6,C   2)    177.5190         0.031729   
    386. D(O   8,C   7,N   6,C   5)    160.2976         0.031729   
    387. D(O   8,C   7,N   6,C   2)     -2.0417         0.031729   
    388. D(H  58,N   9,C   1,O   0)    159.4071         0.035944   
    389. D(C  10,N   9,C   1,C   2)   -178.9801         0.035944   
    390. D(H  58,N   9,C   1,C   2)    -20.7681         0.035944   
    391. D(C  10,N   9,C   1,O   0)      1.1951         0.035944   
    392. D(H  59,C  10,N   9,C   1)    169.6377         0.015781   
    393. D(C  48,C  10,N   9,H  58)    129.1020         0.015781   
    394. D(C  48,C  10,N   9,C   1)    -73.8534         0.015781   
    395. D(C  11,C  10,N   9,C   1)     58.7840         0.015781   
    396. D(H  59,C  10,N   9,H  58)     12.5931         0.015781   
    397. D(C  11,C  10,N   9,H  58)    -98.2606         0.015781   
    398. D(O  47,C  11,C  10,N   9)     55.2301         0.008869   
    399. D(N  12,C  11,C  10,H  59)    122.4828         0.008869   
    400. D(N  12,C  11,C  10,C  48)      4.1759         0.008869   
    401. D(N  12,C  11,C  10,N   9)   -126.0765         0.008869   
    402. D(O  47,C  11,C  10,H  59)    -56.2106         0.008869   
    403. D(O  47,C  11,C  10,C  48)   -174.5175         0.008869   
    404. D(H  60,N  12,C  11,O  47)   -174.6843         0.030172   
    405. D(H  60,N  12,C  11,C  10)      6.6644         0.030172   
    406. D(C  13,N  12,C  11,O  47)     -3.2832         0.030172   
    407. D(C  13,N  12,C  11,C  10)    178.0655         0.030172   
    408. D(H  61,C  13,N  12,C  11)     30.0198         0.016620   
    409. D(H  61,C  13,N  12,H  60)   -158.5194         0.016620   
    410. D(C  45,C  13,N  12,H  60)    -38.8594         0.016620   
    411. D(C  45,C  13,N  12,C  11)    149.6798         0.016620   
    412. D(C  14,C  13,N  12,C  11)    -84.8093         0.016620   
    413. D(C  14,C  13,N  12,H  60)     86.6516         0.016620   
    414. D(O  44,C  14,C  13,C  45)    -62.9164         0.009626   
    415. D(O  44,C  14,C  13,N  12)    171.1834         0.009626   
    416. D(N  15,C  14,C  13,H  61)   -125.7009         0.009626   
    417. D(N  15,C  14,C  13,C  45)    116.0518         0.009626   
    418. D(O  44,C  14,C  13,H  61)     55.3309         0.009626   
    419. D(N  15,C  14,C  13,N  12)     -9.8484         0.009626   
    420. D(H  62,N  15,C  14,O  44)   -166.6061         0.031857   
    421. D(H  62,N  15,C  14,C  13)     14.4660         0.031857   
    422. D(C  16,N  15,C  14,O  44)    -14.6944         0.031857   
    423. D(C  16,N  15,C  14,C  13)    166.3777         0.031857   
    424. D(H  64,C  16,N  15,H  62)   -159.9543         0.017059   
    425. D(H  64,C  16,N  15,C  14)     47.4334         0.017059   
    426. D(H  63,C  16,N  15,H  62)    -40.9542         0.017059   
    427. D(H  63,C  16,N  15,C  14)    166.4335         0.017059   
    428. D(C  17,C  16,N  15,C  14)    -72.6904         0.017059   
    429. D(C  17,C  16,N  15,H  62)     79.9219         0.017059   
    430. D(H  65,C  17,C  16,H  64)    -54.1691         0.010497   
    431. D(H  65,C  17,C  16,H  63)   -174.5919         0.010497   
    432. D(H  65,C  17,C  16,N  15)     65.9599         0.010497   
    433. D(O  43,C  17,C  16,H  64)   -168.9301         0.010497   
    434. D(O  43,C  17,C  16,H  63)     70.6472         0.010497   
    435. D(O  43,C  17,C  16,N  15)    -48.8011         0.010497   
    436. D(C  18,C  17,C  16,H  64)     64.7472         0.010497   
    437. D(C  18,C  17,C  16,H  63)    -55.6755         0.010497   
    438. D(C  18,C  17,C  16,N  15)   -175.1238         0.010497   
    439. D(H  66,C  18,C  17,H  65)     46.0455         0.010177   
    440. D(H  66,C  18,C  17,O  43)    161.6662         0.010177   
    441. D(H  66,C  18,C  17,C  16)    -71.4585         0.010177   
    442. D(C  32,C  18,C  17,O  43)    -76.0730         0.010177   
    443. D(C  32,C  18,C  17,C  16)     50.8023         0.010177   
    444. D(C  32,C  18,C  17,H  65)    168.3063         0.010177   
    445. D(C  19,C  18,C  17,H  65)    -72.6254         0.010177   
    446. D(C  19,C  18,C  17,O  43)     42.9953         0.010177   
    447. D(C  19,C  18,C  17,C  16)    169.8706         0.010177   
    448. D(O  31,C  19,C  18,H  66)    109.1983         0.009401   
    449. D(O  31,C  19,C  18,C  32)     -7.2091         0.009401   
    450. D(O  31,C  19,C  18,C  17)   -131.3972         0.009401   
    451. D(N  20,C  19,C  18,H  66)    -72.5296         0.009401   
    452. D(N  20,C  19,C  18,C  17)     46.8748         0.009401   
    453. D(N  20,C  19,C  18,C  32)    171.0630         0.009401   
    454. D(H  67,N  20,C  19,O  31)    176.2227         0.032073   
    455. D(H  67,N  20,C  19,C  18)     -2.0281         0.032073   
    456. D(C  21,N  20,C  19,O  31)      5.5031         0.032073   
    457. D(C  21,N  20,C  19,C  18)   -172.7476         0.032073   
    458. D(H  68,C  21,N  20,H  67)      6.5390         0.015590   
    459. D(H  68,C  21,N  20,C  19)    177.2804         0.015590   
    460. D(C  27,C  21,N  20,H  67)    124.8068         0.015590   
    461. D(C  27,C  21,N  20,C  19)    -64.4517         0.015590   
    462. D(C  22,C  21,N  20,H  67)   -106.6010         0.015590   
    463. D(C  22,C  21,N  20,C  19)     64.1405         0.015590   
    464. D(N  23,C  22,C  21,C  27)    160.5875         0.009112   
    465. D(N  23,C  22,C  21,N  20)     31.0723         0.009112   
    466. D(O  26,C  22,C  21,H  68)     92.2867         0.009112   
    467. D(O  26,C  22,C  21,C  27)    -24.8627         0.009112   
    468. D(O  26,C  22,C  21,N  20)   -154.3779         0.009112   
    469. D(N  23,C  22,C  21,H  68)    -82.2632         0.009112   
    470. D(H  69,N  23,C  22,O  26)    171.5944         0.031285   
    471. D(H  69,N  23,C  22,C  21)    -13.9856         0.031285   
    472. D(C  24,N  23,C  22,O  26)     -4.0436         0.031285   
    473. D(C  24,N  23,C  22,C  21)    170.3764         0.031285   
    474. D(H  70,C  24,N  23,H  69)   -139.4347         0.015534   
    475. D(H  70,C  24,N  23,C  22)     36.2764         0.015534   
    476. D(C  25,C  24,N  23,H  69)    102.7349         0.015534   
    477. D(C  25,C  24,N  23,C  22)    -81.5539         0.015534   
    478. D(C   7,C  24,N  23,H  69)    -21.8614         0.015534   
    479. D(C   7,C  24,N  23,C  22)    153.8498         0.015534   
    480. D(H  70,C  24,C   7,O   8)   -110.9785         0.010298   
    481. D(H  70,C  24,C   7,N   6)     69.4568         0.010298   
    482. D(C  25,C  24,C   7,O   8)      7.8868         0.010298   
    483. D(C  25,C  24,C   7,N   6)   -171.6779         0.010298   
    484. D(N  23,C  24,C   7,O   8)    132.7577         0.010298   
    485. D(N  23,C  24,C   7,N   6)    -46.8070         0.010298   
    486. D(H  73,C  25,C  24,H  70)   -179.9204         0.011270   
    487. D(H  73,C  25,C  24,N  23)    -63.4678         0.011270   
    488. D(H  73,C  25,C  24,C   7)     61.2896         0.011270   
    489. D(H  72,C  25,C  24,H  70)     60.4514         0.011270   
    490. D(H  72,C  25,C  24,N  23)    176.9040         0.011270   
    491. D(H  72,C  25,C  24,C   7)    -58.3386         0.011270   
    492. D(H  71,C  25,C  24,H  70)    -59.3732         0.011270   
    493. D(H  71,C  25,C  24,N  23)     57.0793         0.011270   
    494. D(H  71,C  25,C  24,C   7)   -178.1633         0.011270   
    495. D(H  75,C  27,C  21,H  68)     89.0761         0.010545   
    496. D(H  75,C  27,C  21,C  22)   -156.3162         0.010545   
    497. D(H  75,C  27,C  21,N  20)    -26.9509         0.010545   
    498. D(H  74,C  27,C  21,H  68)   -155.0986         0.010545   
    499. D(H  74,C  27,C  21,C  22)    -40.4908         0.010545   
    500. D(H  74,C  27,C  21,N  20)     88.8744         0.010545   
    501. D(C  28,C  27,C  21,H  68)    -32.1548         0.010545   
    502. D(C  28,C  27,C  21,C  22)     82.4530         0.010545   
    503. D(C  28,C  27,C  21,N  20)   -148.1818         0.010545   
    504. D(H  76,C  28,C  27,H  75)   -171.3996         0.010493   
    505. D(H  76,C  28,C  27,H  74)     71.4251         0.010493   
    506. D(H  76,C  28,C  27,C  21)    -50.7904         0.010493   
    507. D(C  30,C  28,C  27,H  75)     71.4397         0.010493   
    508. D(C  30,C  28,C  27,H  74)    -45.7355         0.010493   
    509. D(C  30,C  28,C  27,C  21)   -167.9510         0.010493   
    510. D(C  29,C  28,C  27,H  75)    -51.7232         0.010493   
    511. D(C  29,C  28,C  27,H  74)   -168.8985         0.010493   
    512. D(C  29,C  28,C  27,C  21)     68.8861         0.010493   
    513. D(H  79,C  29,C  28,C  30)     59.2037         0.010914   
    514. D(H  79,C  29,C  28,C  27)   -178.1371         0.010914   
    515. D(H  78,C  29,C  28,H  76)   -179.0144         0.010914   
    516. D(H  78,C  29,C  28,C  30)    -60.3887         0.010914   
    517. D(H  78,C  29,C  28,C  27)     62.2705         0.010914   
    518. D(H  77,C  29,C  28,H  76)     60.4794         0.010914   
    519. D(H  77,C  29,C  28,C  30)    179.1051         0.010914   
    520. D(H  79,C  29,C  28,H  76)    -59.4219         0.010914   
    521. D(H  77,C  29,C  28,C  27)    -58.2357         0.010914   
    522. D(H  82,C  30,C  28,H  76)   -177.3756         0.010989   
    523. D(H  82,C  30,C  28,C  29)     63.4068         0.010989   
    524. D(H  82,C  30,C  28,C  27)    -60.6282         0.010989   
    525. D(H  81,C  30,C  28,H  76)     62.8509         0.010989   
    526. D(H  81,C  30,C  28,C  29)    -56.3667         0.010989   
    527. D(H  81,C  30,C  28,C  27)    179.5982         0.010989   
    528. D(H  80,C  30,C  28,H  76)    -57.5028         0.010989   
    529. D(H  80,C  30,C  28,C  29)   -176.7204         0.010989   
    530. D(H  80,C  30,C  28,C  27)     59.2446         0.010989   
    531. D(O  42,C  32,C  18,H  66)    147.9969         0.009910   
    532. D(O  42,C  32,C  18,C  19)    -96.0353         0.009910   
    533. D(O  42,C  32,C  18,C  17)     25.4351         0.009910   
    534. D(C  33,C  32,C  18,H  66)    -31.7606         0.009910   
    535. D(C  33,C  32,C  18,C  19)     84.2073         0.009910   
    536. D(C  33,C  32,C  18,C  17)   -154.3223         0.009910   
    537. D(H  84,C  33,C  32,O  42)    136.7793         0.012008   
    538. D(H  84,C  33,C  32,C  18)    -43.4673         0.012008   
    539. D(H  83,C  33,C  32,O  42)   -110.5773         0.012008   
    540. D(H  83,C  33,C  32,C  18)     69.1761         0.012008   
    541. D(C  34,C  33,C  32,O  42)     12.4855         0.012008   
    542. D(C  34,C  33,C  32,C  18)   -167.7611         0.012008   
    543. D(H  86,C  34,C  33,H  84)   -178.2073         0.011616   
    544. D(H  86,C  34,C  33,H  83)     64.6574         0.011616   
    545. D(H  86,C  34,C  33,C  32)    -55.9628         0.011616   
    546. D(H  85,C  34,C  33,H  84)    -63.0622         0.011616   
    547. D(H  85,C  34,C  33,H  83)    179.8025         0.011616   
    548. D(H  85,C  34,C  33,C  32)     59.1823         0.011616   
    549. D(C  35,C  34,C  33,H  84)     58.8825         0.011616   
    550. D(C  35,C  34,C  33,H  83)    -58.2529         0.011616   
    551. D(C  35,C  34,C  33,C  32)   -178.8730         0.011616   
    552. D(H  88,C  35,C  34,H  86)   -179.6906         0.011165   
    553. D(H  88,C  35,C  34,H  85)     64.0330         0.011165   
    554. D(H  88,C  35,C  34,C  33)    -57.2018         0.011165   
    555. D(H  87,C  35,C  34,H  86)    -63.9431         0.011165   
    556. D(H  87,C  35,C  34,H  85)    179.7805         0.011165   
    557. D(H  87,C  35,C  34,C  33)     58.5457         0.011165   
    558. D(C  36,C  35,C  34,H  86)     58.2105         0.011165   
    559. D(C  36,C  35,C  34,H  85)    -58.0658         0.011165   
    560. D(C  36,C  35,C  34,C  33)   -179.3007         0.011165   
    561. D(H  90,C  36,C  35,H  87)     64.5343         0.011131   
    562. D(H  90,C  36,C  35,C  34)    -57.7607         0.011131   
    563. D(H  89,C  36,C  35,H  88)    -64.5432         0.011131   
    564. D(H  89,C  36,C  35,H  87)    179.9646         0.011131   
    565. D(H  89,C  36,C  35,C  34)     57.6696         0.011131   
    566. D(C  37,C  36,C  35,H  88)     57.6939         0.011131   
    567. D(C  37,C  36,C  35,H  87)    -57.7982         0.011131   
    568. D(H  90,C  36,C  35,H  88)   -179.9735         0.011131   
    569. D(C  37,C  36,C  35,C  34)    179.9068         0.011131   
    570. D(H  92,C  37,C  36,H  90)    179.9963         0.011133   
    571. D(H  92,C  37,C  36,H  89)     64.4536         0.011133   
    572. D(H  92,C  37,C  36,C  35)    -57.7138         0.011133   
    573. D(H  91,C  37,C  36,H  90)    -64.5270         0.011133   
    574. D(H  91,C  37,C  36,H  89)    179.9303         0.011133   
    575. D(H  91,C  37,C  36,C  35)     57.7628         0.011133   
    576. D(C  38,C  37,C  36,H  90)     57.7433         0.011133   
    577. D(C  38,C  37,C  36,H  89)    -57.7994         0.011133   
    578. D(C  38,C  37,C  36,C  35)   -179.9668         0.011133   
    579. D(H  94,C  38,C  37,H  92)   -179.9939         0.011120   
    580. D(H  94,C  38,C  37,H  91)     64.5408         0.011120   
    581. D(H  94,C  38,C  37,C  36)    -57.7445         0.011120   
    582. D(H  93,C  38,C  37,H  92)    -64.5571         0.011120   
    583. D(H  93,C  38,C  37,H  91)    179.9776         0.011120   
    584. D(H  93,C  38,C  37,C  36)     57.6922         0.011120   
    585. D(C  39,C  38,C  37,H  92)     57.7157         0.011120   
    586. D(C  39,C  38,C  37,H  91)    -57.7496         0.011120   
    587. D(C  39,C  38,C  37,C  36)    179.9651         0.011120   
    588. D(H  95,C  39,C  38,H  94)    -64.5798         0.011131   
    589. D(H  95,C  39,C  38,H  93)    179.9614         0.011131   
    590. D(H  95,C  39,C  38,C  37)     57.7028         0.011131   
    591. D(C  40,C  39,C  38,H  94)     57.6992         0.011131   
    592. D(C  40,C  39,C  38,H  93)    -57.7595         0.011131   
    593. D(C  40,C  39,C  38,C  37)    179.9819         0.011131   
    594. D(H  96,C  39,C  38,H  94)    179.9724         0.011131   
    595. D(H  96,C  39,C  38,H  93)     64.5137         0.011131   
    596. D(H  96,C  39,C  38,C  37)    -57.7449         0.011131   
    597. D(H  98,C  40,C  39,H  95)     64.6472         0.011068   
    598. D(H  98,C  40,C  39,C  38)    -57.6764         0.011068   
    599. D(H  97,C  40,C  39,H  96)    -64.6637         0.011068   
    600. D(H  97,C  40,C  39,H  95)    179.9726         0.011068   
    601. D(H  97,C  40,C  39,C  38)     57.6490         0.011068   
    602. D(C  41,C  40,C  39,H  96)     57.6707         0.011068   
    603. D(C  41,C  40,C  39,H  95)    -57.6930         0.011068   
    604. D(H  98,C  40,C  39,H  96)   -179.9891         0.011068   
    605. D(C  41,C  40,C  39,C  38)    179.9834         0.011068   
    606. D(H 101,C  41,C  40,H  98)    -62.2892         0.011155   
    607. D(H 101,C  41,C  40,H  97)   -178.1888         0.011155   
    608. D(H 101,C  41,C  40,C  39)     59.7644         0.011155   
    609. D(H 100,C  41,C  40,H  98)    178.1738         0.011155   
    610. D(H 100,C  41,C  40,H  97)     62.2742         0.011155   
    611. D(H 100,C  41,C  40,C  39)    -59.7726         0.011155   
    612. D(H  99,C  41,C  40,H  98)     57.9454         0.011155   
    613. D(H  99,C  41,C  40,H  97)    -57.9541         0.011155   
    614. D(H  99,C  41,C  40,C  39)    179.9991         0.011155   
    615. D(H 102,O  43,C  17,H  65)   -146.9376         0.018890   
    616. D(H 102,O  43,C  17,C  18)     95.8805         0.018890   
    617. D(H 102,O  43,C  17,C  16)    -32.1389         0.018890   
    618. D(H 104,C  45,C  13,H  61)    175.3001         0.010864   
    619. D(H 104,C  45,C  13,C  14)    -69.6030         0.010864   
    620. D(H 104,C  45,C  13,N  12)     57.6498         0.010864   
    621. D(H 103,C  45,C  13,H  61)    -70.1476         0.010864   
    622. D(H 103,C  45,C  13,C  14)     44.9493         0.010864   
    623. D(H 103,C  45,C  13,N  12)    172.2021         0.010864   
    624. D(C  46,C  45,C  13,H  61)     51.9137         0.010864   
    625. D(C  46,C  45,C  13,C  14)    167.0106         0.010864   
    626. D(C  46,C  45,C  13,N  12)    -65.7366         0.010864   
    627. D(H 107,C  46,C  45,H 104)    -62.8402         0.011298   
    628. D(H 107,C  46,C  45,H 103)    179.5883         0.011298   
    629. D(H 107,C  46,C  45,C  13)     59.6398         0.011298   
    630. D(H 106,C  46,C  45,H 104)    177.3116         0.011298   
    631. D(H 106,C  46,C  45,H 103)     59.7401         0.011298   
    632. D(H 106,C  46,C  45,C  13)    -60.2084         0.011298   
    633. D(H 105,C  46,C  45,H 104)     57.3936         0.011298   
    634. D(H 105,C  46,C  45,H 103)    -60.1779         0.011298   
    635. D(H 105,C  46,C  45,C  13)    179.8736         0.011298   
    636. D(H 108,C  48,C  10,H  59)   -165.8906         0.009760   
    637. D(H 108,C  48,C  10,C  11)    -49.3843         0.009760   
    638. D(H 108,C  48,C  10,N   9)     79.0637         0.009760   
    639. D(C  50,C  48,C  10,H  59)    -45.5839         0.009760   
    640. D(C  50,C  48,C  10,C  11)     70.9224         0.009760   
    641. D(C  50,C  48,C  10,N   9)   -160.6297         0.009760   
    642. D(C  49,C  48,C  10,H  59)     76.4869         0.009760   
    643. D(C  49,C  48,C  10,C  11)   -167.0068         0.009760   
    644. D(C  49,C  48,C  10,N   9)    -38.5588         0.009760   
    645. D(H 111,C  49,C  48,C  50)     65.6749         0.010912   
    646. D(H 111,C  49,C  48,C  10)    -56.6768         0.010912   
    647. D(H 110,C  49,C  48,H 108)     65.6711         0.010912   
    648. D(H 110,C  49,C  48,C  50)    -53.4337         0.010912   
    649. D(H 110,C  49,C  48,C  10)   -175.7854         0.010912   
    650. D(H 109,C  49,C  48,H 108)    -54.5918         0.010912   
    651. D(H 109,C  49,C  48,C  50)   -173.6966         0.010912   
    652. D(H 111,C  49,C  48,H 108)   -175.2203         0.010912   
    653. D(H 109,C  49,C  48,C  10)     63.9517         0.010912   
    654. D(H 114,C  50,C  48,H 108)    -54.4816         0.010663   
    655. D(H 114,C  50,C  48,C  49)     62.7844         0.010663   
    656. D(H 114,C  50,C  48,C  10)   -173.9284         0.010663   
    657. D(H 113,C  50,C  48,H 108)   -173.2728         0.010663   
    658. D(H 113,C  50,C  48,C  49)    -56.0067         0.010663   
    659. D(H 113,C  50,C  48,C  10)     67.2804         0.010663   
    660. D(H 112,C  50,C  48,H 108)     66.8277         0.010663   
    661. D(H 112,C  50,C  48,C  49)   -175.9063         0.010663   
    662. D(H 112,C  50,C  48,C  10)    -52.6191         0.010663   
    -----------------------------------------------------------------

Number of atoms                         .... 115
Number of degrees of freedom            .... 662

         *************************************************************
         *                GEOMETRY OPTIMIZATION CYCLE   1            *
         *************************************************************
---------------------------------
CARTESIAN COORDINATES (ANGSTROEM)
---------------------------------
  O     -0.211570    0.148500   -3.102665
  C      0.389703   -0.903036   -3.397465
  C      0.205098   -2.209643   -2.589129
  C     -1.125301   -2.262799   -1.828516
  C     -0.782590   -2.997818   -0.525319
  C      0.614564   -2.471422   -0.192567
  N      1.228744   -2.307045   -1.527227
  C      2.523525   -2.551694   -1.862527
  O      2.871297   -2.734487   -3.041725
  N      1.243386   -1.018048   -4.429179
  C      1.592440    0.086164   -5.320831
  C      2.208815    1.241699   -4.483991
  N      1.646238    2.479609   -4.614917
  C      2.110555    3.627933   -3.852391
  C      1.480226    3.735244   -2.449309
  N      0.446280    2.889263   -2.199056
  C     -0.030364    2.687731   -0.843450
  C      0.978035    1.848610   -0.039352
  C      0.494994    1.485044    1.380514
  C      1.443576    0.442934    2.014984
  N      2.770615    0.709295    1.900734
  C      3.800578   -0.247119    2.307497
  C      3.787941   -1.550851    1.469098
  N      3.382626   -1.440930    0.174028
  C      3.549068   -2.583996   -0.724941
  C      4.973604   -2.663346   -1.272951
  O      4.225979   -2.600845    1.941246
  C      3.800254   -0.542604    3.816856
  C      5.190687   -0.856569    4.396372
  C      6.103505    0.375048    4.401191
  C      5.043324   -1.422503    5.812390
  O      1.013151   -0.576129    2.557353
  C     -0.909443    0.861437    1.434107
  C     -1.662167    1.037898    2.730939
  C     -2.909076    0.170649    2.856399
  C     -3.658553    0.397638    4.170476
  C     -4.902883   -0.481459    4.312659
  C     -5.657798   -0.262666    5.625506
  C     -6.901816   -1.142381    5.768151
  C     -7.657013   -0.924954    7.081089
  C     -8.902031   -1.804290    7.224600
  C     -9.648727   -1.578905    8.540686
  O     -1.375639    0.266084    0.474712
  O      1.378480    0.678611   -0.750724
  O      1.901891    4.562919   -1.638724
  C      1.908391    4.932231   -4.633486
  C      2.766331    5.018343   -5.894971
  O      3.177263    1.024088   -3.762809
  C      0.455750    0.447819   -6.309646
  C     -0.268007   -0.802273   -6.823121
  C      1.021099    1.241490   -7.497495
  H      0.330788   -3.062500   -3.275881
  H     -1.907107   -2.757224   -2.418266
  H     -1.452937   -1.238028   -1.608759
  H     -1.497745   -2.779769    0.276869
  H     -0.754285   -4.086832   -0.683311
  H      0.556986   -1.510800    0.330250
  H      1.210365   -3.157858    0.420196
  H      1.891104   -1.815052   -4.338761
  H      2.438493   -0.290008   -5.917907
  H      0.797686    2.578401   -5.162984
  H      3.183300    3.466407   -3.666285
  H      0.299809    2.104224   -2.838553
  H     -0.998151    2.176012   -0.896098
  H     -0.158692    3.664322   -0.355868
  H      1.884888    2.471032    0.050987
  H      0.506346    2.390204    2.013403
  H      3.057378    1.538450    1.391244
  H      4.754327    0.238995    2.044895
  H      2.905338   -0.599494   -0.162524
  H      3.359925   -3.485366   -0.113453
  H      5.675050   -2.717725   -0.431274
  H      5.095625   -3.554817   -1.899906
  H      5.196534   -1.780749   -1.885693
  H      3.118047   -1.379814    4.008707
  H      3.387129    0.339306    4.333932
  H      5.642913   -1.636012    3.762840
  H      6.245196    0.799982    3.395587
  H      5.685493    1.168198    5.042368
  H      7.102017    0.124069    4.787522
  H      4.437389   -2.339749    5.808571
  H      6.023369   -1.663321    6.249841
  H      4.550509   -0.693905    6.476861
  H     -1.917011    2.113728    2.804656
  H     -0.955133    0.847392    3.555319
  H     -2.610777   -0.886717    2.774226
  H     -3.575821    0.363679    2.001667
  H     -3.951716    1.459821    4.249465
  H     -2.978783    0.206600    5.019409
  H     -4.608679   -1.542684    4.232908
  H     -5.582688   -0.290988    3.463559
  H     -5.950876    0.799154    5.705637
  H     -4.976941   -0.453508    6.473752
  H     -6.608460   -2.204004    5.687576
  H     -7.582601   -0.951511    4.919716
  H     -7.950083    0.136936    7.162531
  H     -6.976542   -1.116255    7.929837
  H     -8.607174   -2.864390    7.142468
  H     -9.580307   -1.611845    6.375783
  H    -10.537315   -2.221693    8.618249
  H     -9.002467   -1.796023    9.404873
  H     -9.982665   -0.534068    8.632719
  H      0.625106    0.374260   -1.302185
  H      2.146711    5.755960   -3.946353
  H      0.837996    5.036153   -4.885150
  H      2.591351    5.964069   -6.426189
  H      3.835733    4.963282   -5.644454
  H      2.547617    4.197360   -6.593118
  H     -0.293859    1.056263   -5.773790
  H     -0.781875   -1.339952   -6.017570
  H     -1.016512   -0.520622   -7.577210
  H      0.441353   -1.498484   -7.296958
  H      1.613503    2.112755   -7.187495
  H      1.677396    0.596961   -8.102611
  H      0.210646    1.595833   -8.149422

----------------------------
CARTESIAN COORDINATES (A.U.)
----------------------------
  NO LB      ZA    FRAG     MASS         X           Y           Z
   0 O     8.0000    0    15.999   -0.399810    0.280624   -5.863187
   1 C     6.0000    0    12.011    0.736432   -1.706491   -6.420278
   2 C     6.0000    0    12.011    0.387580   -4.175620   -4.892744
   3 C     6.0000    0    12.011   -2.126510   -4.276070   -3.455394
   4 C     6.0000    0    12.011   -1.478881   -5.665055   -0.992709
   5 C     6.0000    0    12.011    1.161357   -4.670311   -0.363898
   6 N     7.0000    0    14.007    2.321989   -4.359684   -2.886041
   7 C     6.0000    0    12.011    4.768770   -4.822003   -3.519665
   8 O     8.0000    0    15.999    5.425965   -5.167432   -5.748026
   9 N     7.0000    0    14.007    2.349659   -1.923832   -8.369936
  10 C     6.0000    0    12.011    3.009275    0.162826  -10.054914
  11 C     6.0000    0    12.011    4.174056    2.346470   -8.473516
  12 N     7.0000    0    14.007    3.110939    4.685782   -8.720929
  13 C     6.0000    0    12.011    3.988370    6.855799   -7.279963
  14 C     6.0000    0    12.011    2.797222    7.058588   -4.628523
  15 N     7.0000    0    14.007    0.843347    5.459915   -4.155613
  16 C     6.0000    0    12.011   -0.057379    5.079076   -1.593890
  17 C     6.0000    0    12.011    1.848218    3.493367   -0.074365
  18 C     6.0000    0    12.011    0.935403    2.806327    2.608793
  19 C     6.0000    0    12.011    2.727963    0.837024    3.807769
  20 N     7.0000    0    14.007    5.235704    1.340374    3.591866
  21 C     6.0000    0    12.011    7.182052   -0.466987    4.360537
  22 C     6.0000    0    12.011    7.158172   -2.930684    2.776193
  23 N     7.0000    0    14.007    6.392238   -2.722962    0.328864
  24 C     6.0000    0    12.011    6.706767   -4.883046   -1.369941
  25 C     6.0000    0    12.011    9.398750   -5.032995   -2.405528
  26 O     8.0000    0    15.999    7.985944   -4.914885    3.668424
  27 C     6.0000    0    12.011    7.181439   -1.025373    7.212813
  28 C     6.0000    0    12.011    9.808978   -1.618681    8.307939
  29 C     6.0000    0    12.011   11.533953    0.708738    8.317046
  30 C     6.0000    0    12.011    9.530501   -2.688141   10.983825
  31 O     8.0000    0    15.999    1.914577   -1.088725    4.832697
  32 C     6.0000    0    12.011   -1.718598    1.627881    2.710069
  33 C     6.0000    0    12.011   -3.141041    1.961343    5.160727
  34 C     6.0000    0    12.011   -5.497357    0.322479    5.397812
  35 C     6.0000    0    12.011   -6.913663    0.751428    7.881058
  36 C     6.0000    0    12.011   -9.265105   -0.909826    8.149744
  37 C     6.0000    0    12.011  -10.691689   -0.496366   10.630667
  38 C     6.0000    0    12.011  -13.042542   -2.158787   10.900225
  39 C     6.0000    0    12.011  -14.469657   -1.747909   13.381319
  40 C     6.0000    0    12.011  -16.822401   -3.409615   13.652516
  41 C     6.0000    0    12.011  -18.233452   -2.983698   16.139557
  42 O     8.0000    0    15.999   -2.599582    0.502827    0.897076
  43 O     8.0000    0    15.999    2.604949    1.282389   -1.418663
  44 O     8.0000    0    15.999    3.594053    8.622667   -3.096739
  45 C     6.0000    0    12.011    3.606337    9.320565   -8.756021
  46 C     6.0000    0    12.011    5.227607    9.483295  -11.139881
  47 O     8.0000    0    15.999    6.004158    1.935245   -7.110679
  48 C     6.0000    0    12.011    0.861242    0.846255  -11.923504
  49 C     6.0000    0    12.011   -0.506460   -1.516075  -12.893831
  50 C     6.0000    0    12.011    1.929598    2.346075  -14.168212
  51 H     1.0000    0     1.008    0.625099   -5.787286   -6.190518
  52 H     1.0000    0     1.008   -3.603911   -5.210399   -4.569861
  53 H     1.0000    0     1.008   -2.745653   -2.339533   -3.040115
  54 H     1.0000    0     1.008   -2.830328   -5.253003    0.523206
  55 H     1.0000    0     1.008   -1.425392   -7.722993   -1.291270
  56 H     1.0000    0     1.008    1.052550   -2.854999    0.624081
  57 H     1.0000    0     1.008    2.287258   -5.967487    0.794056
  58 H     1.0000    0     1.008    3.573669   -3.429952   -8.199070
  59 H     1.0000    0     1.008    4.608084   -0.548036  -11.183223
  60 H     1.0000    0     1.008    1.507408    4.872473   -9.756626
  61 H     1.0000    0     1.008    6.015566    6.550559   -6.928274
  62 H     1.0000    0     1.008    0.566556    3.976407   -5.364088
  63 H     1.0000    0     1.008   -1.886232    4.112067   -1.693380
  64 H     1.0000    0     1.008   -0.299884    6.924566   -0.672493
  65 H     1.0000    0     1.008    3.561922    4.669573    0.096351
  66 H     1.0000    0     1.008    0.956855    4.516830    3.804780
  67 H     1.0000    0     1.008    5.777607    2.907249    2.629070
  68 H     1.0000    0     1.008    8.984376    0.451635    3.864292
  69 H     1.0000    0     1.008    5.490292   -1.132879   -0.307126
  70 H     1.0000    0     1.008    6.349338   -6.586387   -0.214396
  71 H     1.0000    0     1.008   10.724290   -5.135756   -0.814989
  72 H     1.0000    0     1.008    9.629335   -6.717631   -3.590301
  73 H     1.0000    0     1.008    9.820026   -3.365127   -3.563443
  74 H     1.0000    0     1.008    5.892254   -2.607471    7.575359
  75 H     1.0000    0     1.008    6.400746    0.641195    8.189944
  76 H     1.0000    0     1.008   10.663561   -3.091615    7.110737
  77 H     1.0000    0     1.008   11.801710    1.511747    6.416729
  78 H     1.0000    0     1.008   10.744025    2.207574    9.528695
  79 H     1.0000    0     1.008   13.420867    0.234457    9.047105
  80 H     1.0000    0     1.008    8.385449   -4.421485   10.976608
  81 H     1.0000    0     1.008   11.382519   -3.143221   11.810488
  82 H     1.0000    0     1.008    8.599217   -1.311291   12.239493
  83 H     1.0000    0     1.008   -3.622626    3.994366    5.300032
  84 H     1.0000    0     1.008   -1.804940    1.601338    6.718580
  85 H     1.0000    0     1.008   -4.933654   -1.675652    5.242528
  86 H     1.0000    0     1.008   -6.757323    0.687253    3.782603
  87 H     1.0000    0     1.008   -7.467661    2.758663    8.030325
  88 H     1.0000    0     1.008   -5.629084    0.390418    9.485308
  89 H     1.0000    0     1.008   -8.709142   -2.915249    7.999037
  90 H     1.0000    0     1.008  -10.549750   -0.549888    6.545179
  91 H     1.0000    0     1.008  -11.245526    1.510182   10.782092
  92 H     1.0000    0     1.008   -9.405056   -0.857005   12.233619
  93 H     1.0000    0     1.008  -12.488180   -4.164963   10.747960
  94 H     1.0000    0     1.008  -14.329040   -1.798094    9.296916
  95 H     1.0000    0     1.008  -15.023479    0.258771   13.535223
  96 H     1.0000    0     1.008  -13.183753   -2.109416   14.985220
  97 H     1.0000    0     1.008  -16.265202   -5.412913   13.497308
  98 H     1.0000    0     1.008  -18.104156   -3.045946   12.048484
  99 H     1.0000    0     1.008  -19.912639   -4.198391   16.286131
 100 H     1.0000    0     1.008  -17.012198   -3.393991   17.772633
 101 H     1.0000    0     1.008  -18.864503   -1.009242   16.313475
 102 H     1.0000    0     1.008    1.181278    0.707249   -2.460772
 103 H     1.0000    0     1.008    4.056697   10.877188   -7.457526
 104 H     1.0000    0     1.008    1.583582    9.516950   -9.231595
 105 H     1.0000    0     1.008    4.896943   11.270458  -12.143737
 106 H     1.0000    0     1.008    7.248486    9.379244  -10.666472
 107 H     1.0000    0     1.008    4.814299    7.931861  -12.459187
 108 H     1.0000    0     1.008   -0.555313    1.996048  -10.910883
 109 H     1.0000    0     1.008   -1.477530   -2.532142  -11.371560
 110 H     1.0000    0     1.008   -1.920929   -0.983833  -14.318853
 111 H     1.0000    0     1.008    0.834037   -2.831724  -13.789252
 112 H     1.0000    0     1.008    3.049080    3.992528  -13.582397
 113 H     1.0000    0     1.008    3.169820    1.128092  -15.311715
 114 H     1.0000    0     1.008    0.398064    3.015688  -15.400175

--------------------------------
INTERNAL COORDINATES (ANGSTROEM)
--------------------------------
 O      0   0   0     0.000000000000     0.00000000     0.00000000
 C      1   0   0     1.246661060733     0.00000000     0.00000000
 C      2   1   0     1.547484230765   122.08181017     0.00000000
 C      3   2   1     1.533401173029   113.07112213    23.54070665
 C      4   3   2     1.534935072105   104.12429749   215.58914861
 C      5   4   3     1.529658679623   102.93441332    37.37465445
 N      3   2   1     1.478164957222   110.38217312   267.49439520
 C      7   3   2     1.359682337505   119.61407320   288.79746873
 O      8   7   3     1.242926762830   121.79385701   357.95826881
 N      2   1   3     1.344037605901   124.05875092   179.81094352
 C     10   2   1     1.461562659828   123.73438638     1.19510244
 C     11  10   2     1.554181584537   109.14397563    58.78395003
 N     12  11  10     1.366036808345   117.31159865   233.92349242
 C     13  12  11     1.454538995266   122.25703769   178.06549825
 C     14  13  12     1.541903780767   113.67128597   275.19074116
 N     15  14  13     1.359174750144   115.79840442   350.15164122
 C     16  15  14     1.451023620043   120.55383500   166.37768365
 C     17  16  15     1.538689850440   110.40695759   287.30958346
 C     18  17  16     1.543219929636   113.83841586   184.87624664
 C     19  18  17     1.545430073224   110.14932617   169.87058209
 N     20  19  18     1.358320715644   115.65173901    46.87481683
 C     21  20  19     1.463218441585   122.42083427   187.25242337
 C     22  21  20     1.550093638213   113.18224385    64.14051322
 N     23  22  21     1.361458938059   116.68057400    31.07228160
 C     24  23  22     1.463710961416   119.16445248   170.37638504
 C     25  24  23     1.528369684798   111.51517762   278.44611032
 O     23  22  21     1.231782314966   120.44583262   205.62211488
 C     22  21  20     1.538010962274   113.46837346   295.54828707
 C     28  22  21     1.538738989913   114.11763720   211.81818371
 C     29  28  22     1.533016456745   112.04338778    68.88609565
 C     29  28  22     1.532026278742   109.66707007   192.04900343
 O     20  19  18     1.232038415786   121.60405384   228.60278300
 C     19  18  17     1.537595280874   114.42609664    50.80231378
 C     33  19  18     1.509803414865   115.97114179   205.67766740
 C     34  33  19     1.524022049095   114.33716551   192.23894580
 C     35  34  33     1.529718564917   112.77633174   181.12699081
 C     36  35  34     1.530158471845   113.14100590   180.69932396
 C     37  36  35     1.530143026538   113.50189305   179.90679949
 C     38  37  36     1.530302683085   113.50584430   180.03317167
 C     39  38  37     1.530164765828   113.54726354   179.96508437
 C     40  39  38     1.530979770255   113.58893172   179.98185941
 C     41  40  39     1.529848241734   113.13761642   179.98339287
 O     33  19  18     1.221565840823   121.25693852    25.43512186
 O     18  17  16     1.426640974718   111.75376617   311.19893002
 O     15  14  13     1.232840642355   120.34475270   171.18337962
 C     14  13  12     1.533679898306   111.24328980   149.67977587
 C     46  14  13     1.528011443409   113.22707219   294.26342323
 O     12  11  10     1.226927054149   119.84573597    55.23012444
 C     11  10   2     1.549391760091   112.98441336   286.14655931
 C     49  11  10     1.533039093805   111.70171914   321.44117455
 C     49  11  10     1.536397522704   110.12293308   199.37034858
 H      3   2   1     1.102175569133   108.31677413   148.81160907
 H      4   3   2     1.097034605862   111.54752854    92.73411699
 H      4   3   2     1.098086474656   109.01333767   333.07055279
 H      5   4   3     1.096583920308   112.34977374   157.55990913
 H      5   4   3     1.100778527969   110.95443792   279.30802108
 H      6   5   4     1.095192563239   110.95702852    83.27923042
 H      6   5   4     1.096198771701   113.73720582   205.43410801
 H     10   2   1     1.030985101055   113.44523790   159.40708098
 H     11  10   2     1.101730360227   104.83671306   169.63771661
 H     13  12  11     1.014976962352   118.96417081     6.66443641
 H     14  13  12     1.100685930767   106.49306162    30.01978964
 H     16  15  14     1.023081811200   118.12665959    14.46598814
 H     17  16  15     1.096011058416   108.06084683   166.43353911
 H     17  16  15     1.099060876927   109.23264545    47.43341083
 H     18  17  16     1.103608726242   105.88633370    65.95989569
 H     19  18  17     1.104532444147   109.32405029   288.54150716
 H     21  20  19     1.014549041743   118.59680404   357.97194373
 H     22  21  20     1.102226692471   104.74858967   177.28043025
 H     24  23  22     1.024248901689   121.17251778   346.01440949
 H     25  24  23     1.105513063139   106.11468270    36.27643632
 H     26  25  24     1.096997586138   108.87171760    57.07934892
 H     26  25  24     1.096668487340   110.54197340   176.90399382
 H     26  25  24     1.097328363963   110.35362339   296.53223850
 H     28  22  21     1.096874941834   108.56741324    88.87444469
 H     28  22  21     1.102635082881   107.85598080   333.04905965
 H     29  28  22     1.101545241335   107.38211652   309.20962577
 H     30  29  28     1.100857114601   112.57420485   301.76428418
 H     30  29  28     1.102237776981   110.73970323    62.27050873
 H     30  29  28     1.099667073653   111.00264473   181.86293693
 H     31  29  28     1.099323706664   110.97901276    59.24456757
 H     31  29  28     1.099930075508   111.27009115   179.59823917
 H     31  29  28     1.102380193436   110.85287310   299.37175901
 H     34  33  19     1.108056306152   106.57590727    69.17606539
 H     34  33  19     1.102629825260   107.59611687   316.53271881
 H     35  34  33     1.101706329959   108.57114219    59.18232201
 H     35  34  33     1.101079622970   109.37615840   304.03723076
 H     36  35  34     1.104724737819   109.51849982    58.54568883
 H     36  35  34     1.104204912671   109.45992886   302.79818538
 H     37  36  35     1.104134283278   109.19550085    57.66963333
 H     37  36  35     1.104257016434   109.27362143   302.23931599
 H     38  37  36     1.104434948134   109.30780931    57.76282686
 H     38  37  36     1.104313134758   109.27787776   302.28619542
 H     39  38  37     1.104351933497   109.26140026    57.69224531
 H     39  38  37     1.104419101367   109.27746462   302.25548804
 H     40  39  38     1.104595848564   109.31786743    57.70279811
 H     40  39  38     1.104540480042   109.30924138   302.25505934
 H     41  40  39     1.103402696448   109.11904308    57.64902789
 H     41  40  39     1.103441332938   109.12306807   302.32361669
 H     42  41  40     1.099445339845   111.65606472   179.99906014
 H     42  41  40     1.100731848247   111.08655313   300.22742302
 H     42  41  40     1.100758750952   111.09024549    59.76442061
 H     44  18  17     0.981993241605   108.59364406   327.86111191
 H     46  14  13     1.098853779801   106.88486135   172.20210517
 H     46  14  13     1.104482218172   108.89367021    57.64978627
 H     47  46  14     1.098730308253   110.99217099   179.87362596
 H     47  46  14     1.099732984582   110.79980569   299.79163497
 H     47  46  14     1.099662381930   111.73953862    59.63982984
 H     49  11  10     1.104200992761   108.47881811    79.06367063
 H     50  49  11     1.096390547394   112.02909361    63.95168404
 H     50  49  11     1.099198105324   110.01844625   184.21457682
 H     50  49  11     1.101100992359   110.82884320   303.32318701
 H     51  49  11     1.098246398579   112.95880218   307.38087826
 H     51  49  11     1.101048909454   109.98924417    67.28040457
 H     51  49  11     1.098818422153   110.72500581   186.07158220

---------------------------
INTERNAL COORDINATES (A.U.)
---------------------------
 O      0   0   0     0.000000000000     0.00000000     0.00000000
 C      1   0   0     2.355847986610     0.00000000     0.00000000
 C      2   1   0     2.924321392708   122.08181017     0.00000000
 C      3   2   1     2.897708270459   113.07112213    23.54070665
 C      4   3   2     2.900606919629   104.12429749   215.58914861
 C      5   4   3     2.890635982864   102.93441332    37.37465445
 N      3   2   1     2.793326949908   110.38217312   267.49439520
 C      7   3   2     2.569427247015   119.61407320   288.79746873
 O      8   7   3     2.348791186269   121.79385701   357.95826881
 N      2   1   3     2.539862988844   124.05875092   179.81094352
 C     10   2   1     2.761953154640   123.73438638     1.19510244
 C     11  10   2     2.936977557158   109.14397563    58.78395003
 N     12  11  10     2.581435456627   117.31159865   233.92349242
 C     13  12  11     2.748680352162   122.25703769   178.06549825
 C     14  13  12     2.913775870507   113.67128597   275.19074116
 N     15  14  13     2.568468045914   115.79840442   350.15164122
 C     16  15  14     2.742037255732   120.55383500   166.37768365
 C     17  16  15     2.907702422376   110.40695759   287.30958346
 C     18  17  16     2.916263031421   113.83841586   184.87624664
 C     19  18  17     2.920439597519   110.14932617   169.87058209
 N     20  19  18     2.566854154600   115.65173901    46.87481683
 C     21  20  19     2.765082128699   122.42083427   187.25242337
 C     22  21  20     2.929252458157   113.18224385    64.14051322
 N     23  22  21     2.572784535511   116.68057400    31.07228160
 C     24  23  22     2.766012856295   119.16445248   170.37638504
 C     25  24  23     2.888200135656   111.51517762   278.44611032
 O     23  22  21     2.327731231893   120.44583262   205.62211488
 C     22  21  20     2.906419509666   113.46837346   295.54828707
 C     28  22  21     2.907795282523   114.11763720   211.81818371
 C     29  28  22     2.896981262043   112.04338778    68.88609565
 C     29  28  22     2.895110096793   109.66707007   192.04900343
 O     20  19  18     2.328215192306   121.60405384   228.60278300
 C     19  18  17     2.905633985661   114.42609664    50.80231378
 C     33  19  18     2.853114970153   115.97114179   205.67766740
 C     34  33  19     2.879984294847   114.33716551   192.23894580
 C     35  34  33     2.890749149668   112.77633174   181.12699081
 C     36  35  34     2.891580453286   113.14100590   180.69932396
 C     37  36  35     2.891551265887   113.50189305   179.90679949
 C     38  37  36     2.891852973036   113.50584430   180.03317167
 C     39  38  37     2.891592347191   113.54726354   179.96508437
 C     40  39  38     2.893132482355   113.58893172   179.98185941
 C     41  40  39     2.890994203338   113.13761642   179.98339287
 O     33  19  18     2.308424893709   121.25693852    25.43512186
 O     18  17  16     2.695960733648   111.75376617   311.19893002
 O     15  14  13     2.329731180819   120.34475270   171.18337962
 C     14  13  12     2.898234984898   111.24328980   149.67977587
 C     46  14  13     2.887523157541   113.22707219   294.26342323
 O     12  11  10     2.318556118641   119.84573597    55.23012444
 C     11  10   2     2.927926100726   112.98441336   286.14655931
 C     49  11  10     2.897024039886   111.70171914   321.44117455
 C     49  11  10     2.903370550746   110.12293308   199.37034858
 H      3   2   1     2.082809977161   108.31677413   148.81160907
 H      4   3   2     2.073094964513   111.54752854    92.73411699
 H      4   3   2     2.075082708463   109.01333767   333.07055279
 H      5   4   3     2.072243292245   112.34977374   157.55990913
 H      5   4   3     2.080169951962   110.95443792   279.30802108
 H      6   5   4     2.069614008430   110.95702852    83.27923042
 H      6   5   4     2.071515466855   113.73720582   205.43410801
 H     10   2   1     1.948279489147   113.44523790   159.40708098
 H     11  10   2     2.081968654255   104.83671306   169.63771661
 H     13  12  11     1.918028491085   118.96417081     6.66443641
[...]
freq.      87.07  E(vib)   ...       0.48 
freq.      88.06  E(vib)   ...       0.48 
freq.      96.19  E(vib)   ...       0.47 
freq.     103.80  E(vib)   ...       0.46 
freq.     104.89  E(vib)   ...       0.46 
freq.     106.99  E(vib)   ...       0.45 
freq.     112.29  E(vib)   ...       0.45 
freq.     115.36  E(vib)   ...       0.44 
freq.     118.99  E(vib)   ...       0.44 
freq.     125.11  E(vib)   ...       0.43 
freq.     128.03  E(vib)   ...       0.43 
freq.     138.12  E(vib)   ...       0.42 
freq.     139.91  E(vib)   ...       0.41 
freq.     145.92  E(vib)   ...       0.41 
freq.     152.83  E(vib)   ...       0.40 
freq.     154.53  E(vib)   ...       0.40 
freq.     155.36  E(vib)   ...       0.40 
freq.     160.68  E(vib)   ...       0.39 
freq.     169.75  E(vib)   ...       0.38 
freq.     174.02  E(vib)   ...       0.38 
freq.     184.62  E(vib)   ...       0.37 
freq.     191.59  E(vib)   ...       0.36 
freq.     193.63  E(vib)   ...       0.36 
freq.     204.16  E(vib)   ...       0.35 
freq.     206.25  E(vib)   ...       0.35 
freq.     214.74  E(vib)   ...       0.34 
freq.     222.14  E(vib)   ...       0.33 
freq.     227.43  E(vib)   ...       0.33 
freq.     230.30  E(vib)   ...       0.32 
freq.     236.24  E(vib)   ...       0.32 
freq.     237.24  E(vib)   ...       0.32 
freq.     237.96  E(vib)   ...       0.32 
freq.     241.81  E(vib)   ...       0.31 
freq.     250.66  E(vib)   ...       0.30 
freq.     258.15  E(vib)   ...       0.30 
freq.     271.82  E(vib)   ...       0.29 
freq.     276.70  E(vib)   ...       0.28 
freq.     280.55  E(vib)   ...       0.28 
freq.     289.28  E(vib)   ...       0.27 
freq.     295.19  E(vib)   ...       0.27 
freq.     306.51  E(vib)   ...       0.26 
freq.     308.37  E(vib)   ...       0.26 
freq.     317.07  E(vib)   ...       0.25 
freq.     321.99  E(vib)   ...       0.25 
freq.     328.04  E(vib)   ...       0.24 
freq.     337.01  E(vib)   ...       0.24 
freq.     341.85  E(vib)   ...       0.23 
freq.     342.83  E(vib)   ...       0.23 
freq.     365.40  E(vib)   ...       0.22 
freq.     374.70  E(vib)   ...       0.21 
freq.     378.58  E(vib)   ...       0.21 
freq.     384.09  E(vib)   ...       0.20 
freq.     386.67  E(vib)   ...       0.20 
freq.     399.47  E(vib)   ...       0.19 
freq.     404.10  E(vib)   ...       0.19 
freq.     406.53  E(vib)   ...       0.19 
freq.     426.61  E(vib)   ...       0.18 
freq.     436.32  E(vib)   ...       0.17 
freq.     442.98  E(vib)   ...       0.17 
freq.     449.70  E(vib)   ...       0.17 
freq.     454.97  E(vib)   ...       0.16 
freq.     458.97  E(vib)   ...       0.16 
freq.     470.54  E(vib)   ...       0.15 
freq.     478.12  E(vib)   ...       0.15 
freq.     483.93  E(vib)   ...       0.15 
freq.     487.86  E(vib)   ...       0.15 
freq.     525.33  E(vib)   ...       0.13 
freq.     527.54  E(vib)   ...       0.13 
freq.     533.08  E(vib)   ...       0.13 
freq.     543.51  E(vib)   ...       0.12 
freq.     559.18  E(vib)   ...       0.12 
freq.     572.39  E(vib)   ...       0.11 
freq.     601.58  E(vib)   ...       0.10 
freq.     613.16  E(vib)   ...       0.10 
freq.     623.78  E(vib)   ...       0.09 
freq.     630.06  E(vib)   ...       0.09 
freq.     634.36  E(vib)   ...       0.09 
freq.     639.38  E(vib)   ...       0.09 
freq.     656.01  E(vib)   ...       0.08 
freq.     687.57  E(vib)   ...       0.07 
freq.     701.90  E(vib)   ...       0.07 
freq.     711.71  E(vib)   ...       0.07 
freq.     713.68  E(vib)   ...       0.07 
freq.     714.39  E(vib)   ...       0.07 
freq.     722.17  E(vib)   ...       0.07 
freq.     726.29  E(vib)   ...       0.06 
freq.     744.62  E(vib)   ...       0.06 
freq.     749.06  E(vib)   ...       0.06 
freq.     760.98  E(vib)   ...       0.06 
freq.     766.08  E(vib)   ...       0.06 
freq.     778.47  E(vib)   ...       0.05 
freq.     781.49  E(vib)   ...       0.05 
freq.     787.48  E(vib)   ...       0.05 
freq.     803.83  E(vib)   ...       0.05 
freq.     810.00  E(vib)   ...       0.05 
freq.     821.43  E(vib)   ...       0.05 
freq.     831.61  E(vib)   ...       0.04 
freq.     834.05  E(vib)   ...       0.04 
freq.     840.41  E(vib)   ...       0.04 
freq.     857.88  E(vib)   ...       0.04 
freq.     861.25  E(vib)   ...       0.04 
freq.     864.23  E(vib)   ...       0.04 
freq.     875.78  E(vib)   ...       0.04 
freq.     877.66  E(vib)   ...       0.04 
freq.     882.53  E(vib)   ...       0.04 
freq.     887.09  E(vib)   ...       0.04 
freq.     893.48  E(vib)   ...       0.03 
freq.     898.73  E(vib)   ...       0.03 
freq.     902.19  E(vib)   ...       0.03 
freq.     913.05  E(vib)   ...       0.03 
freq.     918.72  E(vib)   ...       0.03 
freq.     922.57  E(vib)   ...       0.03 
freq.     923.43  E(vib)   ...       0.03 
freq.     933.72  E(vib)   ...       0.03 
freq.     937.23  E(vib)   ...       0.03 
freq.     939.33  E(vib)   ...       0.03 
freq.     941.79  E(vib)   ...       0.03 
freq.     954.08  E(vib)   ...       0.03 
freq.     957.55  E(vib)   ...       0.03 
freq.     963.58  E(vib)   ...       0.03 
freq.     975.86  E(vib)   ...       0.03 
freq.     979.13  E(vib)   ...       0.03 
freq.     983.86  E(vib)   ...       0.02 
freq.     986.69  E(vib)   ...       0.02 
freq.     991.28  E(vib)   ...       0.02 
freq.    1004.36  E(vib)   ...       0.02 
freq.    1013.57  E(vib)   ...       0.02 
freq.    1016.34  E(vib)   ...       0.02 
freq.    1021.17  E(vib)   ...       0.02 
freq.    1023.61  E(vib)   ...       0.02 
freq.    1038.69  E(vib)   ...       0.02 
freq.    1040.46  E(vib)   ...       0.02 
freq.    1044.79  E(vib)   ...       0.02 
freq.    1048.63  E(vib)   ...       0.02 
freq.    1050.47  E(vib)   ...       0.02 
freq.    1051.28  E(vib)   ...       0.02 
freq.    1053.04  E(vib)   ...       0.02 
freq.    1063.77  E(vib)   ...       0.02 
freq.    1071.79  E(vib)   ...       0.02 
freq.    1077.32  E(vib)   ...       0.02 
freq.    1087.97  E(vib)   ...       0.02 
freq.    1090.17  E(vib)   ...       0.02 
freq.    1092.48  E(vib)   ...       0.02 
freq.    1100.57  E(vib)   ...       0.02 
freq.    1102.61  E(vib)   ...       0.02 
freq.    1108.40  E(vib)   ...       0.02 
freq.    1111.91  E(vib)   ...       0.01 
freq.    1115.02  E(vib)   ...       0.01 
freq.    1118.80  E(vib)   ...       0.01 
freq.    1124.20  E(vib)   ...       0.01 
freq.    1129.50  E(vib)   ...       0.01 
freq.    1133.31  E(vib)   ...       0.01 
freq.    1139.48  E(vib)   ...       0.01 
freq.    1154.17  E(vib)   ...       0.01 
freq.    1156.62  E(vib)   ...       0.01 
freq.    1168.48  E(vib)   ...       0.01 
freq.    1171.11  E(vib)   ...       0.01 
freq.    1176.35  E(vib)   ...       0.01 
freq.    1177.31  E(vib)   ...       0.01 
freq.    1192.70  E(vib)   ...       0.01 
freq.    1193.01  E(vib)   ...       0.01 
freq.    1197.62  E(vib)   ...       0.01 
freq.    1204.77  E(vib)   ...       0.01 
freq.    1210.86  E(vib)   ...       0.01 
freq.    1215.06  E(vib)   ...       0.01 
freq.    1225.67  E(vib)   ...       0.01 
freq.    1227.88  E(vib)   ...       0.01 
freq.    1231.15  E(vib)   ...       0.01 
freq.    1232.01  E(vib)   ...       0.01 
freq.    1235.46  E(vib)   ...       0.01 
freq.    1240.16  E(vib)   ...       0.01 
freq.    1240.81  E(vib)   ...       0.01 
freq.    1250.15  E(vib)   ...       0.01 
freq.    1251.15  E(vib)   ...       0.01 
freq.    1254.62  E(vib)   ...       0.01 
freq.    1266.12  E(vib)   ...       0.01 
freq.    1268.31  E(vib)   ...       0.01 
freq.    1272.87  E(vib)   ...       0.01 
freq.    1273.95  E(vib)   ...       0.01 
freq.    1274.82  E(vib)   ...       0.01 
freq.    1282.87  E(vib)   ...       0.01 
freq.    1286.73  E(vib)   ...       0.01 
freq.    1288.30  E(vib)   ...       0.01 
freq.    1289.09  E(vib)   ...       0.01 
freq.    1293.73  E(vib)   ...       0.01 
freq.    1294.45  E(vib)   ...       0.01 
freq.    1296.07  E(vib)   ...       0.01 
freq.    1301.32  E(vib)   ...       0.01 
freq.    1303.56  E(vib)   ...       0.01 
freq.    1310.65  E(vib)   ...       0.01 
freq.    1312.30  E(vib)   ...       0.01 
freq.    1313.13  E(vib)   ...       0.01 
freq.    1313.83  E(vib)   ...       0.01 
freq.    1321.81  E(vib)   ...       0.01 
freq.    1324.43  E(vib)   ...       0.01 
freq.    1324.83  E(vib)   ...       0.01 
freq.    1325.03  E(vib)   ...       0.01 
freq.    1329.05  E(vib)   ...       0.01 
freq.    1331.65  E(vib)   ...       0.01 
freq.    1334.21  E(vib)   ...       0.01 
freq.    1337.58  E(vib)   ...       0.01 
freq.    1340.00  E(vib)   ...       0.01 
freq.    1346.99  E(vib)   ...       0.01 
freq.    1350.06  E(vib)   ...       0.01 
freq.    1350.45  E(vib)   ...       0.01 
freq.    1352.40  E(vib)   ...       0.01 
freq.    1353.26  E(vib)   ...       0.01 
freq.    1355.00  E(vib)   ...       0.01 
freq.    1357.70  E(vib)   ...       0.01 
freq.    1363.85  E(vib)   ...       0.01 
freq.    1364.59  E(vib)   ...       0.01 
freq.    1369.92  E(vib)   ...       0.01 
freq.    1375.31  E(vib)   ...       0.01 
freq.    1388.01  E(vib)   ...       0.00 
freq.    1389.80  E(vib)   ...       0.00 
freq.    1398.00  E(vib)   ...       0.00 
freq.    1423.98  E(vib)   ...       0.00 
freq.    1424.20  E(vib)   ...       0.00 
freq.    1433.37  E(vib)   ...       0.00 
freq.    1433.74  E(vib)   ...       0.00 
freq.    1437.11  E(vib)   ...       0.00 
freq.    1437.22  E(vib)   ...       0.00 
freq.    1437.41  E(vib)   ...       0.00 
freq.    1439.08  E(vib)   ...       0.00 
freq.    1439.21  E(vib)   ...       0.00 
freq.    1439.53  E(vib)   ...       0.00 
freq.    1442.05  E(vib)   ...       0.00 
freq.    1443.04  E(vib)   ...       0.00 
freq.    1444.05  E(vib)   ...       0.00 
freq.    1445.51  E(vib)   ...       0.00 
freq.    1445.61  E(vib)   ...       0.00 
freq.    1447.70  E(vib)   ...       0.00 
freq.    1448.61  E(vib)   ...       0.00 
freq.    1451.00  E(vib)   ...       0.00 
freq.    1453.09  E(vib)   ...       0.00 
freq.    1454.07  E(vib)   ...       0.00 
freq.    1455.09  E(vib)   ...       0.00 
freq.    1455.94  E(vib)   ...       0.00 
freq.    1459.39  E(vib)   ...       0.00 
freq.    1460.17  E(vib)   ...       0.00 
freq.    1463.09  E(vib)   ...       0.00 
freq.    1464.83  E(vib)   ...       0.00 
freq.    1465.15  E(vib)   ...       0.00 
freq.    1472.27  E(vib)   ...       0.00 
freq.    1483.64  E(vib)   ...       0.00 
freq.    1496.32  E(vib)   ...       0.00 
freq.    1509.47  E(vib)   ...       0.00 
freq.    1533.26  E(vib)   ...       0.00 
freq.    1615.86  E(vib)   ...       0.00 
freq.    1649.94  E(vib)   ...       0.00 
freq.    1663.18  E(vib)   ...       0.00 
freq.    1671.62  E(vib)   ...       0.00 
freq.    1678.11  E(vib)   ...       0.00 
freq.    1688.52  E(vib)   ...       0.00 
freq.    1711.20  E(vib)   ...       0.00 
freq.    2917.69  E(vib)   ...       0.00 
freq.    2924.66  E(vib)   ...       0.00 
freq.    2925.92  E(vib)   ...       0.00 
freq.    2926.57  E(vib)   ...       0.00 
freq.    2932.10  E(vib)   ...       0.00 
freq.    2934.55  E(vib)   ...       0.00 
freq.    2936.89  E(vib)   ...       0.00 
freq.    2939.49  E(vib)   ...       0.00 
freq.    2940.67  E(vib)   ...       0.00 
freq.    2941.59  E(vib)   ...       0.00 
freq.    2942.23  E(vib)   ...       0.00 
freq.    2944.54  E(vib)   ...       0.00 
freq.    2946.69  E(vib)   ...       0.00 
freq.    2946.77  E(vib)   ...       0.00 
freq.    2949.47  E(vib)   ...       0.00 
freq.    2954.32  E(vib)   ...       0.00 
freq.    2955.54  E(vib)   ...       0.00 
freq.    2956.47  E(vib)   ...       0.00 
freq.    2956.76  E(vib)   ...       0.00 
freq.    2959.31  E(vib)   ...       0.00 
freq.    2962.24  E(vib)   ...       0.00 
freq.    2965.87  E(vib)   ...       0.00 
freq.    2966.33  E(vib)   ...       0.00 
freq.    2966.45  E(vib)   ...       0.00 
freq.    2966.48  E(vib)   ...       0.00 
freq.    2970.22  E(vib)   ...       0.00 
freq.    2974.48  E(vib)   ...       0.00 
freq.    2977.24  E(vib)   ...       0.00 
freq.    2977.74  E(vib)   ...       0.00 
freq.    2980.53  E(vib)   ...       0.00 
freq.    2981.71  E(vib)   ...       0.00 
freq.    2987.80  E(vib)   ...       0.00 
freq.    2988.05  E(vib)   ...       0.00 
freq.    2997.17  E(vib)   ...       0.00 
freq.    2998.21  E(vib)   ...       0.00 
freq.    3005.40  E(vib)   ...       0.00 
freq.    3007.98  E(vib)   ...       0.00 
freq.    3008.53  E(vib)   ...       0.00 
freq.    3014.54  E(vib)   ...       0.00 
freq.    3015.79  E(vib)   ...       0.00 
freq.    3020.12  E(vib)   ...       0.00 
freq.    3021.19  E(vib)   ...       0.00 
freq.    3023.69  E(vib)   ...       0.00 
freq.    3025.90  E(vib)   ...       0.00 
freq.    3027.51  E(vib)   ...       0.00 
freq.    3030.10  E(vib)   ...       0.00 
freq.    3031.38  E(vib)   ...       0.00 
freq.    3036.54  E(vib)   ...       0.00 
freq.    3038.53  E(vib)   ...       0.00 
freq.    3042.07  E(vib)   ...       0.00 
freq.    3044.05  E(vib)   ...       0.00 
freq.    3045.65  E(vib)   ...       0.00 
freq.    3055.51  E(vib)   ...       0.00 
freq.    3057.63  E(vib)   ...       0.00 
freq.    3063.58  E(vib)   ...       0.00 
freq.    3066.22  E(vib)   ...       0.00 
freq.    3068.89  E(vib)   ...       0.00 
freq.    3073.78  E(vib)   ...       0.00 
freq.    3266.70  E(vib)   ...       0.00 
freq.    3375.53  E(vib)   ...       0.00 
freq.    3388.02  E(vib)   ...       0.00 
freq.    3505.75  E(vib)   ...       0.00 
freq.    3513.74  E(vib)   ...       0.00 
freq.    3517.36  E(vib)   ...       0.00 

------------
INNER ENERGY
------------

The inner energy is: U= E(el) + E(ZPE) + E(vib) + E(rot) + E(trans)
    E(el)   - is the total energy from the electronic structure calculation
              = E(kin-el) + E(nuc-el) + E(el-el) + E(nuc-nuc)
    E(ZPE)  - the the zero temperature vibrational energy from the frequency calculation
    E(vib)  - the the finite temperature correction to E(ZPE) due to population
              of excited vibrational states
    E(rot)  - is the rotational thermal energy
    E(trans)- is the translational thermal energy

Summary of contributions to the inner energy U:
Electronic energy                ...  -2380.07483715 Eh
Zero point energy                ...      0.97641858 Eh     612.71 kcal/mol
Thermal vibrational correction   ...      0.05600628 Eh      35.14 kcal/mol
Thermal rotational correction    ...      0.00141627 Eh       0.89 kcal/mol
Thermal translational correction ...      0.00141627 Eh       0.89 kcal/mol
-----------------------------------------------------------------------
Total thermal energy                  -2379.03957975 Eh


Summary of corrections to the electronic energy:
(perhaps to be used in another calculation)
Total thermal correction                  0.05883882 Eh      36.92 kcal/mol
Non-thermal (ZPE) correction              0.97641858 Eh     612.71 kcal/mol
-----------------------------------------------------------------------
Total correction                          1.03525740 Eh     649.63 kcal/mol


--------
ENTHALPY
--------

The enthalpy is H = U + kB*T
                kB is Boltzmann's constant
Total free energy                 ...  -2379.03957975 Eh 
Thermal Enthalpy correction       ...      0.00094421 Eh       0.59 kcal/mol
-----------------------------------------------------------------------
Total Enthalpy                    ...  -2379.03863554 Eh


Note: Only C1 symmetry has been detected, increase convergence thresholds 
      if your molecule has a higher symmetry. Symmetry factor of 1.0 is   
      used for the rotational entropy correction. 
 

Note: Rotational entropy computed according to Herzberg 
Infrared and Raman Spectra, Chapter V,1, Van Nostrand Reinhold, 1945 
Point Group:  C1, Symmetry Number:   1  
Rotational constants in cm-1:     0.001995     0.000951     0.000808 

Vibrational entropy computed according to the QRRHO of S. Grimme
Chem.Eur.J. 2012 18 9955


-------
ENTROPY
-------

The entropy contributions are T*S = T*(S(el)+S(vib)+S(rot)+S(trans))
     S(el)   - electronic entropy
     S(vib)  - vibrational entropy
     S(rot)  - rotational entropy
     S(trans)- translational entropy
The entropies will be listed as mutliplied by the temperature to get
units of energy

Electronic entropy                ...      0.00000000 Eh      0.00 kcal/mol
Vibrational entropy               ...      0.10355243 Eh     64.98 kcal/mol
Rotational entropy                ...      0.01909251 Eh     11.98 kcal/mol
Translational entropy             ...      0.02166895 Eh     13.60 kcal/mol
-----------------------------------------------------------------------
Final entropy term                ...      0.14431388 Eh     90.56 kcal/mol

In case the symmetry of your molecule has not been determined correctly
or in case you have a reason to use a different symmetry number we print 
out the resulting rotational entropy values for sn=1,12 :
 --------------------------------------------------------
|  sn= 1 | S(rot)=       0.01909251 Eh     11.98 kcal/mol|
|  sn= 2 | S(rot)=       0.01843805 Eh     11.57 kcal/mol|
|  sn= 3 | S(rot)=       0.01805522 Eh     11.33 kcal/mol|
|  sn= 4 | S(rot)=       0.01778359 Eh     11.16 kcal/mol|
|  sn= 5 | S(rot)=       0.01757291 Eh     11.03 kcal/mol|
|  sn= 6 | S(rot)=       0.01740076 Eh     10.92 kcal/mol|
|  sn= 7 | S(rot)=       0.01725522 Eh     10.83 kcal/mol|
|  sn= 8 | S(rot)=       0.01712914 Eh     10.75 kcal/mol|
|  sn= 9 | S(rot)=       0.01701793 Eh     10.68 kcal/mol|
|  sn=10 | S(rot)=       0.01691845 Eh     10.62 kcal/mol|
|  sn=11 | S(rot)=       0.01682846 Eh     10.56 kcal/mol|
|  sn=12 | S(rot)=       0.01674631 Eh     10.51 kcal/mol|
 --------------------------------------------------------


-------------------
GIBBS FREE ENERGY
-------------------

The Gibbs free energy is G = H - T*S

Total enthalpy                    ...  -2379.03863554 Eh 
Total entropy correction          ...     -0.14431388 Eh    -90.56 kcal/mol
-----------------------------------------------------------------------
Final Gibbs free energy         ...  -2379.18294942 Eh

For completeness - the Gibbs free energy minus the electronic energy
G-E(el)                           ...      0.89188773 Eh    559.67 kcal/mol

--------------------------------------------------------------------------
WARNING: No preset parameters were found for the device that Open MPI
detected:

  Local host:            eu-g1-037-1
  Device name:           mlx5_0
  Device vendor ID:      0x02c9
  Device vendor part ID: 4123

Default device parameters will be used, which may result in lower
performance.  You can edit any of the files specified by the
btl_openib_device_param_files MCA parameter to set values for your
device.

NOTE: You can turn off this warning by setting the MCA parameter
      btl_openib_warn_no_device_params_found to 0.
--------------------------------------------------------------------------
--------------------------------------------------------------------------
WARNING: There was an error initializing an OpenFabrics device.

  Local host:   eu-g1-037-1
  Local device: mlx5_0
--------------------------------------------------------------------------

Timings for individual modules:

Sum of individual times         ...    32008.658 sec (= 533.478 min)
GTO integral calculation        ...       13.073 sec (=   0.218 min)   0.0 %
SCF iterations                  ...      420.017 sec (=   7.000 min)   1.3 %
SCF Gradient evaluation         ...       70.986 sec (=   1.183 min)   0.2 %
Geometry relaxation             ...        3.852 sec (=   0.064 min)   0.0 %
Analytical frequency calculation...    31500.730 sec (= 525.012 min)  98.4 %
                             ****ORCA TERMINATED NORMALLY****
TOTAL RUN TIME: 0 days 8 hours 53 minutes 45 seconds 970 msec
