
                                 *****************
                                 * O   R   C   A *
                                 *****************

           --- An Ab Initio, DFT and Semiempirical electronic structure package ---

                  #######################################################
                  #                        -***-                        #
                  #          Department of theory and spectroscopy      #
                  #               Directorship: Frank Neese             #
                  #        Max Planck Institute fuer Kohlenforschung    #
                  #                Kaiser Wilhelm Platz 1               #
                  #                 D-45470 Muelheim/Ruhr               #
                  #                      Germany                        #
                  #                                                     #
                  #                  All rights reserved                #
                  #                        -***-                        #
                  #######################################################


                         Program Version 4.2.0 -  RELEASE  -


 With contributions from (in alphabetic order):
   Daniel Aravena         : Magnetic Suceptibility
   Michael Atanasov       : Ab Initio Ligand Field Theory (pilot matlab implementation)
   Alexander A. Auer      : GIAO ZORA, VPT2
   Ute Becker             : Parallelization
   Giovanni Bistoni       : ED, misc. LED, open-shell LED, HFLED
   Martin Brehm           : Molecular dynamics
   Dmytro Bykov           : SCF Hessian
   Vijay G. Chilkuri      : MRCI spin determinant printing, contributions to CSF-ICE
   Dipayan Datta          : RHF DLPNO-CCSD density
   Achintya Kumar Dutta   : EOM-CC, STEOM-CC
   Dmitry Ganyushin       : Spin-Orbit,Spin-Spin,Magnetic field MRCI
   Miquel Garcia          : C-PCM Hessian, Gaussian charge scheme
   Yang Guo               : DLPNO-NEVPT2, CIM, IAO-localization
   Andreas Hansen         : Spin unrestricted coupled pair/coupled cluster methods
   Benjamin Helmich-Paris : CASSCF linear response (MC-RPA)
   Lee Huntington         : MR-EOM, pCC
   Robert Izsak           : Overlap fitted RIJCOSX, COSX-SCS-MP3, EOM
   Christian Kollmar      : KDIIS, OOCD, Brueckner-CCSD(T), CCSD density
   Simone Kossmann        : Meta GGA functionals, TD-DFT gradient, OOMP2, MP2 Hessian
   Martin Krupicka        : AUTO-CI
   Lucas Lang             : DCDCAS
   Dagmar Lenk            : GEPOL surface, SMD
   Dimitrios Liakos       : Extrapolation schemes; Compound Job, initial MDCI parallelization
   Dimitrios Manganas     : Further ROCIS development; embedding schemes
   Dimitrios Pantazis     : SARC Basis sets
   Taras Petrenko         : DFT Hessian,TD-DFT gradient, ASA, ECA, R-Raman, ABS, FL, XAS/XES, NRVS
   Peter Pinski           : DLPNO-MP2, DLPNO-MP2 Gradient
   Christoph Reimann      : Effective Core Potentials
   Marius Retegan         : Local ZFS, SOC
   Christoph Riplinger    : Optimizer, TS searches, QM/MM, DLPNO-CCSD(T), (RO)-DLPNO pert. Triples
   Tobias Risthaus        : Range-separated hybrids, TD-DFT gradient, RPA, STAB
   Michael Roemelt        : Original ROCIS implementation
   Masaaki Saitow         : Open-shell DLPNO-CCSD energy and density
   Barbara Sandhoefer     : DKH picture change effects
   Avijit Sen             : IP-ROCIS
   Kantharuban Sivalingam : CASSCF convergence, NEVPT2, FIC-MRCI
   Bernardo de Souza      : ESD, SOC TD-DFT
   Georgi Stoychev        : AutoAux, RI-MP2 NMR
   Willem Van den Heuvel  : Paramagnetic NMR
   Boris Wezisla          : Elementary symmetry handling
   Frank Wennmohs         : Technical directorship


 We gratefully acknowledge several colleagues who have allowed us to
 interface, adapt or use parts of their codes:
   Stefan Grimme, W. Hujo, H. Kruse,             : VdW corrections, initial TS optimization,
                  C. Bannwarth                     DFT functionals, gCP, sTDA/sTD-DF
   Ed Valeev, F. Pavosevic, A. Kumar             : LibInt (2-el integral package), F12 methods
   Garnet Chan, S. Sharma, J. Yang, R. Olivares  : DMRG
   Ulf Ekstrom                                   : XCFun DFT Library
   Mihaly Kallay                                 : mrcc  (arbitrary order and MRCC methods)
   Andreas Klamt, Michael Diedenhofen            : otool_cosmo (COSMO solvation model)
   Jiri Pittner, Ondrej Demel                    : Mk-CCSD
   Frank Weinhold                                : gennbo (NPA and NBO analysis)
   Christopher J. Cramer and Donald G. Truhlar   : smd solvation model
   Lars Goerigk                                  : TD-DFT with DH, B97 family of functionals
   V. Asgeirsson, H. Jonsson                     : NEB implementation
   FAccTs GmbH                                   : IRC, NEB, NEB-TS, Multilevel, MM, QM/MM, CI optimization
   S Lehtola, MJT Oliveira, MAL Marques          : LibXC Library


 Your calculation uses the libint2 library for the computation of 2-el integrals
 For citations please refer to: http://libint.valeyev.net

 Your ORCA version has been built with support for libXC version: 4.2.3
 For citations please refer to: https://tddft.org/programs/libxc/

 This ORCA versions uses:
   CBLAS   interface :  Fast vector & matrix operations
   LAPACKE interface :  Fast linear algebra routines
   SCALAPACK package :  Parallel linear algebra routines




***************************************
The coordinates will be read from file: 23_old.xyz
***************************************


Your calculation utilizes the atom-pairwise dispersion correction
with the Becke-Johnson damping scheme (D3BJ)
Cite in your paper:
S.Grimme, S.Ehrlich, L.Goerigk, J Comput Chem, (2011), 32, 1456–1465 
S.Grimme, J.Antony, S.Ehrlich and H.Krieg, J.Chem.Phys., 132, (2010), 154104 
   

----- Orbital basis set information -----
Your calculation utilizes the basis: def2-TZVP
   F. Weigend and R. Ahlrichs, Phys. Chem. Chem. Phys. 7, 3297 (2005).

----- AuxJ basis set information -----
Your calculation utilizes the auxiliary basis: def2/J
   F. Weigend, Phys. Chem. Chem. Phys. 8, 1057 (2006).

================================================================================
                                        WARNINGS
                       Please study these warnings very carefully!
================================================================================


WARNING: Geometry Optimization
  ===> : Switching off AutoStart
         For restart on a previous wavefunction, please use MOREAD

INFO   : the flag for use of LIBINT has been found!

================================================================================
                                       INPUT FILE
================================================================================
NAME = 23.inp
|  1> !RI BP86 def2-tzvp def2/J D3BJ TIGHTSCF TightOpt Grid5 FinalGrid6 freq
|  2> %maxcore 4000
|  3> %pal nprocs 24
|  4> end
|  5> * xyzfile 0 1 23_old.xyz 
|  6> 
|  7>                          ****END OF INPUT****
================================================================================

                       *****************************
                       * Geometry Optimization Run *
                       *****************************

Geometry optimization settings:
Update method            Update   .... BFGS
Choice of coordinates    CoordSys .... Z-matrix Internals
Initial Hessian          InHess   .... Almoef's Model

Convergence Tolerances:
Energy Change            TolE     ....  1.0000e-06 Eh
Max. Gradient            TolMAXG  ....  1.0000e-04 Eh/bohr
RMS Gradient             TolRMSG  ....  3.0000e-05 Eh/bohr
Max. Displacement        TolMAXD  ....  1.0000e-03 bohr
RMS Displacement         TolRMSD  ....  6.0000e-04 bohr
Strict Convergence                ....  False
------------------------------------------------------------------------------
                        ORCA OPTIMIZATION COORDINATE SETUP
------------------------------------------------------------------------------

The optimization will be done in new redundant internal coordinates
Making redundant internal coordinates   ...  (new redundants) done
Evaluating the initial hessian          ...  (Almloef) done
Evaluating the coordinates              ...  done
Calculating the B-matrix                .... done
Calculating the G-matrix                .... done
Diagonalizing the G-matrix              .... done
Small eigenvalue found = 1.615e-03
Small eigenvalue found = 1.958e-03
Small eigenvalue found = 3.222e-03
Small eigenvalue found = 3.593e-03
Small eigenvalue found = 5.040e-03
Small eigenvalue found = 6.752e-03
Small eigenvalue found = 7.354e-03
Small eigenvalue found = 8.677e-03
Small eigenvalue found = 9.825e-03
Small eigenvalue found = 1.134e-02
Small eigenvalue found = 1.288e-02
Small eigenvalue found = 1.607e-02
Small eigenvalue found = 1.862e-02
Small eigenvalue found = 1.926e-02
Small eigenvalue found = 2.213e-02
Small eigenvalue found = 2.414e-02
Small eigenvalue found = 2.656e-02
The first mode is                       ....  328
The number of degrees of freedom        ....  339

    -----------------------------------------------------------------
                    Redundant Internal Coordinates


    -----------------------------------------------------------------
         Definition                    Initial Value    Approx d2E/dq
    -----------------------------------------------------------------
      1. B(C   1,O   0)                  1.2363         0.984216   
      2. B(C   2,C   1)                  1.5403         0.359724   
      3. B(C   3,C   2)                  1.5470         0.350935   
      4. B(C   4,C   3)                  1.5380         0.362794   
      5. B(C   5,C   4)                  1.5382         0.362455   
      6. B(N   6,C   5)                  1.4796         0.402658   
      7. B(N   6,C   2)                  1.4583         0.435398   
      8. B(C   7,N   6)                  1.3655         0.612304   
      9. B(O   8,C   7)                  1.2379         0.978619   
     10. B(N   9,C   1)                  1.3660         0.611278   
     11. B(C  10,N   9)                  1.4617         0.429979   
     12. B(C  11,C  10)                  1.5449         0.353659   
     13. B(N  12,C  11)                  1.3601         0.624626   
     14. B(C  13,N  12)                  1.4586         0.434930   
     15. B(C  14,C  13)                  1.5489         0.348577   
     16. B(N  15,C  14)                  1.3617         0.620994   
     17. B(C  16,N  15)                  1.4512         0.446875   
     18. B(C  17,C  16)                  1.5480         0.349702   
     19. B(C  18,C  17)                  1.5534         0.342815   
     20. B(C  19,C  18)                  1.5471         0.350884   
     21. B(N  20,C  19)                  1.3684         0.605803   
     22. B(C  21,N  20)                  1.4470         0.453910   
     23. B(C  22,C  21)                  1.5527         0.343623   
     24. B(N  23,C  22)                  1.3742         0.593035   
     25. B(C  24,N  23)                  1.4623         0.429145   
     26. B(C  24,C   7)                  1.5435         0.355528   
     27. B(C  25,C  24)                  1.5284         0.375814   
     28. B(O  26,C  22)                  1.2314         1.002046   
     29. B(C  27,C  21)                  1.5471         0.350849   
     30. B(C  28,C  27)                  1.5427         0.356503   
     31. B(C  29,C  28)                  1.5374         0.363567   
     32. B(C  30,C  28)                  1.5375         0.363386   
     33. B(O  31,C  19)                  1.2345         0.990635   
     34. B(C  32,C  18)                  1.5425         0.356759   
     35. B(C  33,C  32)                  1.5144         0.395667   
     36. B(C  34,C  33)                  1.5311         0.372025   
     37. B(C  35,C  34)                  1.5422         0.357189   
     38. B(C  36,C  35)                  1.5391         0.361333   
     39. B(C  37,C  36)                  1.5345         0.367509   
     40. B(C  38,C  37)                  1.5327         0.369828   
     41. B(C  39,C  38)                  1.5336         0.368651   
     42. B(C  40,C  39)                  1.5350         0.366765   
     43. B(C  41,C  40)                  1.5306         0.372719   
     44. B(O  42,C  32)                  1.2240         1.029529   
     45. B(O  43,C  17)                  1.4301         0.482921   
     46. B(O  44,C  14)                  1.2337         0.993658   
     47. B(C  45,C  13)                  1.5410         0.358776   
     48. B(C  46,C  45)                  1.5287         0.375375   
     49. B(O  47,C  11)                  1.2370         0.981816   
     50. B(C  48,C  10)                  1.5467         0.351353   
     51. B(C  49,C  48)                  1.5361         0.365290   
     52. B(C  50,C  48)                  1.5364         0.364853   
     53. B(H  51,C   2)                  1.1095         0.335235   
     54. B(H  52,C   3)                  1.1097         0.335014   
     55. B(H  53,C   3)                  1.1090         0.335864   
     56. B(H  54,C   4)                  1.1082         0.336818   
     57. B(H  55,C   4)                  1.1053         0.340371   
     58. B(H  56,C   5)                  1.1081         0.336960   
     59. B(H  57,C   5)                  1.1124         0.331627   
     60. B(H  58,N   9)                  1.0222         0.413783   
     61. B(H  59,C  10)                  1.1104         0.334081   
     62. B(H  60,N  12)                  1.0232         0.412237   
     63. B(H  61,C  13)                  1.1108         0.333570   
     64. B(H  62,H  54)                  2.3379         0.000704   
     65. B(H  62,N  15)                  1.0289         0.403714   
     66. B(H  63,C  16)                  1.1085         0.336498   
     67. B(H  64,C  16)                  1.1055         0.340191   
     68. B(H  65,C  17)                  1.1125         0.331551   
     69. B(H  66,C  18)                  1.1107         0.333710   
     70. B(H  67,H  59)                  4.0502         0.000001   
     71. B(H  67,N  20)                  1.0358         0.393592   
     72. B(H  68,C  21)                  1.1145         0.329122   
     73. B(H  69,N  23)                  1.0239         0.411124   
     74. B(H  70,C  24)                  1.1052         0.340531   
     75. B(H  71,C  25)                  1.1073         0.337956   
     76. B(H  72,C  25)                  1.1080         0.337042   
     77. B(H  73,C  25)                  1.1089         0.336001   
     78. B(H  74,C  27)                  1.1106         0.333830   
     79. B(H  75,C  27)                  1.1076         0.337607   
     80. B(H  76,C  28)                  1.1169         0.326163   
     81. B(H  77,C  29)                  1.1065         0.338981   
     82. B(H  78,C  29)                  1.1095         0.335234   
     83. B(H  79,C  29)                  1.1097         0.334985   
     84. B(H  80,C  30)                  1.1101         0.334425   
     85. B(H  81,C  30)                  1.1094         0.335347   
     86. B(H  82,C  30)                  1.1108         0.333600   
     87. B(H  83,C  33)                  1.1126         0.331408   
     88. B(H  84,C  33)                  1.1092         0.335554   
     89. B(H  85,C  34)                  1.1120         0.332136   
     90. B(H  86,C  34)                  1.1092         0.335593   
     91. B(H  87,C  35)                  1.1109         0.333530   
     92. B(H  88,C  35)                  1.1137         0.330091   
     93. B(H  89,C  36)                  1.1141         0.329649   
     94. B(H  90,C  36)                  1.1136         0.330172   
     95. B(H  91,O  26)                  4.6780         0.000001   
     96. B(H  91,C  37)                  1.1143         0.329334   
     97. B(H  92,C  37)                  1.1113         0.332938   
     98. B(H  93,C  38)                  1.1135         0.330351   
     99. B(H  94,C  38)                  1.1146         0.329032   
    100. B(H  95,C  39)                  1.1145         0.329127   
    101. B(H  96,H  64)                  2.9392         0.000077   
    102. B(H  96,C  39)                  1.1133         0.330587   
    103. B(H  97,C  40)                  1.1124         0.331594   
    104. B(H  98,C  40)                  1.1133         0.330620   
    105. B(H  99,C  41)                  1.1092         0.335551   
    106. B(H 100,C  41)                  1.1098         0.334872   
    107. B(H 101,H  55)                  2.3398         0.000699   
    108. B(H 101,C  41)                  1.1109         0.333455   
    109. B(H 102,O   0)                  3.3877         0.000070   
    110. B(H 102,O  43)                  0.9890         0.467388   
    111. B(H 103,H 100)                  2.0498         0.002029   
    112. B(H 103,C  45)                  1.1136         0.330213   
    113. B(H 104,C  45)                  1.1129         0.330988   
    114. B(H 105,C  46)                  1.1082         0.336816   
    115. B(H 106,C  46)                  1.1060         0.339600   
    116. B(H 107,C  46)                  1.1089         0.335916   
    117. B(H 108,C  48)                  1.1112         0.333119   
    118. B(H 109,C  49)                  1.1083         0.336692   
    119. B(H 110,C  49)                  1.1111         0.333203   
    120. B(H 111,C  49)                  1.1083         0.336633   
    121. B(H 112,C  50)                  1.1078         0.337254   
    122. B(H 113,C  50)                  1.1081         0.336922   
    123. B(H 114,C  50)                  1.1119         0.332276   
    124. A(O   0,C   1,N   9)          120.9614         0.464628   
    125. A(C   2,C   1,N   9)          117.0389         0.390585   
    126. A(O   0,C   1,C   2)          121.5492         0.424914   
    127. A(C   1,C   2,H  51)          109.9264         0.318567   
    128. A(N   6,C   2,H  51)          111.0889         0.326733   
    129. A(C   1,C   2,N   6)          108.6751         0.368292   
    130. A(C   1,C   2,C   3)          110.5926         0.357194   
    131. A(C   3,C   2,H  51)          113.4151         0.317285   
    132. A(C   3,C   2,N   6)          102.8792         0.366733   
    133. A(C   4,C   3,H  53)          113.6524         0.319107   
    134. A(C   4,C   3,H  52)          111.2818         0.318975   
    135. A(C   2,C   3,C   4)          102.9706         0.357710   
    136. A(C   2,C   3,H  53)          112.8321         0.317382   
    137. A(C   2,C   3,H  52)          108.9411         0.317251   
    138. A(H  52,C   3,H  53)          107.1372         0.284461   
    139. A(H  54,C   4,H  55)          107.3155         0.285290   
    140. A(C   3,C   4,H  55)          112.8401         0.319802   
    141. A(C   3,C   4,C   5)          103.8150         0.359681   
    142. A(C   3,C   4,H  54)          110.4823         0.319254   
    143. A(C   5,C   4,H  55)          112.4791         0.319753   
    144. A(C   5,C   4,H  54)          109.9222         0.319206   
    145. A(H  56,C   5,H  57)          109.5164         0.284155   
    146. A(C   4,C   5,N   6)          103.7825         0.363864   
    147. A(C   4,C   5,H  56)          111.9784         0.319228   
    148. A(N   6,C   5,H  57)          110.0052         0.321992   
    149. A(N   6,C   5,H  56)          110.0872         0.322835   
    150. A(C   4,C   5,H  57)          111.3478         0.318398   
    151. A(C   5,N   6,C   7)          127.7536         0.395951   
    152. A(C   2,N   6,C   7)          117.0824         0.401431   
    153. A(C   2,N   6,C   5)          112.6175         0.373154   
    154. A(O   8,C   7,C  24)          120.1731         0.423591   
    155. A(N   6,C   7,O   8)          121.4549         0.464286   
    156. A(N   6,C   7,C  24)          118.3020         0.389900   
    157. A(C   1,N   9,C  10)          118.8311         0.400428   
    158. A(C  10,N   9,H  58)          120.0928         0.334731   
    159. A(C   1,N   9,H  58)          120.0048         0.355098   
    160. A(C  48,C  10,H  59)          108.7194         0.317169   
    161. A(C  11,C  10,H  59)          103.4081         0.317507   
    162. A(N   9,C  10,C  11)          111.1667         0.366432   
    163. A(N   9,C  10,C  48)          112.4064         0.366021   
    164. A(N   9,C  10,H  59)          108.7832         0.325875   
    165. A(C  11,C  10,C  48)          111.8993         0.356235   
    166. A(N  12,C  11,O  47)          123.2742         0.466261   
    167. A(C  10,C  11,O  47)          120.8951         0.423439   
    168. A(C  10,C  11,N  12)          115.8298         0.390899   
    169. A(C  13,N  12,H  60)          118.6616         0.335160   
    170. A(C  11,N  12,C  13)          123.7954         0.402766   
    171. A(C  11,N  12,H  60)          117.1288         0.356176   
    172. A(C  14,C  13,C  45)          111.7130         0.356625   
    173. A(N  12,C  13,H  61)          108.8372         0.326407   
    174. A(C  14,C  13,H  61)          104.2732         0.316681   
    175. A(N  12,C  13,C  14)          113.4051         0.366242   
    176. A(C  45,C  13,H  61)          109.9110         0.318172   
    177. A(N  12,C  13,C  45)          108.5851         0.368057   
    178. A(C  13,C  14,N  15)          116.4804         0.389515   
    179. A(N  15,C  14,O  44)          123.6994         0.466787   
    180. A(C  13,C  14,O  44)          119.8022         0.423251   
    181. A(C  14,N  15,H  62)          121.2350         0.354565   
    182. A(C  16,N  15,H  62)          114.8470         0.335505   
    183. A(C  14,N  15,C  16)          120.9173         0.404280   
    184. A(H  63,C  16,H  64)          109.0510         0.285224   
    185. A(C  17,C  16,H  64)          109.1089         0.317863   
    186. A(N  15,C  16,H  63)          107.9745         0.328340   
    187. A(C  17,C  16,H  63)          110.9774         0.317298   
    188. A(N  15,C  16,C  17)          111.3385         0.368151   
    189. A(N  15,C  16,H  64)          108.3246         0.328932   
    190. A(O  43,C  17,H  65)          109.2848         0.331764   
    191. A(C  18,C  17,H  65)          107.4908         0.315512   
    192. A(C  16,C  17,H  65)          108.5171         0.316534   
    193. A(C  16,C  17,C  18)          111.8194         0.354075   
    194. A(C  18,C  17,O  43)          107.4268         0.371819   
    195. A(C  16,C  17,O  43)          112.1760         0.373095   
    196. A(C  19,C  18,H  66)          106.9684         0.317042   
    197. A(C  17,C  18,H  66)          105.0583         0.315845   
    198. A(C  17,C  18,C  32)          108.9274         0.355277   
    199. A(C  17,C  18,C  19)          114.6081         0.354278   
    200. A(C  19,C  18,C  32)          115.4433         0.356683   
    201. A(C  32,C  18,H  66)          104.8175         0.317901   
    202. A(C  18,C  19,N  20)          112.6410         0.388281   
    203. A(N  20,C  19,O  31)          124.7389         0.464416   
    204. A(C  18,C  19,O  31)          122.4534         0.423519   
    205. A(C  19,N  20,H  67)          114.7364         0.351567   
    206. A(C  19,N  20,C  21)          126.1949         0.403628   
    207. A(C  21,N  20,H  67)          117.3203         0.334961   
    208. A(C  27,C  21,H  68)          107.4539         0.316324   
    209. A(C  22,C  21,H  68)          105.7863         0.315256   
    210. A(N  20,C  21,H  68)          105.7754         0.327986   
    211. A(N  20,C  21,C  22)          110.0771         0.368030   
    212. A(C  22,C  21,C  27)          111.0056         0.354414   
    213. A(N  20,C  21,C  27)          116.0672         0.369347   
    214. A(C  21,C  22,N  23)          113.5051         0.385436   
    215. A(C  21,C  22,O  26)          123.4348         0.422804   
    216. A(N  23,C  22,O  26)          123.0525         0.463580   
    217. A(C  22,N  23,C  24)          121.9386         0.398164   
    218. A(C  24,N  23,H  69)          114.8404         0.334265   
    219. A(C  22,N  23,H  69)          117.0728         0.352894   
    220. A(C  25,C  24,H  70)          110.7936         0.321676   
    221. A(N  23,C  24,H  70)          106.5066         0.326798   
    222. A(C   7,C  24,H  70)          111.4907         0.318772   
    223. A(N  23,C  24,C  25)          110.8644         0.370150   
    224. A(C   7,C  24,N  23)          106.3990         0.366641   
    225. A(C   7,C  24,C  25)          110.6283         0.360661   
    226. A(H  71,C  25,H  73)          109.4337         0.284866   
    227. A(C  24,C  25,H  73)          109.8856         0.320972   
    228. A(H  71,C  25,H  72)          108.7328         0.285003   
    229. A(C  24,C  25,H  72)          110.5413         0.321134   
    230. A(C  24,C  25,H  71)          110.5269         0.321277   
    231. A(H  72,C  25,H  73)          107.6607         0.284746   
    232. A(C  28,C  27,H  75)          110.3303         0.318466   
    233. A(C  21,C  27,C  28)          115.9382         0.356633   
    234. A(H  74,C  27,H  75)          107.2870         0.284533   
    235. A(C  21,C  27,H  75)          107.9539         0.317637   
    236. A(C  28,C  27,H  74)          108.1522         0.317883   
    237. A(C  21,C  27,H  74)          106.8083         0.317056   
    238. A(C  29,C  28,C  30)          110.5201         0.359969   
    239. A(C  27,C  28,C  30)          109.1647         0.358769   
    240. A(C  27,C  28,C  29)          113.7829         0.358799   
    241. A(C  30,C  28,H  76)          107.7290         0.317670   
    242. A(C  29,C  28,H  76)          107.9507         0.317695   
    243. A(C  27,C  28,H  76)          107.4716         0.316682   
    244. A(C  28,C  29,H  79)          110.6734         0.319081   
    245. A(H  78,C  29,H  79)          108.1451         0.284374   
    246. A(H  77,C  29,H  79)          107.9895         0.284866   
    247. A(H  77,C  29,H  78)          107.4144         0.284899   
    248. A(C  28,C  29,H  78)          110.5823         0.319120   
    249. A(C  28,C  29,H  77)          111.8875         0.319700   
    250. A(H  81,C  30,H  82)          107.5577         0.284205   
    251. A(H  80,C  30,H  82)          107.5332         0.284084   
    252. A(C  28,C  30,H  82)          110.5804         0.318840   
    253. A(H  80,C  30,H  81)          107.8756         0.284315   
    254. A(C  28,C  30,H  81)          111.3297         0.319111   
    255. A(C  28,C  30,H  80)          111.7776         0.318968   
    256. A(C  33,C  32,O  42)          121.8909         0.435748   
    257. A(C  18,C  32,O  42)          118.4492         0.427719   
    258. A(C  18,C  32,C  33)          119.5757         0.364060   
    259. A(C  32,C  33,C  34)          113.5356         0.366681   
    260. A(C  34,C  33,H  84)          112.6306         0.320371   
    261. A(H  83,C  33,H  84)          102.7320         0.283942   
    262. A(C  32,C  33,H  84)          109.0569         0.323620   
    263. A(C  34,C  33,H  83)          112.4381         0.319721   
    264. A(C  32,C  33,H  83)          105.6886         0.322960   
    265. A(C  33,C  34,C  35)          114.1052         0.360325   
    266. A(H  85,C  34,H  86)          104.6622         0.284044   
    267. A(C  35,C  34,H  86)          110.3454         0.318255   
    268. A(C  33,C  34,H  86)          108.1367         0.320377   
    269. A(C  35,C  34,H  85)          109.8435         0.317719   
    270. A(C  33,C  34,H  85)          109.3091         0.319835   
    271. A(C  34,C  35,C  36)          114.9547         0.358540   
    272. A(H  87,C  35,H  88)          105.5030         0.283500   
    273. A(C  36,C  35,H  88)          109.6133         0.317996   
    274. A(C  34,C  35,H  88)          109.6138         0.317399   
    275. A(C  36,C  35,H  87)          107.5634         0.318534   
    276. A(C  34,C  35,H  87)          109.1512         0.317936   
    277. A(C  35,C  36,C  37)          116.2627         0.360283   
    278. A(H  89,C  36,H  90)          105.5604         0.282996   
    279. A(C  37,C  36,H  90)          108.5514         0.318889   
    280. A(C  35,C  36,H  90)          108.6671         0.318009   
    281. A(C  37,C  36,H  89)          108.5693         0.318807   
    282. A(C  35,C  36,H  89)          108.7085         0.317927   
    283. A(C  36,C  37,C  38)          113.0982         0.361714   
    284. A(H  91,C  37,H  92)          106.2125         0.283320   
    285. A(C  38,C  37,H  92)          108.2552         0.319652   
    286. A(C  36,C  37,H  92)          109.9017         0.319324   
    287. A(C  38,C  37,H  91)          109.5615         0.319084   
    288. A(C  36,C  37,H  91)          109.5735         0.318757   
    289. A(C  37,C  38,C  39)          114.5573         0.361905   
    290. A(H  93,C  38,H  94)          105.5667         0.282937   
    291. A(C  39,C  38,H  94)          108.7622         0.318871   
    292. A(C  37,C  38,H  94)          109.2295         0.319036   
    293. A(C  39,C  38,H  93)          109.2597         0.319079   
    294. A(C  37,C  38,H  93)          109.0819         0.319245   
    295. A(C  38,C  39,C  40)          112.7565         0.361392   
    296. A(H  95,C  39,H  96)          105.7721         0.282981   
    297. A(C  40,C  39,H  96)          109.7855         0.318849   
    298. A(C  38,C  39,H  96)          109.6200         0.319116   
    299. A(C  40,C  39,H  95)          109.5440         0.318619   
    300. A(C  38,C  39,H  95)          109.1216         0.318886   
    301. A(C  39,C  40,C  41)          114.3509         0.362070   
    302. A(H  97,C  40,H  98)          105.4761         0.283314   
    303. A(C  41,C  40,H  98)          109.1268         0.319693   
    304. A(C  39,C  40,H  98)          108.9758         0.318854   
    305. A(C  41,C  40,H  97)          109.6295         0.319847   
    306. A(C  39,C  40,H  97)          108.9047         0.319007   
    307. A(H 100,C  41,H 101)          107.2760         0.284124   
    308. A(H  99,C  41,H 101)          107.3538         0.284213   
    309. A(C  40,C  41,H 101)          111.2571         0.320140   
    310. A(H  99,C  41,H 100)          107.4219         0.284401   
    311. A(C  40,C  41,H 100)          111.3710         0.320362   
    312. A(C  40,C  41,H  99)          111.9204         0.320468   
    313. A(C  17,O  43,H 102)          110.6716         0.348327   
    314. A(C  13,C  45,C  46)          114.8527         0.361149   
    315. A(C  46,C  45,H 104)          109.8132         0.320123   
    316. A(C  13,C  45,H 104)          107.4680         0.317769   
    317. A(C  46,C  45,H 103)          109.9059         0.320000   
    318. A(C  13,C  45,H 103)          107.9296         0.317648   
    319. A(H 103,C  45,H 104)          106.5154         0.283179   
    320. A(H 106,C  46,H 107)          107.1428         0.285070   
    321. A(H 105,C  46,H 107)          108.0356         0.284705   
    322. A(C  45,C  46,H 107)          110.9778         0.320897   
    323. A(H 105,C  46,H 106)          108.9568         0.285189   
    324. A(C  45,C  46,H 106)          111.1851         0.321470   
    325. A(C  45,C  46,H 105)          110.4236         0.321038   
    326. A(C  50,C  48,H 108)          108.0998         0.318974   
    327. A(C  49,C  48,H 108)          108.1470         0.319036   
    328. A(C  10,C  48,H 108)          104.1472         0.317020   
    329. A(C  49,C  48,C  50)          112.0353         0.360507   
    330. A(C  10,C  48,C  50)          112.9668         0.358127   
    331. A(C  10,C  48,C  49)          110.9877         0.358200   
    332. A(H 110,C  49,H 111)          107.0523         0.284322   
    333. A(H 109,C  49,H 111)          108.0551         0.284783   
    334. A(C  48,C  49,H 111)          110.7434         0.319583   
    335. A(H 109,C  49,H 110)          107.4212         0.284330   
    336. A(C  48,C  49,H 110)          111.9772         0.319050   
    337. A(C  48,C  49,H 109)          111.3842         0.319592   
    338. A(H 113,C  50,H 114)          106.6764         0.284237   
    339. A(H 112,C  50,H 114)          107.7211         0.284280   
    340. A(C  48,C  50,H 114)          112.0203         0.318842   
    341. A(H 112,C  50,H 113)          107.7741         0.284895   
    342. A(C  48,C  50,H 113)          110.4869         0.319566   
    343. A(C  48,C  50,H 112)          111.9177         0.319617   
    344. D(H  51,C   2,C   1,N   9)     40.5294         0.009732   
    345. D(C   3,C   2,C   1,N   9)    -85.4685         0.009732   
    346. D(N   6,C   2,C   1,N   9)    162.3007         0.009732   
    347. D(N   6,C   2,C   1,O   0)    -25.3323         0.009732   
    348. D(C   3,C   2,C   1,O   0)     86.8985         0.009732   
    349. D(H  51,C   2,C   1,O   0)   -147.1036         0.009732   
    350. D(C   4,C   3,C   2,N   6)     33.7347         0.009918   
    351. D(H  53,C   3,C   2,H  51)    -83.2496         0.009918   
    352. D(H  53,C   3,C   2,C   1)     40.7686         0.009918   
    353. D(C   4,C   3,C   2,H  51)    153.8170         0.009918   
    354. D(H  53,C   3,C   2,N   6)    156.6681         0.009918   
    355. D(H  52,C   3,C   2,H  51)     35.5992         0.009918   
    356. D(C   4,C   3,C   2,C   1)    -82.1648         0.009918   
    357. D(H  52,C   3,C   2,C   1)    159.6175         0.009918   
    358. D(H  52,C   3,C   2,N   6)    -84.4830         0.009918   
    359. D(H  55,C   4,C   3,H  53)     78.6707         0.010548   
    360. D(H  55,C   4,C   3,H  52)    -42.3819         0.010548   
    361. D(H  54,C   4,C   3,H  52)   -162.5194         0.010548   
    362. D(H  55,C   4,C   3,C   2)   -158.9454         0.010548   
    363. D(H  54,C   4,C   3,H  53)    -41.4668         0.010548   
    364. D(C   5,C   4,C   3,C   2)    -36.8856         0.010548   
    365. D(H  54,C   4,C   3,C   2)     80.9171         0.010548   
    366. D(C   5,C   4,C   3,H  53)   -159.2694         0.010548   
    367. D(C   5,C   4,C   3,H  52)     79.6779         0.010548   
    368. D(N   6,C   5,C   4,C   3)     25.6833         0.010530   
    369. D(H  57,C   5,C   4,C   3)    -92.6155         0.010530   
    370. D(H  56,C   5,C   4,H  55)    -93.3092         0.010530   
    371. D(H  56,C   5,C   4,C   3)    144.3914         0.010530   
    372. D(H  57,C   5,C   4,H  54)    149.1942         0.010530   
    373. D(H  56,C   5,C   4,H  54)     26.2011         0.010530   
    374. D(H  57,C   5,C   4,H  55)     29.6839         0.010530   
    375. D(N   6,C   5,C   4,H  54)    -92.5069         0.010530   
    376. D(N   6,C   5,C   4,H  55)    147.9827         0.010530   
    377. D(C   5,N   6,C   2,C   3)    -18.5463         0.016163   
    378. D(C   7,N   6,C   5,H  57)    -83.9966         0.013839   
    379. D(C   7,N   6,C   5,H  56)     36.7803         0.013839   
    380. D(C   7,N   6,C   5,C   4)    156.7814         0.013839   
    381. D(C   2,N   6,C   5,H  57)    114.8453         0.013839   
    382. D(C   2,N   6,C   5,H  56)   -124.3779         0.013839   
    383. D(C   7,N   6,C   2,H  51)     56.4456         0.016163   
    384. D(C   2,N   6,C   5,C   4)     -4.3768         0.013839   
    385. D(C   7,N   6,C   2,C   3)    178.1197         0.016163   
    386. D(C   5,N   6,C   2,C   1)     98.7203         0.016163   
    387. D(C   7,N   6,C   2,C   1)    -64.6137         0.016163   
    388. D(C   5,N   6,C   2,H  51)   -140.2204         0.016163   
    389. D(C  24,C   7,N   6,C   5)      6.7117         0.030301   
    390. D(C  24,C   7,N   6,C   2)    167.1493         0.030301   
    391. D(O   8,C   7,N   6,C   5)   -170.2497         0.030301   
    392. D(O   8,C   7,N   6,C   2)     -9.8121         0.030301   
    393. D(H  58,N   9,C   1,O   0)    169.4681         0.030191   
    394. D(C  10,N   9,C   1,C   2)    173.7044         0.030191   
    395. D(H  58,N   9,C   1,C   2)    -18.1172         0.030191   
    396. D(C  10,N   9,C   1,O   0)      1.2898         0.030191   
    397. D(H  59,C  10,N   9,C   1)     50.8843         0.015763   
    398. D(C  48,C  10,N   9,H  58)      3.1737         0.015763   
    399. D(C  48,C  10,N   9,C   1)    171.3414         0.015763   
    400. D(C  11,C  10,N   9,C   1)    -62.3405         0.015763   
    401. D(H  59,C  10,N   9,H  58)   -117.2834         0.015763   
    402. D(C  11,C  10,N   9,H  58)    129.4918         0.015763   
    403. D(O  47,C  11,C  10,N   9)    152.4273         0.009433   
    404. D(N  12,C  11,C  10,H  59)   -144.4678         0.009433   
    405. D(N  12,C  11,C  10,C  48)     98.6979         0.009433   
    406. D(N  12,C  11,C  10,N   9)    -27.8997         0.009433   
    407. D(O  47,C  11,C  10,H  59)     35.8591         0.009433   
    408. D(O  47,C  11,C  10,C  48)    -80.9751         0.009433   
    409. D(H  60,N  12,C  11,O  47)   -177.9740         0.031630   
    410. D(H  60,N  12,C  11,C  10)      2.3616         0.031630   
    411. D(C  13,N  12,C  11,O  47)     -5.4760         0.031630   
    412. D(C  13,N  12,C  11,C  10)    174.8596         0.031630   
    413. D(H  61,C  13,N  12,C  11)     55.0571         0.016128   
    414. D(H  61,C  13,N  12,H  60)   -132.5525         0.016128   
    415. D(C  45,C  13,N  12,H  60)    -12.9261         0.016128   
    416. D(C  45,C  13,N  12,C  11)    174.6835         0.016128   
    417. D(C  14,C  13,N  12,C  11)    -60.5070         0.016128   
    418. D(C  14,C  13,N  12,H  60)    111.8834         0.016128   
    419. D(O  44,C  14,C  13,C  45)    -72.3375         0.009188   
    420. D(O  44,C  14,C  13,N  12)    164.5576         0.009188   
    421. D(N  15,C  14,C  13,H  61)   -135.1694         0.009188   
    422. D(N  15,C  14,C  13,C  45)    106.1746         0.009188   
    423. D(O  44,C  14,C  13,H  61)     46.3185         0.009188   
    424. D(N  15,C  14,C  13,N  12)    -16.9304         0.009188   
    425. D(H  62,N  15,C  14,O  44)   -172.9519         0.031234   
    426. D(H  62,N  15,C  14,C  13)      8.6001         0.031234   
    427. D(C  16,N  15,C  14,O  44)    -13.5568         0.031234   
    428. D(C  16,N  15,C  14,C  13)    167.9952         0.031234   
    429. D(H  64,C  16,N  15,H  62)   -154.9971         0.017033   
    430. D(H  64,C  16,N  15,C  14)     44.3692         0.017033   
    431. D(H  63,C  16,N  15,H  62)    -37.0318         0.017033   
    432. D(H  63,C  16,N  15,C  14)    162.3345         0.017033   
    433. D(C  17,C  16,N  15,C  14)    -75.6054         0.017033   
    434. D(C  17,C  16,N  15,H  62)     85.0283         0.017033   
    435. D(H  65,C  17,C  16,H  64)    -45.8227         0.009854   
    436. D(H  65,C  17,C  16,H  63)   -166.0081         0.009854   
    437. D(H  65,C  17,C  16,N  15)     73.6868         0.009854   
    438. D(O  43,C  17,C  16,H  64)   -166.6622         0.009854   
    439. D(O  43,C  17,C  16,H  63)     73.1524         0.009854   
    440. D(O  43,C  17,C  16,N  15)    -47.1527         0.009854   
    441. D(C  18,C  17,C  16,H  64)     72.5702         0.009854   
    442. D(C  18,C  17,C  16,H  63)    -47.6152         0.009854   
    443. D(C  18,C  17,C  16,N  15)   -167.9203         0.009854   
    444. D(H  66,C  18,C  17,H  65)    -67.8479         0.009502   
    445. D(H  66,C  18,C  17,O  43)     49.6586         0.009502   
    446. D(H  66,C  18,C  17,C  16)    173.1500         0.009502   
    447. D(C  32,C  18,C  17,O  43)    161.5117         0.009502   
    448. D(C  32,C  18,C  17,C  16)    -74.9968         0.009502   
    449. D(C  32,C  18,C  17,H  65)     44.0053         0.009502   
    450. D(C  19,C  18,C  17,H  65)    175.0464         0.009502   
    451. D(C  19,C  18,C  17,O  43)    -67.4472         0.009502   
    452. D(C  19,C  18,C  17,C  16)     56.0442         0.009502   
    453. D(O  31,C  19,C  18,H  66)    101.0645         0.009299   
    454. D(O  31,C  19,C  18,C  32)    -15.1203         0.009299   
    455. D(O  31,C  19,C  18,C  17)   -142.9266         0.009299   
    456. D(N  20,C  19,C  18,H  66)    -74.4473         0.009299   
    457. D(N  20,C  19,C  18,C  17)     41.5616         0.009299   
    458. D(N  20,C  19,C  18,C  32)    169.3679         0.009299   
    459. D(H  67,N  20,C  19,O  31)    175.6297         0.029613   
    460. D(H  67,N  20,C  19,C  18)     -8.9793         0.029613   
    461. D(C  21,N  20,C  19,O  31)     11.1983         0.029613   
    462. D(C  21,N  20,C  19,C  18)   -173.4106         0.029613   
    463. D(H  68,C  21,N  20,H  67)     29.6592         0.017580   
    464. D(H  68,C  21,N  20,C  19)   -166.2653         0.017580   
    465. D(C  27,C  21,N  20,H  67)    148.6828         0.017580   
    466. D(C  27,C  21,N  20,C  19)    -47.2417         0.017580   
    467. D(C  22,C  21,N  20,H  67)    -84.1845         0.017580   
    468. D(C  22,C  21,N  20,C  19)     79.8910         0.017580   
    469. D(N  23,C  22,C  21,C  27)    -70.5120         0.008953   
    470. D(N  23,C  22,C  21,N  20)    159.5842         0.008953   
    471. D(O  26,C  22,C  21,H  68)   -135.2306         0.008953   
    472. D(O  26,C  22,C  21,C  27)    108.5100         0.008953   
    473. D(O  26,C  22,C  21,N  20)    -21.3939         0.008953   
    474. D(N  23,C  22,C  21,H  68)     45.7475         0.008953   
    475. D(H  69,N  23,C  22,O  26)    164.0392         0.028292   
    476. D(H  69,N  23,C  22,C  21)    -16.9346         0.028292   
    477. D(C  24,N  23,C  22,O  26)     13.0444         0.028292   
    478. D(C  24,N  23,C  22,C  21)   -167.9293         0.028292   
    479. D(H  70,C  24,N  23,H  69)    170.7505         0.015701   
    480. D(H  70,C  24,N  23,C  22)    -37.6595         0.015701   
    481. D(C  25,C  24,N  23,H  69)     50.1403         0.015701   
    482. D(C  25,C  24,N  23,C  22)   -158.2698         0.015701   
    483. D(C   7,C  24,N  23,H  69)    -70.2035         0.015701   
    484. D(C   7,C  24,N  23,C  22)     81.3865         0.015701   
    485. D(H  70,C  24,C   7,O   8)    179.4235         0.009525   
    486. D(H  70,C  24,C   7,N   6)      2.4218         0.009525   
    487. D(C  25,C  24,C   7,O   8)    -56.8053         0.009525   
    488. D(C  25,C  24,C   7,N   6)    126.1930         0.009525   
    489. D(N  23,C  24,C   7,O   8)     63.6907         0.009525   
    490. D(N  23,C  24,C   7,N   6)   -113.3109         0.009525   
    491. D(H  73,C  25,C  24,H  70)    177.0638         0.011270   
    492. D(H  73,C  25,C  24,N  23)    -64.9027         0.011270   
    493. D(H  73,C  25,C  24,C   7)     52.8926         0.011270   
    494. D(H  72,C  25,C  24,H  70)     58.3748         0.011270   
    495. D(H  72,C  25,C  24,N  23)    176.4082         0.011270   
    496. D(H  72,C  25,C  24,C   7)    -65.7964         0.011270   
    497. D(H  71,C  25,C  24,H  70)    -62.0568         0.011270   
    498. D(H  71,C  25,C  24,N  23)     55.9766         0.011270   
    499. D(H  71,C  25,C  24,C   7)    173.7720         0.011270   
    500. D(H  75,C  27,C  21,H  68)    172.1349         0.009914   
    501. D(H  75,C  27,C  21,C  22)    -72.6380         0.009914   
    502. D(H  75,C  27,C  21,N  20)     54.0313         0.009914   
    503. D(H  74,C  27,C  21,H  68)    -72.7656         0.009914   
    504. D(H  74,C  27,C  21,C  22)     42.4615         0.009914   
    505. D(H  74,C  27,C  21,N  20)    169.1308         0.009914   
    506. D(C  28,C  27,C  21,H  68)     47.8204         0.009914   
    507. D(C  28,C  27,C  21,C  22)    163.0475         0.009914   
    508. D(C  28,C  27,C  21,N  20)    -70.2832         0.009914   
    509. D(H  76,C  28,C  27,H  75)   -177.8370         0.010211   
    510. D(H  76,C  28,C  27,H  74)     65.0998         0.010211   
    511. D(H  76,C  28,C  27,C  21)    -54.7597         0.010211   
    512. D(C  30,C  28,C  27,H  75)     65.5882         0.010211   
    513. D(C  30,C  28,C  27,H  74)    -51.4750         0.010211   
    514. D(C  30,C  28,C  27,C  21)   -171.3345         0.010211   
    515. D(C  29,C  28,C  27,H  75)    -58.3780         0.010211   
    516. D(C  29,C  28,C  27,H  74)   -175.4412         0.010211   
    517. D(C  29,C  28,C  27,C  21)     64.6993         0.010211   
    518. D(H  79,C  29,C  28,C  30)     52.1369         0.010590   
    519. D(H  79,C  29,C  28,C  27)    175.3668         0.010590   
    520. D(H  78,C  29,C  28,H  76)    174.7349         0.010590   
    521. D(H  78,C  29,C  28,C  30)    -67.6816         0.010590   
    522. D(H  78,C  29,C  28,C  27)     55.5484         0.010590   
    523. D(H  77,C  29,C  28,H  76)     55.0398         0.010590   
    524. D(H  77,C  29,C  28,C  30)    172.6233         0.010590   
    525. D(H  79,C  29,C  28,H  76)    -65.4466         0.010590   
    526. D(H  77,C  29,C  28,C  27)    -64.1468         0.010590   
    527. D(H  82,C  30,C  28,H  76)   -179.6966         0.010580   
    528. D(H  82,C  30,C  28,C  29)     62.5837         0.010580   
    529. D(H  82,C  30,C  28,C  27)    -63.2857         0.010580   
    530. D(H  81,C  30,C  28,H  76)     60.7953         0.010580   
    531. D(H  81,C  30,C  28,C  29)    -56.9244         0.010580   
    532. D(H  81,C  30,C  28,C  27)    177.2062         0.010580   
    533. D(H  80,C  30,C  28,H  76)    -59.9253         0.010580   
    534. D(H  80,C  30,C  28,C  29)   -177.6450         0.010580   
    535. D(H  80,C  30,C  28,C  27)     56.4857         0.010580   
    536. D(O  42,C  32,C  18,H  66)     26.9490         0.009585   
    537. D(O  42,C  32,C  18,C  19)    144.3467         0.009585   
    538. D(O  42,C  32,C  18,C  17)    -85.0638         0.009585   
    539. D(C  33,C  32,C  18,H  66)   -156.3250         0.009585   
    540. D(C  33,C  32,C  18,C  19)    -38.9274         0.009585   
    541. D(C  33,C  32,C  18,C  17)     91.6622         0.009585   
    542. D(H  84,C  33,C  32,O  42)    138.4142         0.011630   
    543. D(H  84,C  33,C  32,C  18)    -38.1952         0.011630   
    544. D(H  83,C  33,C  32,O  42)   -111.7566         0.011630   
    545. D(H  83,C  33,C  32,C  18)     71.6340         0.011630   
    546. D(C  34,C  33,C  32,O  42)     11.9376         0.011630   
    547. D(C  34,C  33,C  32,C  18)   -164.6718         0.011630   
    548. D(H  86,C  34,C  33,H  84)    166.6448         0.011057   
    549. D(H  86,C  34,C  33,H  83)     51.1465         0.011057   
    550. D(H  86,C  34,C  33,C  32)    -68.7849         0.011057   
    551. D(H  85,C  34,C  33,H  84)    -79.9646         0.011057   
    552. D(H  85,C  34,C  33,H  83)    164.5370         0.011057   
    553. D(H  85,C  34,C  33,C  32)     44.6056         0.011057   
    554. D(C  35,C  34,C  33,H  84)     43.4583         0.011057   
    555. D(C  35,C  34,C  33,H  83)    -72.0401         0.011057   
    556. D(C  35,C  34,C  33,C  32)    168.0285         0.011057   
    557. D(H  88,C  35,C  34,H  86)    -89.8263         0.010247   
    558. D(H  88,C  35,C  34,H  85)    155.2873         0.010247   
    559. D(H  88,C  35,C  34,C  33)     32.1539         0.010247   
    560. D(H  87,C  35,C  34,H  86)     25.2695         0.010247   
    561. D(H  87,C  35,C  34,H  85)    -89.6169         0.010247   
    562. D(H  87,C  35,C  34,C  33)    147.2497         0.010247   
    563. D(C  36,C  35,C  34,H  86)    146.1961         0.010247   
    564. D(C  36,C  35,C  34,H  85)     31.3097         0.010247   
    565. D(C  36,C  35,C  34,C  33)    -91.8237         0.010247   
    566. D(H  90,C  36,C  35,H  87)    -54.8890         0.010469   
    567. D(H  90,C  36,C  35,C  34)   -176.6802         0.010469   
    568. D(H  89,C  36,C  35,H  88)    173.7575         0.010469   
    569. D(H  89,C  36,C  35,H  87)     59.5266         0.010469   
    570. D(H  89,C  36,C  35,C  34)    -62.2646         0.010469   
    571. D(C  37,C  36,C  35,H  88)    -63.4218         0.010469   
    572. D(C  37,C  36,C  35,H  87)   -177.6527         0.010469   
    573. D(H  90,C  36,C  35,H  88)     59.3419         0.010469   
    574. D(C  37,C  36,C  35,C  34)     60.5561         0.010469   
    575. D(H  92,C  37,C  36,H  90)    174.8657         0.010806   
    576. D(H  92,C  37,C  36,H  89)     60.5832         0.010806   
    577. D(H  92,C  37,C  36,C  35)    -62.3102         0.010806   
    578. D(H  91,C  37,C  36,H  90)    -68.7833         0.010806   
    579. D(H  91,C  37,C  36,H  89)    176.9343         0.010806   
    580. D(H  91,C  37,C  36,C  35)     54.0408         0.010806   
    581. D(C  38,C  37,C  36,H  90)     53.7622         0.010806   
    582. D(C  38,C  37,C  36,H  89)    -60.5202         0.010806   
    583. D(C  38,C  37,C  36,C  35)    176.5864         0.010806   
    584. D(H  94,C  38,C  37,H  92)   -173.5173         0.010934   
    585. D(H  94,C  38,C  37,H  91)     71.0652         0.010934   
    586. D(H  94,C  38,C  37,C  36)    -51.4870         0.010934   
    587. D(H  93,C  38,C  37,H  92)    -58.5939         0.010934   
    588. D(H  93,C  38,C  37,H  91)   -174.0114         0.010934   
    589. D(H  93,C  38,C  37,C  36)     63.4364         0.010934   
    590. D(C  39,C  38,C  37,H  92)     64.2128         0.010934   
    591. D(C  39,C  38,C  37,H  91)    -51.2047         0.010934   
    592. D(C  39,C  38,C  37,C  36)   -173.7569         0.010934   
    593. D(H  95,C  39,C  38,H  94)    -63.0329         0.010869   
    594. D(H  95,C  39,C  38,H  93)   -177.7989         0.010869   
    595. D(H  95,C  39,C  38,C  37)     59.4905         0.010869   
    596. D(C  40,C  39,C  38,H  94)     58.9310         0.010869   
    597. D(C  40,C  39,C  38,H  93)    -55.8349         0.010869   
    598. D(C  40,C  39,C  38,C  37)   -178.5455         0.010869   
    599. D(H  96,C  39,C  38,H  94)   -178.4377         0.010869   
    600. D(H  96,C  39,C  38,H  93)     66.7964         0.010869   
    601. D(H  96,C  39,C  38,C  37)    -55.9142         0.010869   
    602. D(H  98,C  40,C  39,H  95)     71.6652         0.010765   
    603. D(H  98,C  40,C  39,C  38)    -50.0601         0.010765   
    604. D(H  97,C  40,C  39,H  96)    -58.0152         0.010765   
    605. D(H  97,C  40,C  39,H  95)   -173.7513         0.010765   
    606. D(H  97,C  40,C  39,C  38)     64.5234         0.010765   
    607. D(C  41,C  40,C  39,H  96)     64.9931         0.010765   
    608. D(C  41,C  40,C  39,H  95)    -50.7429         0.010765   
    609. D(H  98,C  40,C  39,H  96)   -172.5987         0.010765   
    610. D(C  41,C  40,C  39,C  38)   -172.4683         0.010765   
    611. D(H 101,C  41,C  40,H  98)    -59.8660         0.011096   
    612. D(H 101,C  41,C  40,H  97)   -174.9247         0.011096   
    613. D(H 101,C  41,C  40,C  39)     62.4599         0.011096   
    614. D(H 100,C  41,C  40,H  98)   -179.4969         0.011096   
    615. D(H 100,C  41,C  40,H  97)     65.4443         0.011096   
    616. D(H 100,C  41,C  40,C  39)    -57.1710         0.011096   
    617. D(H  99,C  41,C  40,H  98)     60.2356         0.011096   
    618. D(H  99,C  41,C  40,H  97)    -54.8231         0.011096   
    619. D(H  99,C  41,C  40,C  39)   -177.4385         0.011096   
    620. D(H 102,O  43,C  17,H  65)    -53.2038         0.018402   
    621. D(H 102,O  43,C  17,C  18)   -169.5357         0.018402   
    622. D(H 102,O  43,C  17,C  16)     67.1915         0.018402   
    623. D(H 104,C  45,C  13,H  61)     69.7614         0.010332   
    624. D(H 104,C  45,C  13,C  14)   -174.9940         0.010332   
    625. D(H 104,C  45,C  13,N  12)    -49.1919         0.010332   
    626. D(H 103,C  45,C  13,H  61)   -175.7163         0.010332   
    627. D(H 103,C  45,C  13,C  14)    -60.4717         0.010332   
    628. D(H 103,C  45,C  13,N  12)     65.3304         0.010332   
    629. D(C  46,C  45,C  13,H  61)    -52.7431         0.010332   
    630. D(C  46,C  45,C  13,C  14)     62.5015         0.010332   
    631. D(C  46,C  45,C  13,N  12)   -171.6964         0.010332   
    632. D(H 107,C  46,C  45,H 104)    -59.2327         0.011245   
    633. D(H 107,C  46,C  45,H 103)   -176.0934         0.011245   
    634. D(H 107,C  46,C  45,C  13)     61.9991         0.011245   
    635. D(H 106,C  46,C  45,H 104)   -178.3870         0.011245   
    636. D(H 106,C  46,C  45,H 103)     64.7524         0.011245   
    637. D(H 106,C  46,C  45,C  13)    -57.1552         0.011245   
    638. D(H 105,C  46,C  45,H 104)     60.5426         0.011245   
    639. D(H 105,C  46,C  45,H 103)    -56.3181         0.011245   
    640. D(H 105,C  46,C  45,C  13)   -178.2256         0.011245   
    641. D(H 108,C  48,C  10,H  59)    -62.0204         0.009940   
    642. D(H 108,C  48,C  10,C  11)     51.5637         0.009940   
    643. D(H 108,C  48,C  10,N   9)    177.4857         0.009940   
    644. D(C  50,C  48,C  10,H  59)   -179.0721         0.009940   
    645. D(C  50,C  48,C  10,C  11)    -65.4880         0.009940   
    646. D(C  50,C  48,C  10,N   9)     60.4339         0.009940   
    647. D(C  49,C  48,C  10,H  59)     54.1291         0.009940   
    648. D(C  49,C  48,C  10,C  11)    167.7132         0.009940   
    649. D(C  49,C  48,C  10,N   9)    -66.3648         0.009940   
    650. D(H 111,C  49,C  48,C  50)     58.0511         0.010684   
    651. D(H 111,C  49,C  48,C  10)   -174.6391         0.010684   
    652. D(H 110,C  49,C  48,H 108)    179.6098         0.010684   
    653. D(H 110,C  49,C  48,C  50)    -61.3543         0.010684   
    654. D(H 110,C  49,C  48,C  10)     65.9555         0.010684   
    655. D(H 109,C  49,C  48,H 108)     59.2950         0.010684   
    656. D(H 109,C  49,C  48,C  50)    178.3308         0.010684   
    657. D(H 111,C  49,C  48,H 108)    -60.9847         0.010684   
    658. D(H 109,C  49,C  48,C  10)    -54.3593         0.010684   
    659. D(H 114,C  50,C  48,H 108)    179.7882         0.010660   
    660. D(H 114,C  50,C  48,C  49)     60.7246         0.010660   
    661. D(H 114,C  50,C  48,C  10)    -65.5166         0.010660   
    662. D(H 113,C  50,C  48,H 108)     61.0012         0.010660   
    663. D(H 113,C  50,C  48,C  49)    -58.0624         0.010660   
    664. D(H 113,C  50,C  48,C  10)    175.6965         0.010660   
    665. D(H 112,C  50,C  48,H 108)    -59.1044         0.010660   
    666. D(H 112,C  50,C  48,C  49)   -178.1680         0.010660   
    667. D(H 112,C  50,C  48,C  10)     55.5908         0.010660   
    -----------------------------------------------------------------

Number of atoms                         .... 115
Number of degrees of freedom            .... 667

Time needed for optimization step       :     1.94 sec

         *************************************************************
         *                GEOMETRY OPTIMIZATION CYCLE   1            *
         *************************************************************
---------------------------------
CARTESIAN COORDINATES (ANGSTROEM)
---------------------------------
  O      1.418999    1.621291   -0.677881
  C      1.398791    2.619456   -1.407059
  C      0.950568    2.533886   -2.878198
  C     -0.584378    2.691501   -2.989393
  C     -1.100212    1.276734   -2.676810
  C     -0.057471    0.353089   -3.329274
  N      1.173149    1.174103   -3.355821
  C      2.466489    0.740251   -3.416062
  O      3.416583    1.516996   -3.253977
  N      1.619367    3.867136   -0.896693
  C      1.909869    4.004177    0.529301
  C      0.723690    3.514979    1.389779
  N     -0.505342    3.614019    0.815782
  C     -1.728999    3.106003    1.425795
  C     -1.703650    1.577516    1.674854
  N     -0.757544    0.867983    0.999897
  C     -0.472939   -0.512416    1.345684
  C      0.358985   -0.606921    2.647683
  C      0.924623   -2.036650    2.868932
  C      1.780881   -2.578710    1.700009
  N      2.620391   -1.632083    1.178810
  C      3.448167   -1.779370    0.001168
  C      2.595040   -1.571467   -1.279449
  N      3.340711   -1.253767   -2.389166
  C      2.723691   -0.767582   -3.622490
  C      3.645466   -0.997624   -4.819710
  O      1.370328   -1.696872   -1.306599
  C      4.275663   -3.083410   -0.089391
  C      5.449689   -3.207940    0.903674
  C      5.012353   -3.268008    2.376325
  C      6.289498   -4.443445    0.540025
  O      1.754906   -3.763349    1.353562
  C     -0.218846   -2.960278    3.336708
  C     -1.018260   -3.737779    2.312152
  C     -2.328637   -4.307002    2.862842
  C     -3.286204   -4.844483    1.779979
  C     -4.309039   -3.822588    1.252463
  C     -3.732142   -2.567268    0.584693
  C     -4.810921   -1.640572    0.013051
  C     -4.269609   -0.453166   -0.792561
  C     -5.382116    0.466367   -1.315091
  C     -4.900239    1.558483   -2.273157
  O     -0.490581   -2.993488    4.529752
  O      1.467368    0.296800    2.646850
  O     -2.533420    1.065603    2.430798
  C     -2.924815    3.520630    0.546707
  C     -4.298291    3.234701    1.153918
  O      0.906541    3.070860    2.529696
  C      2.343321    5.439955    0.907349
  C      3.694798    5.792934    0.268181
  C      1.267154    6.492061    0.598228
  H      1.514619    3.268786   -3.488694
  H     -0.841267    2.994041   -4.025643
  H     -0.987049    3.471656   -2.311882
  H     -1.123841    1.105660   -1.582155
  H     -2.121559    1.098087   -3.059831
  H      0.111440   -0.566721   -2.734919
  H     -0.353128    0.076908   -4.365515
  H      1.759577    4.659704   -1.526785
  H      2.728278    3.302858    0.796474
  H     -0.544944    3.965660   -0.144271
  H     -1.834079    3.547024    2.439899
  H     -0.017458    1.340821    0.463901
  H      0.067653   -0.973669    0.494993
  H     -1.433744   -1.039488    1.491075
  H     -0.305098   -0.373075    3.509038
  H      1.596409   -1.948206    3.749031
  H      2.462439   -0.671162    1.531720
  H      4.167266   -0.928335    0.027903
  H      4.298083   -0.927587   -2.229561
  H      1.778044   -1.326963   -3.742209
  H      3.918705   -2.067696   -4.899382
  H      3.147332   -0.686648   -5.759311
  H      4.565826   -0.389056   -4.709527
  H      4.687415   -3.131590   -1.119738
  H      3.580512   -3.937683    0.027518
  H      6.096385   -2.306661    0.773112
  H      4.519243   -2.331441    2.698688
  H      4.290263   -4.095199    2.535330
  H      5.886453   -3.440369    3.037862
  H      6.651980   -4.401015   -0.508405
  H      7.174137   -4.539300    1.202568
  H      5.687433   -5.370593    0.648683
  H     -0.335005   -4.531572    1.936735
  H     -1.172014   -3.103351    1.415366
  H     -2.842233   -3.528231    3.468061
  H     -2.079186   -5.107604    3.588861
  H     -3.854473   -5.705938    2.191056
  H     -2.696011   -5.255672    0.929749
  H     -4.965381   -3.506296    2.095246
  H     -4.980971   -4.333339    0.525973
  H     -3.028632   -2.865667   -0.226307
  H     -3.131155   -1.989915    1.319930
  H     -5.443689   -1.260785    0.846829
  H     -5.496238   -2.232198   -0.636999
  H     -3.669625   -0.836795   -1.649835
  H     -3.560577    0.132251   -0.164908
  H     -5.901575    0.931988   -0.448545
  H     -6.153369   -0.152821   -1.826071
  H     -5.727484    2.226232   -2.589616
  H     -4.121483    2.194133   -1.802966
  H     -4.457489    1.120564   -3.193132
  H      1.153544    1.234214    2.677159
  H     -2.827308    2.999592   -0.432622
  H     -2.824066    4.609067    0.337403
  H     -5.101490    3.531014    0.450236
  H     -4.411993    2.161980    1.397797
  H     -4.441381    3.801138    2.096462
  H      2.481329    5.400730    2.009248
  H      4.470218    5.042995    0.522416
  H      3.630433    5.842336   -0.839984
  H      4.047514    6.783800    0.617753
  H      0.302187    6.252481    1.086854
  H      1.587854    7.491132    0.954482
  H      1.079143    6.587794   -0.493462

----------------------------
CARTESIAN COORDINATES (A.U.)
----------------------------
  NO LB      ZA    FRAG     MASS         X           Y           Z
   0 O     8.0000    0    15.999    2.681519    3.063796   -1.281010
   1 C     6.0000    0    12.011    2.643333    4.950055   -2.658957
   2 C     6.0000    0    12.011    1.796312    4.788350   -5.439005
   3 C     6.0000    0    12.011   -1.104314    5.086199   -5.649134
   4 C     6.0000    0    12.011   -2.079099    2.412679   -5.058438
   5 C     6.0000    0    12.011   -0.108605    0.667242   -6.291417
   6 N     7.0000    0    14.007    2.216931    2.218733   -6.341582
   7 C     6.0000    0    12.011    4.660988    1.398871   -6.455422
   8 O     8.0000    0    15.999    6.456406    2.866707   -6.149125
   9 N     7.0000    0    14.007    3.060160    7.307828   -1.694505
  10 C     6.0000    0    12.011    3.609129    7.566797    1.000234
  11 C     6.0000    0    12.011    1.367576    6.642347    2.626301
  12 N     7.0000    0    14.007   -0.954958    6.829506    1.541605
  13 C     6.0000    0    12.011   -3.267334    5.869495    2.694362
  14 C     6.0000    0    12.011   -3.219433    2.981074    3.165015
  15 N     7.0000    0    14.007   -1.431550    1.640250    1.889531
  16 C     6.0000    0    12.011   -0.893725   -0.968327    2.542974
  17 C     6.0000    0    12.011    0.678383   -1.146915    5.003395
  18 C     6.0000    0    12.011    1.747284   -3.848711    5.421496
  19 C     6.0000    0    12.011    3.365378   -4.873056    3.212552
  20 N     7.0000    0    14.007    4.951821   -3.084190    2.227627
  21 C     6.0000    0    12.011    6.516092   -3.362523    0.002208
  22 C     6.0000    0    12.011    4.903915   -2.969643   -2.417808
  23 N     7.0000    0    14.007    6.313029   -2.369276   -4.514870
  24 C     6.0000    0    12.011    5.147030   -1.450520   -6.845513
  25 C     6.0000    0    12.011    6.888931   -1.885237   -9.107932
  26 O     8.0000    0    15.999    2.589545   -3.206623   -2.469114
  27 C     6.0000    0    12.011    8.079832   -5.826801   -0.168925
  28 C     6.0000    0    12.011   10.298421   -6.062128    1.707696
  29 C     6.0000    0    12.011    9.471975   -6.175641    4.490604
  30 C     6.0000    0    12.011   11.885429   -8.396894    1.020500
  31 O     8.0000    0    15.999    3.316291   -7.111699    2.557861
  32 C     6.0000    0    12.011   -0.413558   -5.594114    6.305464
  33 C     6.0000    0    12.011   -1.924233   -7.063378    4.369334
  34 C     6.0000    0    12.011   -4.400487   -8.139055    5.409988
  35 C     6.0000    0    12.011   -6.210025   -9.154745    3.363674
  36 C     6.0000    0    12.011   -8.142903   -7.223644    2.366812
  37 C     6.0000    0    12.011   -7.052725   -4.851434    1.104910
  38 C     6.0000    0    12.011   -9.091323   -3.100233    0.024663
  39 C     6.0000    0    12.011   -8.068392   -0.856359   -1.497723
  40 C     6.0000    0    12.011  -10.170725    0.881306   -2.485162
  41 C     6.0000    0    12.011   -9.260110    2.945105   -4.295644
  42 O     8.0000    0    15.999   -0.927063   -5.656872    8.559991
  43 O     8.0000    0    15.999    2.772923    0.560872    5.001821
  44 O     8.0000    0    15.999   -4.787470    2.013698    4.593542
  45 C     6.0000    0    12.011   -5.527099    6.653027    1.033126
  46 C     6.0000    0    12.011   -8.122593    6.112700    2.180590
  47 O     8.0000    0    15.999    1.713115    5.803084    4.780432
  48 C     6.0000    0    12.011    4.428235   10.280025    1.714641
  49 C     6.0000    0    12.011    6.982156   10.947059    0.506788
  50 C     6.0000    0    12.011    2.394573   12.268217    1.130488
  51 H     1.0000    0     1.008    2.862215    6.177110   -6.592677
  52 H     1.0000    0     1.008   -1.589764    5.657917   -7.607363
  53 H     1.0000    0     1.008   -1.865252    6.560479   -4.368823
  54 H     1.0000    0     1.008   -2.123751    2.089395   -2.989840
  55 H     1.0000    0     1.008   -4.009166    2.075084   -5.782242
  56 H     1.0000    0     1.008    0.210590   -1.070948   -5.168247
  57 H     1.0000    0     1.008   -0.667316    0.145336   -8.249627
  58 H     1.0000    0     1.008    3.325118    8.805565   -2.885205
  59 H     1.0000    0     1.008    5.155698    6.241496    1.505117
  60 H     1.0000    0     1.008   -1.029795    7.494012   -0.272633
  61 H     1.0000    0     1.008   -3.465908    6.702904    4.610740
  62 H     1.0000    0     1.008   -0.032992    2.533784    0.876646
  63 H     1.0000    0     1.008    0.127845   -1.839967    0.935401
  64 H     1.0000    0     1.008   -2.709383   -1.964347    2.817724
  65 H     1.0000    0     1.008   -0.576552   -0.705010    6.631120
  66 H     1.0000    0     1.008    3.016775   -3.681575    7.084642
  67 H     1.0000    0     1.008    4.653336   -1.268312    2.894531
  68 H     1.0000    0     1.008    7.874992   -1.754299    0.052729
  69 H     1.0000    0     1.008    8.122200   -1.752885   -4.213260
  70 H     1.0000    0     1.008    3.360016   -2.507597   -7.071751
  71 H     1.0000    0     1.008    7.405279   -3.907379   -9.258490
  72 H     1.0000    0     1.008    5.947595   -1.297576  -10.883521
  73 H     1.0000    0     1.008    8.628161   -0.735209   -8.899717
  74 H     1.0000    0     1.008    8.857931   -5.917848   -2.115998
  75 H     1.0000    0     1.008    6.766188   -7.441142    0.052001
  76 H     1.0000    0     1.008   11.520499   -4.358958    1.460970
  77 H     1.0000    0     1.008    8.540133   -4.405784    5.099782
  78 H     1.0000    0     1.008    8.107423   -7.738805    4.791080
  79 H     1.0000    0     1.008   11.123785   -6.501356    5.740727
  80 H     1.0000    0     1.008   12.570420   -8.316714   -0.960747
  81 H     1.0000    0     1.008   13.557154   -8.578034    2.272523
  82 H     1.0000    0     1.008   10.747690  -10.148951    1.225834
  83 H     1.0000    0     1.008   -0.633067   -8.563429    3.659898
  84 H     1.0000    0     1.008   -2.214785   -5.864483    2.674654
  85 H     1.0000    0     1.008   -5.371042   -6.667391    6.553686
  86 H     1.0000    0     1.008   -3.929092   -9.651973    6.781965
  87 H     1.0000    0     1.008   -7.283898  -10.782660    4.140496
  88 H     1.0000    0     1.008   -5.094722   -9.931781    1.756972
  89 H     1.0000    0     1.008   -9.383211   -6.625938    3.959441
  90 H     1.0000    0     1.008   -9.412671   -8.188823    0.993945
  91 H     1.0000    0     1.008   -5.723285   -5.415325   -0.427659
  92 H     1.0000    0     1.008   -5.917026   -3.760394    2.494307
  93 H     1.0000    0     1.008  -10.287081   -2.382538    1.600275
  94 H     1.0000    0     1.008  -10.386385   -4.218243   -1.203753
  95 H     1.0000    0     1.008   -6.934586   -1.581313   -3.117736
  96 H     1.0000    0     1.008   -6.728516    0.249918   -0.311632
  97 H     1.0000    0     1.008  -11.152361    1.761201   -0.847627
  98 H     1.0000    0     1.008  -11.628182   -0.288790   -3.450775
  99 H     1.0000    0     1.008  -10.823376    4.206970   -4.893666
 100 H     1.0000    0     1.008   -7.788474    4.146310   -3.407112
 101 H     1.0000    0     1.008   -8.423433    2.117559   -6.034145
 102 H     1.0000    0     1.008    2.179883    2.332326    5.059097
 103 H     1.0000    0     1.008   -5.342839    5.668408   -0.817536
 104 H     1.0000    0     1.008   -5.336712    8.709874    0.637600
 105 H     1.0000    0     1.008   -9.640420    6.672649    0.850823
 106 H     1.0000    0     1.008   -8.337459    4.085550    2.641454
 107 H     1.0000    0     1.008   -8.392994    7.183110    3.961738
 108 H     1.0000    0     1.008    4.689032   10.205901    3.796928
 109 H     1.0000    0     1.008    8.447488    9.529879    0.987224
 110 H     1.0000    0     1.008    6.860524   11.040415   -1.587340
 111 H     1.0000    0     1.008    7.648693   12.819525    1.167383
 112 H     1.0000    0     1.008    0.571051   11.815477    2.053857
 113 H     1.0000    0     1.008    3.000609   14.156188    1.803709
 114 H     1.0000    0     1.008    2.039285   12.449126   -0.932507

--------------------------------
INTERNAL COORDINATES (ANGSTROEM)
--------------------------------
 O      0   0   0     0.000000000000     0.00000000     0.00000000
 C      1   0   0     1.236302202074     0.00000000     0.00000000
 C      2   1   0     1.540284125595   121.54921915     0.00000000
 C      3   2   1     1.547017920712   110.59258077    86.89851907
 C      4   3   2     1.537971423783   102.97061794   277.83521185
 C      5   4   3     1.538225219600   103.81503178   323.11440949
 N      3   2   1     1.458312942589   108.67508612   334.66768585
 C      7   3   2     1.365497754284   117.08235465   295.38628631
 O      8   7   3     1.237854607961   121.45486597   350.18794586
 N      2   1   3     1.365954161646   120.96138516   172.06975626
 C     10   2   1     1.461722391456   118.83105106     1.28978216
 C     11  10   2     1.544912955839   111.16669644   297.65948693
 N     12  11  10     1.360074060685   115.82983236   332.10034054
 C     13  12  11     1.458605874773   123.79542946   174.85964343
 C     14  13  12     1.548852781339   113.40509647   299.49297012
 N     15  14  13     1.361661750072   116.48035821   343.06964011
 C     16  15  14     1.451230744258   120.91732905   167.99517067
 C     17  16  15     1.547975814842   111.33846678   284.39462417
 C     18  17  16     1.553390635512   111.81937520   192.07968870
 C     19  18  17     1.547057692270   114.60808006    56.04423571
 N     20  19  18     1.368403584511   112.64097943    41.56162382
 C     21  20  19     1.446978400004   126.19487569   186.58935585
 C     22  21  20     1.552749222383   110.07706159    79.89100413
 N     23  22  21     1.374201681222   113.50512510   159.58419485
 C     24  23  22     1.462250418500   121.93862019   192.07065136
 C     25  24  23     1.528372905677   110.86440768   201.73021378
 O     23  22  21     1.231414945692   123.43478195   338.60614779
 C     22  21  20     1.547084256690   116.06722404   312.75829527
 C     28  22  21     1.542732694022   115.93820882   289.71683981
 C     29  28  22     1.537391591621   113.78288662    64.69927144
 C     29  28  22     1.537527234867   109.16468625   188.66547225
 O     20  19  18     1.234532566191   122.45339922   217.07343552
 C     19  18  17     1.542537639519   108.92739314   285.00317917
 C     33  19  18     1.514360028785   119.57566029    91.66219901
 C     34  33  19     1.531131476875   113.53557741   195.32821691
 C     35  34  33     1.542209682359   114.10521036   168.02853646
 C     36  35  34     1.539069165253   114.95471590   268.17634821
 C     37  36  35     1.534455843056   116.26269789    60.55610498
 C     38  37  36     1.532744082309   113.09816413   176.58636154
 C     39  38  37     1.533611502095   114.55728751   186.24310231
 C     40  39  38     1.535007938603   112.75646147   181.45448074
 C     41  40  39     1.530624444488   114.35090621   187.53169649
 O     33  19  18     1.224049825177   118.44916352   274.93624624
 O     18  17  16     1.430114229206   112.17602654   312.84727340
 O     15  14  13     1.233703282638   119.80220137   164.55758864
 C     14  13  12     1.541002466659   108.58511210   174.68350577
 C     46  14  13     1.528691694154   114.85273531   188.30363721
 O     12  11  10     1.236966908719   120.89511459   152.42732811
 C     11  10   2     1.546693365943   112.40644131   171.34137453
 C     49  11  10     1.536104921807   110.98769920   293.63518256
 C     49  11  10     1.536430393166   112.96680559    60.43394839
 H      3   2   1     1.109476354167   109.92639407   212.89639526
 H      4   3   2     1.109656044648   108.94114840   159.61745010
 H      4   3   2     1.108966790464   112.83214032    40.76862211
 H      5   4   3     1.108194263772   110.48225900    80.91705900
 H      5   4   3     1.105337555222   112.84009927   201.05456532
 H      6   5   4     1.108079888679   111.97842519   144.39140365
 H      6   5   4     1.112422157383   111.34780164   267.38452739
 H     10   2   1     1.022173499861   120.00476098   169.46813211
 H     11  10   2     1.110415698192   108.78324639    50.88427509
 H     13  12  11     1.023192379611   117.12875359     2.36156396
 H     14  13  12     1.110832121188   108.83723575    55.05706894
 H     16  15  14     1.028879553622   121.23496953     8.60009528
 H     17  16  15     1.108453147393   107.97445829   162.33450529
 H     17  16  15     1.105481513165   108.32456965    44.36923388
 H     18  17  16     1.112484792412   108.51709337    73.68681134
 H     19  18  17     1.110717522810   105.05833185   173.14999331
 H     21  20  19     1.035791450844   114.73644420   351.02072198
 H     22  21  20     1.114486276757   105.77538256   193.73469625
 H     24  23  22     1.023928341205   117.07280687   343.06539097
 H     25  24  23     1.105210043015   106.50657181   322.34048645
 H     26  25  24     1.107276067077   110.52691305    55.97661293
 H     26  25  24     1.108013654327   110.54131364   176.40821798
 H     26  25  24     1.108855060775   109.88559639   295.09725744
 H     28  22  21     1.110619895783   106.80831807   169.13084667
 H     28  22  21     1.107557228060   107.95388362    54.03130955
 H     29  28  22     1.116945006288   107.47159518   305.24029361
 H     30  29  28     1.106451489693   111.88746963   295.85322132
 H     30  29  28     1.109477871445   110.58228518    55.54837242
 H     30  29  28     1.109679871272   110.67337258   175.36679685
 H     31  29  28     1.110135213656   111.77757158    56.48569767
 H     31  29  28     1.109385355991   111.32967247   177.20624558
 H     31  29  28     1.110807723014   110.58043362   296.71433958
 H     34  33  19     1.112602212543   105.68858316    71.63395036
 H     34  33  19     1.109217493099   109.05691864   321.80478520
 H     35  34  33     1.112004690490   109.30908459    44.60561757
 H     35  34  33     1.109185760100   108.13666884   291.21507885
 H     36  35  34     1.110864401556   109.15117565   147.24970305
 H     36  35  34     1.113685764256   109.61378927    32.15394712
 H     37  36  35     1.114051050823   108.70852448   297.73539719
 H     37  36  35     1.113618840483   108.66709551   183.31975882
 H     38  37  36     1.114310913811   109.57345240    54.04081822
 H     38  37  36     1.111348534471   109.90167845   297.68976968
 H     39  38  37     1.113471673164   109.08189918    63.43643565
 H     39  38  37     1.114560821438   109.22948542   308.51304556
 H     40  39  38     1.114482494449   109.12164865    59.49053491
 H     40  39  38     1.113277457817   109.62000828   304.08579166
 H     41  40  39     1.112449065788   108.90467469    64.52335858
 H     41  40  39     1.113250181743   108.97575041   309.93987393
 H     42  41  40     1.109220321615   111.92039929   182.56151281
 H     42  41  40     1.109771196269   111.37096267   302.82895915
 H     42  41  40     1.110925504323   111.25711317    62.45994954
 H     44  18  17     0.989013259384   110.67155620    67.19154680
 H     46  14  13     1.113585168352   107.92961342    65.33042750
 H     46  14  13     1.112947304256   107.46804754   310.80809760
 H     47  46  14     1.108196110630   110.42360106   181.77442213
 H     47  46  14     1.105954968325   111.18508491   302.84484962
 H     47  46  14     1.108924113943   110.97781299    61.99906852
 H     49  11  10     1.111200577123   104.14723144   177.48569038
 H     50  49  11     1.108296510009   111.38418944   305.64065782
 H     50  49  11     1.111131481715   111.97718521    65.95551033
 H     50  49  11     1.108343741360   110.74338510   185.36091634
 H     51  49  11     1.107841842506   111.91768965    55.59084853
 H     51  49  11     1.108110579419   110.48691044   175.69645820
 H     51  49  11     1.111890122921   112.02025097   294.48341064

---------------------------
INTERNAL COORDINATES (A.U.)
---------------------------
 O      0   0   0     0.000000000000     0.00000000     0.00000000
 C      1   0   0     2.336272580684     0.00000000     0.00000000
 C      2   1   0     2.910715165802   121.54921915     0.00000000
 C      3   2   1     2.923440194414   110.59258077    86.89851907
 C      4   3   2     2.906344792747   102.97061794   277.83521185
 C      5   4   3     2.906824397336   103.81503178   323.11440949
 N      3   2   1     2.755812079046   108.67508612   334.66768585
 C      7   3   2     2.580416792081   117.08235465   295.38628631
 O      8   7   3     2.339206202659   121.45486597   350.18794586
 N      2   1   3     2.581279277001   120.96138516   172.06975626
 C     10   2   1     2.762255003672   118.83105106     1.28978216
 C     11  10   2     2.919462387282   111.16669644   297.65948693
 N     12  11  10     2.570167496545   115.82983236   332.10034054
 C     13  12  11     2.756365640650   123.79542946   174.85964343
 C     14  13  12     2.926907578493   113.40509647   299.49297012
 N     15  14  13     2.573167794672   116.48035821   343.06964011
 C     16  15  14     2.742428663773   120.91732905   167.99517067
 C     17  16  15     2.925250351985   111.33846678   284.39462417
 C     18  17  16     2.935482880116   111.81937520   192.07968870
 C     19  18  17     2.923515351766   114.60808006    56.04423571
 N     20  19  18     2.585908015401   112.64097943    41.56162382
 C     21  20  19     2.734392897707   126.19487569   186.58935585
 C     22  21  20     2.934270784963   110.07706159    79.89100413
 N     23  22  21     2.596864830284   113.50512510   159.58419485
 C     24  23  22     2.763252830176   121.93862019   192.07065136
 C     25  24  23     2.888206222234   110.86440768   201.73021378
 O     23  22  21     2.327037004575   123.43478195   338.60614779
 C     22  21  20     2.923565551245   116.06722404   312.75829527
 C     28  22  21     2.915342289548   115.93820882   289.71683981
 C     29  28  22     2.905249068756   113.78288662    64.69927144
 C     29  28  22     2.905505397344   109.16468625   188.66547225
 O     20  19  18     2.332928453508   122.45339922   217.07343552
 C     19  18  17     2.914973689957   108.92739314   285.00317917
 C     33  19  18     2.861725722562   119.57566029    91.66219901
 C     34  33  19     2.893419166320   113.53557741   195.32821691
 C     35  34  33     2.914353940741   114.10521036   168.02853646
 C     36  35  34     2.908419223491   114.95471590   268.17634821
 C     37  36  35     2.899701307971   116.26269789    60.55610498
 C     38  37  36     2.896466548952   113.09816413   176.58636154
 C     39  38  37     2.898105734791   114.55728751   186.24310231
 C     40  39  38     2.900744617355   112.75646147   181.45448074
 C     41  40  39     2.892461013967   114.35090621   187.53169649
 O     33  19  18     2.313118943859   118.44916352   274.93624624
 O     18  17  16     2.702524233424   112.17602654   312.84727340
 O     15  14  13     2.331361334705   119.80220137   164.55758864
 C     14  13  12     2.912072633682   108.58511210   174.68350577
 C     46  14  13     2.888808645151   114.85273531   188.30363721
 O     12  11  10     2.337528694203   120.89511459   152.42732811
 C     11  10   2     2.922826874785   112.40644131   171.34137453
 C     49  11  10     2.902817615184   110.98769920   293.63518256
 C     49  11  10     2.903432666918   112.96680559    60.43394839
 H      3   2   1     2.096606461437   109.92639407   212.89639526
 H      4   3   2     2.096946027234   108.94114840   159.61745010
 H      4   3   2     2.095643525591   112.83214032    40.76862211
 H      5   4   3     2.094183661712   110.48225900    80.91705900
 H      5   4   3     2.088785264908   112.84009927   201.05456532
[...]
freq.      84.33  E(vib)   ...       0.48 
freq.      89.61  E(vib)   ...       0.47 
freq.      99.23  E(vib)   ...       0.46 
freq.     103.86  E(vib)   ...       0.46 
freq.     106.14  E(vib)   ...       0.45 
freq.     118.43  E(vib)   ...       0.44 
freq.     120.89  E(vib)   ...       0.44 
freq.     125.89  E(vib)   ...       0.43 
freq.     130.21  E(vib)   ...       0.43 
freq.     133.45  E(vib)   ...       0.42 
freq.     134.57  E(vib)   ...       0.42 
freq.     139.87  E(vib)   ...       0.41 
freq.     148.74  E(vib)   ...       0.41 
freq.     153.66  E(vib)   ...       0.40 
freq.     157.78  E(vib)   ...       0.40 
freq.     160.03  E(vib)   ...       0.39 
freq.     164.99  E(vib)   ...       0.39 
freq.     171.34  E(vib)   ...       0.38 
freq.     180.80  E(vib)   ...       0.37 
freq.     191.92  E(vib)   ...       0.36 
freq.     196.72  E(vib)   ...       0.36 
freq.     208.56  E(vib)   ...       0.34 
freq.     210.43  E(vib)   ...       0.34 
freq.     217.25  E(vib)   ...       0.34 
freq.     222.69  E(vib)   ...       0.33 
freq.     225.47  E(vib)   ...       0.33 
freq.     228.71  E(vib)   ...       0.32 
freq.     231.17  E(vib)   ...       0.32 
freq.     234.40  E(vib)   ...       0.32 
freq.     236.71  E(vib)   ...       0.32 
freq.     238.41  E(vib)   ...       0.32 
freq.     243.80  E(vib)   ...       0.31 
freq.     246.57  E(vib)   ...       0.31 
freq.     256.67  E(vib)   ...       0.30 
freq.     260.55  E(vib)   ...       0.30 
freq.     262.17  E(vib)   ...       0.29 
freq.     273.07  E(vib)   ...       0.29 
freq.     279.22  E(vib)   ...       0.28 
freq.     281.96  E(vib)   ...       0.28 
freq.     289.50  E(vib)   ...       0.27 
freq.     302.26  E(vib)   ...       0.26 
freq.     307.46  E(vib)   ...       0.26 
freq.     309.14  E(vib)   ...       0.26 
freq.     322.14  E(vib)   ...       0.25 
freq.     324.81  E(vib)   ...       0.24 
freq.     336.66  E(vib)   ...       0.24 
freq.     340.13  E(vib)   ...       0.23 
freq.     347.36  E(vib)   ...       0.23 
freq.     361.23  E(vib)   ...       0.22 
freq.     368.11  E(vib)   ...       0.21 
freq.     372.21  E(vib)   ...       0.21 
freq.     377.42  E(vib)   ...       0.21 
freq.     380.02  E(vib)   ...       0.21 
freq.     387.91  E(vib)   ...       0.20 
freq.     391.90  E(vib)   ...       0.20 
freq.     410.82  E(vib)   ...       0.19 
freq.     418.20  E(vib)   ...       0.18 
freq.     421.28  E(vib)   ...       0.18 
freq.     432.80  E(vib)   ...       0.17 
freq.     444.78  E(vib)   ...       0.17 
freq.     460.81  E(vib)   ...       0.16 
freq.     477.66  E(vib)   ...       0.15 
freq.     491.97  E(vib)   ...       0.14 
freq.     495.94  E(vib)   ...       0.14 
freq.     512.91  E(vib)   ...       0.13 
freq.     516.19  E(vib)   ...       0.13 
freq.     530.01  E(vib)   ...       0.13 
freq.     545.01  E(vib)   ...       0.12 
freq.     547.06  E(vib)   ...       0.12 
freq.     559.30  E(vib)   ...       0.12 
freq.     562.51  E(vib)   ...       0.11 
freq.     578.82  E(vib)   ...       0.11 
freq.     606.82  E(vib)   ...       0.10 
freq.     619.74  E(vib)   ...       0.09 
freq.     644.96  E(vib)   ...       0.09 
freq.     656.02  E(vib)   ...       0.08 
freq.     666.56  E(vib)   ...       0.08 
freq.     672.58  E(vib)   ...       0.08 
freq.     686.75  E(vib)   ...       0.07 
freq.     692.71  E(vib)   ...       0.07 
freq.     701.99  E(vib)   ...       0.07 
freq.     711.98  E(vib)   ...       0.07 
freq.     722.77  E(vib)   ...       0.07 
freq.     732.06  E(vib)   ...       0.06 
freq.     735.75  E(vib)   ...       0.06 
freq.     737.08  E(vib)   ...       0.06 
freq.     739.65  E(vib)   ...       0.06 
freq.     747.48  E(vib)   ...       0.06 
freq.     762.60  E(vib)   ...       0.06 
freq.     764.35  E(vib)   ...       0.06 
freq.     770.63  E(vib)   ...       0.05 
freq.     783.50  E(vib)   ...       0.05 
freq.     802.58  E(vib)   ...       0.05 
freq.     809.06  E(vib)   ...       0.05 
freq.     811.05  E(vib)   ...       0.05 
freq.     817.71  E(vib)   ...       0.05 
freq.     821.86  E(vib)   ...       0.05 
freq.     823.74  E(vib)   ...       0.05 
freq.     834.00  E(vib)   ...       0.04 
freq.     847.43  E(vib)   ...       0.04 
freq.     852.85  E(vib)   ...       0.04 
freq.     857.44  E(vib)   ...       0.04 
freq.     867.43  E(vib)   ...       0.04 
freq.     870.30  E(vib)   ...       0.04 
freq.     876.18  E(vib)   ...       0.04 
freq.     879.14  E(vib)   ...       0.04 
freq.     891.18  E(vib)   ...       0.04 
freq.     900.33  E(vib)   ...       0.03 
freq.     903.76  E(vib)   ...       0.03 
freq.     904.63  E(vib)   ...       0.03 
freq.     906.69  E(vib)   ...       0.03 
freq.     919.30  E(vib)   ...       0.03 
freq.     921.17  E(vib)   ...       0.03 
freq.     926.64  E(vib)   ...       0.03 
freq.     928.72  E(vib)   ...       0.03 
freq.     934.33  E(vib)   ...       0.03 
freq.     941.80  E(vib)   ...       0.03 
freq.     944.05  E(vib)   ...       0.03 
freq.     946.42  E(vib)   ...       0.03 
freq.     946.69  E(vib)   ...       0.03 
freq.     966.64  E(vib)   ...       0.03 
freq.     977.16  E(vib)   ...       0.03 
freq.     979.70  E(vib)   ...       0.03 
freq.     984.66  E(vib)   ...       0.02 
freq.     994.82  E(vib)   ...       0.02 
freq.    1000.53  E(vib)   ...       0.02 
freq.    1006.27  E(vib)   ...       0.02 
freq.    1007.90  E(vib)   ...       0.02 
freq.    1018.65  E(vib)   ...       0.02 
freq.    1030.63  E(vib)   ...       0.02 
freq.    1032.47  E(vib)   ...       0.02 
freq.    1033.88  E(vib)   ...       0.02 
freq.    1040.26  E(vib)   ...       0.02 
freq.    1047.82  E(vib)   ...       0.02 
freq.    1048.58  E(vib)   ...       0.02 
freq.    1056.34  E(vib)   ...       0.02 
freq.    1057.79  E(vib)   ...       0.02 
freq.    1069.93  E(vib)   ...       0.02 
freq.    1076.00  E(vib)   ...       0.02 
freq.    1079.16  E(vib)   ...       0.02 
freq.    1089.14  E(vib)   ...       0.02 
freq.    1094.37  E(vib)   ...       0.02 
freq.    1096.69  E(vib)   ...       0.02 
freq.    1098.87  E(vib)   ...       0.02 
freq.    1103.96  E(vib)   ...       0.02 
freq.    1108.03  E(vib)   ...       0.02 
freq.    1111.39  E(vib)   ...       0.01 
freq.    1116.74  E(vib)   ...       0.01 
freq.    1126.54  E(vib)   ...       0.01 
freq.    1131.53  E(vib)   ...       0.01 
freq.    1137.45  E(vib)   ...       0.01 
freq.    1140.56  E(vib)   ...       0.01 
freq.    1143.20  E(vib)   ...       0.01 
freq.    1151.97  E(vib)   ...       0.01 
freq.    1157.55  E(vib)   ...       0.01 
freq.    1159.04  E(vib)   ...       0.01 
freq.    1166.38  E(vib)   ...       0.01 
freq.    1173.86  E(vib)   ...       0.01 
freq.    1179.36  E(vib)   ...       0.01 
freq.    1179.63  E(vib)   ...       0.01 
freq.    1183.82  E(vib)   ...       0.01 
freq.    1189.20  E(vib)   ...       0.01 
freq.    1195.14  E(vib)   ...       0.01 
freq.    1204.07  E(vib)   ...       0.01 
freq.    1206.56  E(vib)   ...       0.01 
freq.    1216.78  E(vib)   ...       0.01 
freq.    1229.02  E(vib)   ...       0.01 
freq.    1229.22  E(vib)   ...       0.01 
freq.    1234.51  E(vib)   ...       0.01 
freq.    1241.56  E(vib)   ...       0.01 
freq.    1243.71  E(vib)   ...       0.01 
freq.    1245.96  E(vib)   ...       0.01 
freq.    1247.04  E(vib)   ...       0.01 
freq.    1251.09  E(vib)   ...       0.01 
freq.    1262.30  E(vib)   ...       0.01 
freq.    1265.12  E(vib)   ...       0.01 
freq.    1269.30  E(vib)   ...       0.01 
freq.    1276.24  E(vib)   ...       0.01 
freq.    1278.93  E(vib)   ...       0.01 
freq.    1282.87  E(vib)   ...       0.01 
freq.    1284.15  E(vib)   ...       0.01 
freq.    1284.83  E(vib)   ...       0.01 
freq.    1286.17  E(vib)   ...       0.01 
freq.    1290.47  E(vib)   ...       0.01 
freq.    1290.99  E(vib)   ...       0.01 
freq.    1291.98  E(vib)   ...       0.01 
freq.    1292.09  E(vib)   ...       0.01 
freq.    1294.16  E(vib)   ...       0.01 
freq.    1296.21  E(vib)   ...       0.01 
freq.    1300.19  E(vib)   ...       0.01 
freq.    1313.28  E(vib)   ...       0.01 
freq.    1316.66  E(vib)   ...       0.01 
freq.    1317.90  E(vib)   ...       0.01 
freq.    1322.44  E(vib)   ...       0.01 
freq.    1326.34  E(vib)   ...       0.01 
freq.    1328.35  E(vib)   ...       0.01 
freq.    1329.56  E(vib)   ...       0.01 
freq.    1330.97  E(vib)   ...       0.01 
freq.    1331.46  E(vib)   ...       0.01 
freq.    1332.51  E(vib)   ...       0.01 
freq.    1340.20  E(vib)   ...       0.01 
freq.    1344.59  E(vib)   ...       0.01 
freq.    1347.49  E(vib)   ...       0.01 
freq.    1350.75  E(vib)   ...       0.01 
freq.    1353.66  E(vib)   ...       0.01 
freq.    1355.89  E(vib)   ...       0.01 
freq.    1357.48  E(vib)   ...       0.01 
freq.    1358.77  E(vib)   ...       0.01 
freq.    1360.29  E(vib)   ...       0.01 
freq.    1365.52  E(vib)   ...       0.01 
freq.    1372.65  E(vib)   ...       0.01 
freq.    1373.10  E(vib)   ...       0.01 
freq.    1379.33  E(vib)   ...       0.01 
freq.    1380.62  E(vib)   ...       0.01 
freq.    1396.45  E(vib)   ...       0.00 
freq.    1398.97  E(vib)   ...       0.00 
freq.    1423.11  E(vib)   ...       0.00 
freq.    1427.52  E(vib)   ...       0.00 
freq.    1429.97  E(vib)   ...       0.00 
freq.    1432.78  E(vib)   ...       0.00 
freq.    1433.69  E(vib)   ...       0.00 
freq.    1435.08  E(vib)   ...       0.00 
freq.    1438.64  E(vib)   ...       0.00 
freq.    1438.86  E(vib)   ...       0.00 
freq.    1439.39  E(vib)   ...       0.00 
freq.    1439.58  E(vib)   ...       0.00 
freq.    1442.38  E(vib)   ...       0.00 
freq.    1443.91  E(vib)   ...       0.00 
freq.    1445.13  E(vib)   ...       0.00 
freq.    1446.88  E(vib)   ...       0.00 
freq.    1447.37  E(vib)   ...       0.00 
freq.    1447.87  E(vib)   ...       0.00 
freq.    1448.97  E(vib)   ...       0.00 
freq.    1449.46  E(vib)   ...       0.00 
freq.    1450.13  E(vib)   ...       0.00 
freq.    1451.08  E(vib)   ...       0.00 
freq.    1454.61  E(vib)   ...       0.00 
freq.    1454.74  E(vib)   ...       0.00 
freq.    1457.21  E(vib)   ...       0.00 
freq.    1458.08  E(vib)   ...       0.00 
freq.    1462.28  E(vib)   ...       0.00 
freq.    1464.29  E(vib)   ...       0.00 
freq.    1464.64  E(vib)   ...       0.00 
freq.    1470.47  E(vib)   ...       0.00 
freq.    1473.48  E(vib)   ...       0.00 
freq.    1478.67  E(vib)   ...       0.00 
freq.    1506.92  E(vib)   ...       0.00 
freq.    1563.36  E(vib)   ...       0.00 
freq.    1641.40  E(vib)   ...       0.00 
freq.    1661.45  E(vib)   ...       0.00 
freq.    1668.83  E(vib)   ...       0.00 
freq.    1675.28  E(vib)   ...       0.00 
freq.    1680.52  E(vib)   ...       0.00 
freq.    1695.91  E(vib)   ...       0.00 
freq.    1701.43  E(vib)   ...       0.00 
freq.    2900.02  E(vib)   ...       0.00 
freq.    2924.44  E(vib)   ...       0.00 
freq.    2927.22  E(vib)   ...       0.00 
freq.    2929.31  E(vib)   ...       0.00 
freq.    2929.90  E(vib)   ...       0.00 
freq.    2933.58  E(vib)   ...       0.00 
freq.    2937.98  E(vib)   ...       0.00 
freq.    2939.10  E(vib)   ...       0.00 
freq.    2943.98  E(vib)   ...       0.00 
freq.    2947.11  E(vib)   ...       0.00 
freq.    2951.07  E(vib)   ...       0.00 
freq.    2952.97  E(vib)   ...       0.00 
freq.    2955.96  E(vib)   ...       0.00 
freq.    2956.24  E(vib)   ...       0.00 
freq.    2959.04  E(vib)   ...       0.00 
freq.    2959.25  E(vib)   ...       0.00 
freq.    2961.80  E(vib)   ...       0.00 
freq.    2964.02  E(vib)   ...       0.00 
freq.    2965.76  E(vib)   ...       0.00 
freq.    2966.30  E(vib)   ...       0.00 
freq.    2968.46  E(vib)   ...       0.00 
freq.    2970.64  E(vib)   ...       0.00 
freq.    2974.56  E(vib)   ...       0.00 
freq.    2975.56  E(vib)   ...       0.00 
freq.    2975.64  E(vib)   ...       0.00 
freq.    2977.57  E(vib)   ...       0.00 
freq.    2979.47  E(vib)   ...       0.00 
freq.    2980.52  E(vib)   ...       0.00 
freq.    2982.21  E(vib)   ...       0.00 
freq.    2983.86  E(vib)   ...       0.00 
freq.    2984.82  E(vib)   ...       0.00 
freq.    2993.97  E(vib)   ...       0.00 
freq.    2996.25  E(vib)   ...       0.00 
freq.    2996.42  E(vib)   ...       0.00 
freq.    2997.69  E(vib)   ...       0.00 
freq.    3001.02  E(vib)   ...       0.00 
freq.    3003.16  E(vib)   ...       0.00 
freq.    3018.16  E(vib)   ...       0.00 
freq.    3018.86  E(vib)   ...       0.00 
freq.    3019.28  E(vib)   ...       0.00 
freq.    3020.84  E(vib)   ...       0.00 
freq.    3024.16  E(vib)   ...       0.00 
freq.    3025.28  E(vib)   ...       0.00 
freq.    3026.50  E(vib)   ...       0.00 
freq.    3026.61  E(vib)   ...       0.00 
freq.    3027.50  E(vib)   ...       0.00 
freq.    3028.17  E(vib)   ...       0.00 
freq.    3038.24  E(vib)   ...       0.00 
freq.    3038.87  E(vib)   ...       0.00 
freq.    3040.33  E(vib)   ...       0.00 
freq.    3044.07  E(vib)   ...       0.00 
freq.    3046.86  E(vib)   ...       0.00 
freq.    3051.34  E(vib)   ...       0.00 
freq.    3051.88  E(vib)   ...       0.00 
freq.    3054.98  E(vib)   ...       0.00 
freq.    3059.72  E(vib)   ...       0.00 
freq.    3061.53  E(vib)   ...       0.00 
freq.    3065.43  E(vib)   ...       0.00 
freq.    3297.95  E(vib)   ...       0.00 
freq.    3380.71  E(vib)   ...       0.00 
freq.    3476.64  E(vib)   ...       0.00 
freq.    3482.43  E(vib)   ...       0.00 
freq.    3483.95  E(vib)   ...       0.00 
freq.    3507.83  E(vib)   ...       0.00 

------------
INNER ENERGY
------------

The inner energy is: U= E(el) + E(ZPE) + E(vib) + E(rot) + E(trans)
    E(el)   - is the total energy from the electronic structure calculation
              = E(kin-el) + E(nuc-el) + E(el-el) + E(nuc-nuc)
    E(ZPE)  - the the zero temperature vibrational energy from the frequency calculation
    E(vib)  - the the finite temperature correction to E(ZPE) due to population
              of excited vibrational states
    E(rot)  - is the rotational thermal energy
    E(trans)- is the translational thermal energy

Summary of contributions to the inner energy U:
Electronic energy                ...  -2380.07242133 Eh
Zero point energy                ...      0.97779809 Eh     613.58 kcal/mol
Thermal vibrational correction   ...      0.05545557 Eh      34.80 kcal/mol
Thermal rotational correction    ...      0.00141627 Eh       0.89 kcal/mol
Thermal translational correction ...      0.00141627 Eh       0.89 kcal/mol
-----------------------------------------------------------------------
Total thermal energy                  -2379.03633513 Eh


Summary of corrections to the electronic energy:
(perhaps to be used in another calculation)
Total thermal correction                  0.05828811 Eh      36.58 kcal/mol
Non-thermal (ZPE) correction              0.97779809 Eh     613.58 kcal/mol
-----------------------------------------------------------------------
Total correction                          1.03608620 Eh     650.15 kcal/mol


--------
ENTHALPY
--------

The enthalpy is H = U + kB*T
                kB is Boltzmann's constant
Total free energy                 ...  -2379.03633513 Eh 
Thermal Enthalpy correction       ...      0.00094421 Eh       0.59 kcal/mol
-----------------------------------------------------------------------
Total Enthalpy                    ...  -2379.03539092 Eh


Note: Only C1 symmetry has been detected, increase convergence thresholds 
      if your molecule has a higher symmetry. Symmetry factor of 1.0 is   
      used for the rotational entropy correction. 
 

Note: Rotational entropy computed according to Herzberg 
Infrared and Raman Spectra, Chapter V,1, Van Nostrand Reinhold, 1945 
Point Group:  C1, Symmetry Number:   1  
Rotational constants in cm-1:     0.001858     0.001793     0.001335 

Vibrational entropy computed according to the QRRHO of S. Grimme
Chem.Eur.J. 2012 18 9955


-------
ENTROPY
-------

The entropy contributions are T*S = T*(S(el)+S(vib)+S(rot)+S(trans))
     S(el)   - electronic entropy
     S(vib)  - vibrational entropy
     S(rot)  - rotational entropy
     S(trans)- translational entropy
The entropies will be listed as mutliplied by the temperature to get
units of energy

Electronic entropy                ...      0.00000000 Eh      0.00 kcal/mol
Vibrational entropy               ...      0.10153666 Eh     63.72 kcal/mol
Rotational entropy                ...      0.01858952 Eh     11.67 kcal/mol
Translational entropy             ...      0.02166895 Eh     13.60 kcal/mol
-----------------------------------------------------------------------
Final entropy term                ...      0.14179514 Eh     88.98 kcal/mol

In case the symmetry of your molecule has not been determined correctly
or in case you have a reason to use a different symmetry number we print 
out the resulting rotational entropy values for sn=1,12 :
 --------------------------------------------------------
|  sn= 1 | S(rot)=       0.01858952 Eh     11.67 kcal/mol|
|  sn= 2 | S(rot)=       0.01793507 Eh     11.25 kcal/mol|
|  sn= 3 | S(rot)=       0.01755223 Eh     11.01 kcal/mol|
|  sn= 4 | S(rot)=       0.01728061 Eh     10.84 kcal/mol|
|  sn= 5 | S(rot)=       0.01706992 Eh     10.71 kcal/mol|
|  sn= 6 | S(rot)=       0.01689778 Eh     10.60 kcal/mol|
|  sn= 7 | S(rot)=       0.01675223 Eh     10.51 kcal/mol|
|  sn= 8 | S(rot)=       0.01662615 Eh     10.43 kcal/mol|
|  sn= 9 | S(rot)=       0.01651494 Eh     10.36 kcal/mol|
|  sn=10 | S(rot)=       0.01641546 Eh     10.30 kcal/mol|
|  sn=11 | S(rot)=       0.01632547 Eh     10.24 kcal/mol|
|  sn=12 | S(rot)=       0.01624332 Eh     10.19 kcal/mol|
 --------------------------------------------------------


-------------------
GIBBS FREE ENERGY
-------------------

The Gibbs free energy is G = H - T*S

Total enthalpy                    ...  -2379.03539092 Eh 
Total entropy correction          ...     -0.14179514 Eh    -88.98 kcal/mol
-----------------------------------------------------------------------
Final Gibbs free energy         ...  -2379.17718605 Eh

For completeness - the Gibbs free energy minus the electronic energy
G-E(el)                           ...      0.89523528 Eh    561.77 kcal/mol

--------------------------------------------------------------------------
WARNING: No preset parameters were found for the device that Open MPI
detected:

  Local host:            eu-g1-002-2
  Device name:           mlx5_0
  Device vendor ID:      0x02c9
  Device vendor part ID: 4123

Default device parameters will be used, which may result in lower
performance.  You can edit any of the files specified by the
btl_openib_device_param_files MCA parameter to set values for your
device.

NOTE: You can turn off this warning by setting the MCA parameter
      btl_openib_warn_no_device_params_found to 0.
--------------------------------------------------------------------------
--------------------------------------------------------------------------
WARNING: There was an error initializing an OpenFabrics device.

  Local host:   eu-g1-002-2
  Local device: mlx5_0
--------------------------------------------------------------------------

Timings for individual modules:

Sum of individual times         ...    43844.239 sec (= 730.737 min)
GTO integral calculation        ...      142.367 sec (=   2.373 min)   0.3 %
SCF iterations                  ...     3692.492 sec (=  61.542 min)   8.4 %
SCF Gradient evaluation         ...     1261.982 sec (=  21.033 min)   2.9 %
Geometry relaxation             ...       61.963 sec (=   1.033 min)   0.1 %
Analytical frequency calculation...    38685.435 sec (= 644.757 min)  88.2 %
                             ****ORCA TERMINATED NORMALLY****
TOTAL RUN TIME: 0 days 12 hours 12 minutes 13 seconds 372 msec
