
                                 *****************
                                 * O   R   C   A *
                                 *****************

           --- An Ab Initio, DFT and Semiempirical electronic structure package ---

                  #######################################################
                  #                        -***-                        #
                  #          Department of theory and spectroscopy      #
                  #               Directorship: Frank Neese             #
                  #        Max Planck Institute fuer Kohlenforschung    #
                  #                Kaiser Wilhelm Platz 1               #
                  #                 D-45470 Muelheim/Ruhr               #
                  #                      Germany                        #
                  #                                                     #
                  #                  All rights reserved                #
                  #                        -***-                        #
                  #######################################################


                         Program Version 4.2.0 -  RELEASE  -


 With contributions from (in alphabetic order):
   Daniel Aravena         : Magnetic Suceptibility
   Michael Atanasov       : Ab Initio Ligand Field Theory (pilot matlab implementation)
   Alexander A. Auer      : GIAO ZORA, VPT2
   Ute Becker             : Parallelization
   Giovanni Bistoni       : ED, misc. LED, open-shell LED, HFLED
   Martin Brehm           : Molecular dynamics
   Dmytro Bykov           : SCF Hessian
   Vijay G. Chilkuri      : MRCI spin determinant printing, contributions to CSF-ICE
   Dipayan Datta          : RHF DLPNO-CCSD density
   Achintya Kumar Dutta   : EOM-CC, STEOM-CC
   Dmitry Ganyushin       : Spin-Orbit,Spin-Spin,Magnetic field MRCI
   Miquel Garcia          : C-PCM Hessian, Gaussian charge scheme
   Yang Guo               : DLPNO-NEVPT2, CIM, IAO-localization
   Andreas Hansen         : Spin unrestricted coupled pair/coupled cluster methods
   Benjamin Helmich-Paris : CASSCF linear response (MC-RPA)
   Lee Huntington         : MR-EOM, pCC
   Robert Izsak           : Overlap fitted RIJCOSX, COSX-SCS-MP3, EOM
   Christian Kollmar      : KDIIS, OOCD, Brueckner-CCSD(T), CCSD density
   Simone Kossmann        : Meta GGA functionals, TD-DFT gradient, OOMP2, MP2 Hessian
   Martin Krupicka        : AUTO-CI
   Lucas Lang             : DCDCAS
   Dagmar Lenk            : GEPOL surface, SMD
   Dimitrios Liakos       : Extrapolation schemes; Compound Job, initial MDCI parallelization
   Dimitrios Manganas     : Further ROCIS development; embedding schemes
   Dimitrios Pantazis     : SARC Basis sets
   Taras Petrenko         : DFT Hessian,TD-DFT gradient, ASA, ECA, R-Raman, ABS, FL, XAS/XES, NRVS
   Peter Pinski           : DLPNO-MP2, DLPNO-MP2 Gradient
   Christoph Reimann      : Effective Core Potentials
   Marius Retegan         : Local ZFS, SOC
   Christoph Riplinger    : Optimizer, TS searches, QM/MM, DLPNO-CCSD(T), (RO)-DLPNO pert. Triples
   Tobias Risthaus        : Range-separated hybrids, TD-DFT gradient, RPA, STAB
   Michael Roemelt        : Original ROCIS implementation
   Masaaki Saitow         : Open-shell DLPNO-CCSD energy and density
   Barbara Sandhoefer     : DKH picture change effects
   Avijit Sen             : IP-ROCIS
   Kantharuban Sivalingam : CASSCF convergence, NEVPT2, FIC-MRCI
   Bernardo de Souza      : ESD, SOC TD-DFT
   Georgi Stoychev        : AutoAux, RI-MP2 NMR
   Willem Van den Heuvel  : Paramagnetic NMR
   Boris Wezisla          : Elementary symmetry handling
   Frank Wennmohs         : Technical directorship


 We gratefully acknowledge several colleagues who have allowed us to
 interface, adapt or use parts of their codes:
   Stefan Grimme, W. Hujo, H. Kruse,             : VdW corrections, initial TS optimization,
                  C. Bannwarth                     DFT functionals, gCP, sTDA/sTD-DF
   Ed Valeev, F. Pavosevic, A. Kumar             : LibInt (2-el integral package), F12 methods
   Garnet Chan, S. Sharma, J. Yang, R. Olivares  : DMRG
   Ulf Ekstrom                                   : XCFun DFT Library
   Mihaly Kallay                                 : mrcc  (arbitrary order and MRCC methods)
   Andreas Klamt, Michael Diedenhofen            : otool_cosmo (COSMO solvation model)
   Jiri Pittner, Ondrej Demel                    : Mk-CCSD
   Frank Weinhold                                : gennbo (NPA and NBO analysis)
   Christopher J. Cramer and Donald G. Truhlar   : smd solvation model
   Lars Goerigk                                  : TD-DFT with DH, B97 family of functionals
   V. Asgeirsson, H. Jonsson                     : NEB implementation
   FAccTs GmbH                                   : IRC, NEB, NEB-TS, Multilevel, MM, QM/MM, CI optimization
   S Lehtola, MJT Oliveira, MAL Marques          : LibXC Library


 Your calculation uses the libint2 library for the computation of 2-el integrals
 For citations please refer to: http://libint.valeyev.net

 Your ORCA version has been built with support for libXC version: 4.2.3
 For citations please refer to: https://tddft.org/programs/libxc/

 This ORCA versions uses:
   CBLAS   interface :  Fast vector & matrix operations
   LAPACKE interface :  Fast linear algebra routines
   SCALAPACK package :  Parallel linear algebra routines




***************************************
The coordinates will be read from file: 24_old.xyz
***************************************


Your calculation utilizes the atom-pairwise dispersion correction
with the Becke-Johnson damping scheme (D3BJ)
Cite in your paper:
S.Grimme, S.Ehrlich, L.Goerigk, J Comput Chem, (2011), 32, 1456–1465 
S.Grimme, J.Antony, S.Ehrlich and H.Krieg, J.Chem.Phys., 132, (2010), 154104 
   

----- Orbital basis set information -----
Your calculation utilizes the basis: def2-TZVP
   F. Weigend and R. Ahlrichs, Phys. Chem. Chem. Phys. 7, 3297 (2005).

----- AuxJ basis set information -----
Your calculation utilizes the auxiliary basis: def2/J
   F. Weigend, Phys. Chem. Chem. Phys. 8, 1057 (2006).

================================================================================
                                        WARNINGS
                       Please study these warnings very carefully!
================================================================================


WARNING: Geometry Optimization
  ===> : Switching off AutoStart
         For restart on a previous wavefunction, please use MOREAD

INFO   : the flag for use of LIBINT has been found!

================================================================================
                                       INPUT FILE
================================================================================
NAME = 24.inp
|  1> !RI BP86 def2-tzvp def2/J D3BJ TIGHTSCF TightOpt Grid5 FinalGrid6 freq
|  2> %maxcore 4000
|  3> %pal nprocs 24
|  4> end
|  5> * xyzfile 0 1 24_old.xyz 
|  6> 
|  7>                          ****END OF INPUT****
================================================================================

                       *****************************
                       * Geometry Optimization Run *
                       *****************************

Geometry optimization settings:
Update method            Update   .... BFGS
Choice of coordinates    CoordSys .... Z-matrix Internals
Initial Hessian          InHess   .... Almoef's Model

Convergence Tolerances:
Energy Change            TolE     ....  1.0000e-06 Eh
Max. Gradient            TolMAXG  ....  1.0000e-04 Eh/bohr
RMS Gradient             TolRMSG  ....  3.0000e-05 Eh/bohr
Max. Displacement        TolMAXD  ....  1.0000e-03 bohr
RMS Displacement         TolRMSD  ....  6.0000e-04 bohr
Strict Convergence                ....  False
------------------------------------------------------------------------------
                        ORCA OPTIMIZATION COORDINATE SETUP
------------------------------------------------------------------------------

The optimization will be done in new redundant internal coordinates
Making redundant internal coordinates   ...  (new redundants) done
Evaluating the initial hessian          ...  (Almloef) done
Evaluating the coordinates              ...  done
Calculating the B-matrix                .... done
Calculating the G-matrix                .... done
Diagonalizing the G-matrix              .... done
Small eigenvalue found = 1.350e-03
Small eigenvalue found = 2.270e-03
Small eigenvalue found = 3.564e-03
Small eigenvalue found = 4.423e-03
Small eigenvalue found = 5.416e-03
Small eigenvalue found = 5.848e-03
Small eigenvalue found = 7.762e-03
Small eigenvalue found = 9.829e-03
Small eigenvalue found = 1.015e-02
Small eigenvalue found = 1.313e-02
Small eigenvalue found = 1.465e-02
Small eigenvalue found = 1.609e-02
Small eigenvalue found = 1.842e-02
Small eigenvalue found = 2.054e-02
Small eigenvalue found = 2.326e-02
Small eigenvalue found = 2.542e-02
Small eigenvalue found = 2.830e-02
The first mode is                       ....  328
The number of degrees of freedom        ....  339

    -----------------------------------------------------------------
                    Redundant Internal Coordinates


    -----------------------------------------------------------------
         Definition                    Initial Value    Approx d2E/dq
    -----------------------------------------------------------------
      1. B(C   1,O   0)                  1.2334         0.994710   
      2. B(C   2,C   1)                  1.5560         0.339568   
      3. B(C   3,C   2)                  1.5319         0.370974   
      4. B(C   4,C   3)                  1.5372         0.363771   
      5. B(C   5,C   4)                  1.5322         0.370626   
      6. B(N   6,C   2)                  1.4858         0.393547   
      7. B(N   6,C   5)                  1.4835         0.396900   
      8. B(C   7,N   6)                  1.3553         0.635613   
      9. B(O   8,C   7)                  1.2500         0.935967   
     10. B(N   9,C   1)                  1.3641         0.615496   
     11. B(C  10,N   9)                  1.4588         0.434604   
     12. B(C  11,C  10)                  1.5392         0.361168   
     13. B(N  12,C  11)                  1.3638         0.616220   
     14. B(C  13,N  12)                  1.4638         0.426636   
     15. B(C  14,C  13)                  1.5498         0.347371   
     16. B(N  15,C  14)                  1.3558         0.634463   
     17. B(C  16,N  15)                  1.4572         0.437231   
     18. B(C  17,C  16)                  1.5481         0.349490   
     19. B(C  18,C  17)                  1.5706         0.321792   
     20. B(C  19,C  18)                  1.5282         0.375987   
     21. B(N  20,C  19)                  1.3635         0.616789   
     22. B(C  21,N  20)                  1.4603         0.432304   
     23. B(C  22,C  21)                  1.5475         0.350326   
     24. B(N  23,C  22)                  1.3659         0.611369   
     25. B(C  24,C   7)                  1.5406         0.359282   
     26. B(C  24,N  23)                  1.4580         0.435917   
     27. B(C  25,C  24)                  1.5309         0.372312   
     28. B(O  26,C  22)                  1.2362         0.984551   
     29. B(C  27,C  21)                  1.5283         0.375908   
     30. B(C  28,C  27)                  1.5416         0.357971   
     31. B(C  29,C  28)                  1.5352         0.366450   
     32. B(C  30,C  28)                  1.5357         0.365859   
     33. B(O  31,C  19)                  1.2456         0.951245   
     34. B(C  32,C  18)                  1.5364         0.364907   
     35. B(C  33,C  32)                  1.5099         0.402255   
     36. B(C  34,C  33)                  1.5449         0.353688   
     37. B(C  35,C  34)                  1.5357         0.365892   
     38. B(C  36,C  35)                  1.5381         0.362606   
     39. B(C  37,C  36)                  1.5344         0.367649   
     40. B(C  38,C  37)                  1.5330         0.369417   
     41. B(C  39,C  38)                  1.5321         0.370743   
     42. B(C  40,C  39)                  1.5331         0.369355   
     43. B(C  41,C  40)                  1.5317         0.371207   
     44. B(O  42,C  32)                  1.2285         1.012679   
     45. B(O  43,C  17)                  1.4205         0.500351   
     46. B(O  44,C  14)                  1.2455         0.951418   
     47. B(C  45,C  13)                  1.5289         0.375102   
     48. B(C  46,C  45)                  1.5317         0.371193   
     49. B(O  47,C  11)                  1.2397         0.971874   
     50. B(C  48,C  10)                  1.5596         0.335064   
     51. B(C  49,C  48)                  1.5376         0.363347   
     52. B(C  50,C  48)                  1.5339         0.368270   
     53. B(H  51,C   2)                  1.1105         0.334020   
     54. B(H  52,C   3)                  1.1092         0.335539   
     55. B(H  53,C   3)                  1.1052         0.340583   
     56. B(H  54,C   4)                  1.1089         0.335956   
     57. B(H  55,C   4)                  1.1069         0.338399   
     58. B(H  56,C   5)                  1.1079         0.337182   
     59. B(H  57,C   5)                  1.1131         0.330746   
     60. B(H  58,N   9)                  1.0409         0.386305   
     61. B(H  59,C  10)                  1.1117         0.332556   
     62. B(H  60,N  12)                  1.0234         0.411855   
     63. B(H  61,C  13)                  1.1124         0.331620   
     64. B(H  62,N  15)                  1.0374         0.391207   
     65. B(H  63,C  16)                  1.1101         0.334422   
     66. B(H  64,C  16)                  1.1055         0.340167   
     67. B(H  65,C  17)                  1.1101         0.334506   
     68. B(H  66,C  18)                  1.1088         0.336087   
     69. B(H  67,N  20)                  1.0379         0.390561   
     70. B(H  68,C  21)                  1.1103         0.334248   
     71. B(H  69,H  60)                  4.4370         0.000000   
     72. B(H  69,N  23)                  1.0361         0.393198   
     73. B(H  70,C  24)                  1.1056         0.340059   
     74. B(H  71,C  25)                  1.1070         0.338258   
     75. B(H  72,C  25)                  1.1080         0.337094   
     76. B(H  73,C  25)                  1.1079         0.337198   
     77. B(H  74,C  27)                  1.1119         0.332223   
     78. B(H  75,C  27)                  1.1100         0.334604   
     79. B(H  76,O  44)                  2.4917         0.001872   
     80. B(H  76,C  28)                  1.1120         0.332148   
     81. B(H  77,C  29)                  1.1093         0.335508   
     82. B(H  78,C  29)                  1.1115         0.332766   
     83. B(H  79,C  29)                  1.1092         0.335546   
     84. B(H  80,C  30)                  1.1096         0.335038   
     85. B(H  81,C  30)                  1.1094         0.335330   
     86. B(H  82,C  30)                  1.1118         0.332439   
     87. B(H  83,C  33)                  1.1062         0.339271   
     88. B(H  84,C  33)                  1.1090         0.335850   
     89. B(H  85,H  59)                  2.2596         0.000939   
     90. B(H  85,C  34)                  1.1113         0.333025   
     91. B(H  86,C  34)                  1.1096         0.335028   
     92. B(H  87,C  35)                  1.1119         0.332272   
     93. B(H  88,C  35)                  1.1135         0.330280   
     94. B(H  89,H  73)                  2.3734         0.000618   
     95. B(H  89,C  36)                  1.1118         0.332406   
     96. B(H  90,C  36)                  1.1124         0.331647   
     97. B(H  91,C  37)                  1.1138         0.329962   
     98. B(H  92,C  37)                  1.1096         0.335024   
     99. B(H  93,C  38)                  1.1118         0.332391   
    100. B(H  94,C  38)                  1.1136         0.330218   
    101. B(H  95,C  39)                  1.1135         0.330317   
    102. B(H  96,H  51)                  2.1228         0.001551   
    103. B(H  96,C  39)                  1.1135         0.330303   
    104. B(H  97,C  40)                  1.1148         0.328702   
    105. B(H  98,C  40)                  1.1128         0.331134   
    106. B(H  99,C  41)                  1.1091         0.335648   
    107. B(H 100,C  41)                  1.1112         0.333153   
    108. B(H 101,C  41)                  1.1101         0.334426   
    109. B(H 102,O  43)                  0.9748         0.492496   
    110. B(H 103,C  45)                  1.1084         0.336510   
    111. B(H 104,C  45)                  1.1130         0.330966   
    112. B(H 105,C  46)                  1.1079         0.337131   
    113. B(H 106,C  46)                  1.1095         0.335224   
    114. B(H 107,H  54)                  2.2917         0.000834   
    115. B(H 107,C  46)                  1.1096         0.335036   
    116. B(H 108,C  48)                  1.1098         0.334879   
    117. B(H 109,C  49)                  1.1041         0.341874   
    118. B(H 110,C  49)                  1.1111         0.333203   
    119. B(H 111,C  49)                  1.1091         0.335686   
    120. B(H 112,H 100)                  3.2157         0.000028   
    121. B(H 112,C  50)                  1.1073         0.337971   
    122. B(H 113,C  50)                  1.1086         0.336341   
    123. B(H 114,C  50)                  1.1107         0.333714   
    124. A(O   0,C   1,N   9)          123.7071         0.466118   
    125. A(C   2,C   1,N   9)          113.9334         0.387138   
    126. A(O   0,C   1,C   2)          122.3483         0.421355   
    127. A(C   1,C   2,H  51)          106.8938         0.315404   
    128. A(N   6,C   2,H  51)          108.1085         0.321166   
    129. A(C   1,C   2,N   6)          113.6481         0.358437   
    130. A(C   1,C   2,C   3)          111.4640         0.357064   
    131. A(C   3,C   2,H  51)          113.3874         0.319983   
    132. A(C   3,C   2,N   6)          103.4328         0.363885   
    133. A(C   4,C   3,H  53)          113.1012         0.319975   
    134. A(C   4,C   3,H  52)          110.9710         0.319196   
    135. A(C   2,C   3,C   4)          102.9611         0.361274   
    136. A(C   2,C   3,H  53)          110.5678         0.321002   
    137. A(C   2,C   3,H  52)          109.8640         0.320220   
    138. A(H  52,C   3,H  53)          109.2314         0.285148   
    139. A(H  54,C   4,H  55)          107.8634         0.284918   
    140. A(C   3,C   4,H  55)          113.6526         0.319639   
    141. A(C   3,C   4,C   5)          103.2957         0.361216   
    142. A(C   3,C   4,H  54)          109.6255         0.319261   
    143. A(C   5,C   4,H  55)          112.2065         0.320616   
    144. A(C   5,C   4,H  54)          110.1467         0.320236   
    145. A(H  56,C   5,H  57)          108.6312         0.284067   
    146. A(C   4,C   5,N   6)          103.0208         0.364355   
    147. A(C   4,C   5,H  56)          114.7470         0.320427   
    148. A(N   6,C   5,H  57)          109.6960         0.321094   
    149. A(N   6,C   5,H  56)          109.9620         0.322108   
    150. A(C   4,C   5,H  57)          110.6291         0.319420   
    151. A(C   5,N   6,C   7)          126.2720         0.397550   
    152. A(C   2,N   6,C   7)          121.4644         0.396959   
    153. A(C   2,N   6,C   5)          111.5889         0.365824   
    154. A(O   8,C   7,C  24)          119.1000         0.421022   
    155. A(N   6,C   7,O   8)          122.1242         0.463675   
    156. A(N   6,C   7,C  24)          118.7759         0.393177   
    157. A(C   1,N   9,C  10)          122.3990         0.401669   
    158. A(C  10,N   9,H  58)          120.9137         0.331525   
    159. A(C   1,N   9,H  58)          115.9757         0.351400   
    160. A(C  48,C  10,H  59)          106.6945         0.314497   
    161. A(C  11,C  10,H  59)          104.0686         0.318358   
    162. A(N   9,C  10,C  11)          111.7410         0.368430   
    163. A(N   9,C  10,C  48)          115.1438         0.363725   
    164. A(N   9,C  10,H  59)          105.6704         0.326203   
    165. A(C  11,C  10,C  48)          112.5054         0.354640   
    166. A(N  12,C  11,O  47)          121.2385         0.464240   
    167. A(C  10,C  11,O  47)          122.9127         0.424260   
    168. A(C  10,C  11,N  12)          115.6526         0.391409   
    169. A(C  13,N  12,H  60)          119.1683         0.334038   
    170. A(C  11,N  12,C  13)          122.3685         0.400445   
    171. A(C  11,N  12,H  60)          118.2716         0.355302   
    172. A(C  14,C  13,C  45)          112.9981         0.359122   
    173. A(N  12,C  13,H  61)          106.3818         0.325061   
    174. A(C  14,C  13,H  61)          108.3088         0.316200   
    175. A(N  12,C  13,C  14)          107.7269         0.364820   
    176. A(C  45,C  13,H  61)          111.0470         0.320185   
    177. A(N  12,C  13,C  45)          110.1052         0.369656   
    178. A(C  13,C  14,N  15)          114.1764         0.390741   
    179. A(N  15,C  14,O  44)          123.4474         0.464912   
    180. A(C  13,C  14,O  44)          121.9809         0.419721   
    181. A(C  14,N  15,H  62)          115.6329         0.353964   
    182. A(C  16,N  15,H  62)          118.3789         0.332550   
    183. A(C  14,N  15,C  16)          122.7276         0.404254   
    184. A(H  63,C  16,H  64)          108.3771         0.284946   
    185. A(C  17,C  16,H  64)          107.8848         0.317827   
    186. A(N  15,C  16,H  63)          111.2028         0.326828   
    187. A(C  17,C  16,H  63)          107.6129         0.316947   
    188. A(N  15,C  16,C  17)          114.1401         0.366737   
    189. A(N  15,C  16,H  64)          107.4464         0.327747   
    190. A(O  43,C  17,H  65)          110.7896         0.334213   
    191. A(C  18,C  17,H  65)          107.3635         0.312739   
    192. A(C  16,C  17,H  65)          108.0731         0.316960   
    193. A(C  16,C  17,C  18)          112.5299         0.350270   
    194. A(C  18,C  17,O  43)          112.3094         0.370043   
    195. A(C  16,C  17,O  43)          105.7391         0.375345   
    196. A(C  19,C  18,H  66)          104.0610         0.321009   
    197. A(C  17,C  18,H  66)          106.1787         0.312978   
    198. A(C  17,C  18,C  32)          108.9128         0.352835   
    199. A(C  17,C  18,C  19)          112.1348         0.354627   
    200. A(C  19,C  18,C  32)          121.0175         0.362296   
    201. A(C  32,C  18,H  66)          103.0020         0.319444   
    202. A(C  18,C  19,N  20)          112.0922         0.394238   
    203. A(N  20,C  19,O  31)          122.0170         0.462501   
    204. A(C  18,C  19,O  31)          125.8709         0.425686   
    205. A(C  19,N  20,H  67)          120.1457         0.352176   
    206. A(C  19,N  20,C  21)          122.4326         0.401443   
    207. A(C  21,N  20,H  67)          117.3239         0.331836   
    208. A(C  27,C  21,H  68)          111.1677         0.320710   
    209. A(C  22,C  21,H  68)          107.8074         0.317043   
    210. A(N  20,C  21,H  68)          106.8703         0.326191   
    211. A(N  20,C  21,C  22)          107.3193         0.366176   
    212. A(C  22,C  21,C  27)          112.0997         0.359772   
    213. A(N  20,C  21,C  27)          111.3258         0.370633   
    214. A(C  21,C  22,N  23)          112.7629         0.388794   
    215. A(C  21,C  22,O  26)          123.0700         0.422933   
    216. A(N  23,C  22,O  26)          124.1350         0.464670   
    217. A(C  22,N  23,C  24)          121.6978         0.401407   
    218. A(C  24,N  23,H  69)          119.5246         0.332664   
    219. A(C  22,N  23,H  69)          116.6394         0.352051   
    220. A(C  25,C  24,H  70)          110.5145         0.321111   
    221. A(N  23,C  24,H  70)          106.0664         0.327567   
    222. A(C   7,C  24,H  70)          110.4307         0.319247   
    223. A(N  23,C  24,C  25)          110.6305         0.370551   
    224. A(C   7,C  24,N  23)          109.7181         0.368290   
    225. A(C   7,C  24,C  25)          109.4387         0.360731   
    226. A(H  71,C  25,H  73)          109.2756         0.285063   
    227. A(C  24,C  25,H  73)          110.1463         0.320667   
    228. A(H  71,C  25,H  72)          108.7911         0.285049   
    229. A(C  24,C  25,H  72)          110.7077         0.320651   
    230. A(C  24,C  25,H  71)          110.1186         0.320832   
    231. A(H  72,C  25,H  73)          107.7485         0.284910   
    232. A(C  28,C  27,H  75)          109.9570         0.318216   
    233. A(C  21,C  27,C  28)          114.9049         0.361098   
    234. A(H  74,C  27,H  75)          105.6578         0.283925   
    235. A(C  21,C  27,H  75)          108.4477         0.320766   
    236. A(C  28,C  27,H  74)          109.8742         0.317845   
    237. A(C  21,C  27,H  74)          107.5685         0.320392   
    238. A(C  29,C  28,C  30)          111.3637         0.360871   
    239. A(C  27,C  28,C  30)          112.5364         0.359434   
    240. A(C  27,C  28,C  29)          109.8204         0.359533   
    241. A(C  30,C  28,H  76)          108.2052         0.318966   
    242. A(C  29,C  28,H  76)          107.1984         0.319049   
    243. A(C  27,C  28,H  76)          107.4835         0.317834   
    244. A(C  28,C  29,H  79)          111.3177         0.319580   
    245. A(H  78,C  29,H  79)          107.6376         0.284121   
    246. A(H  77,C  29,H  79)          107.7427         0.284484   
    247. A(H  77,C  29,H  78)          107.6223         0.284116   
    248. A(C  28,C  29,H  78)          111.1016         0.319146   
    249. A(C  28,C  29,H  77)          111.2396         0.319574   
    250. A(H  81,C  30,H  82)          107.4052         0.284049   
    251. A(H  80,C  30,H  82)          107.5510         0.284011   
    252. A(C  28,C  30,H  82)          111.1937         0.319011   
    253. A(H  80,C  30,H  81)          107.3579         0.284393   
    254. A(C  28,C  30,H  81)          111.0007         0.319462   
    255. A(C  28,C  30,H  80)          112.1075         0.319417   
    256. A(C  33,C  32,O  42)          121.0224         0.435749   
    257. A(C  18,C  32,O  42)          116.6426         0.428185   
    258. A(C  18,C  32,C  33)          122.2073         0.366505   
    259. A(C  32,C  33,C  34)          108.0604         0.364550   
    260. A(C  34,C  33,H  84)          110.1260         0.317784   
    261. A(H  83,C  33,H  84)          110.7893         0.285018   
    262. A(C  32,C  33,H  84)          107.3091         0.324545   
    263. A(C  34,C  33,H  83)          109.3284         0.318310   
    264. A(C  32,C  33,H  83)          111.1739         0.325086   
    265. A(C  33,C  34,C  35)          114.1676         0.358704   
    266. A(H  85,C  34,H  86)          106.8452         0.284087   
    267. A(C  35,C  34,H  86)          108.7975         0.319420   
    268. A(C  33,C  34,H  86)          109.1462         0.317658   
    269. A(C  35,C  34,H  85)          109.5629         0.319107   
    270. A(C  33,C  34,H  85)          108.0705         0.317347   
    271. A(C  34,C  35,C  36)          112.6042         0.360229   
    272. A(H  87,C  35,H  88)          106.0486         0.283358   
    273. A(C  36,C  35,H  88)          110.6653         0.318208   
    274. A(C  34,C  35,H  88)          109.5863         0.318677   
    275. A(C  36,C  35,H  87)          108.7502         0.318521   
    276. A(C  34,C  35,H  87)          108.9562         0.318990   
    277. A(C  35,C  36,C  37)          114.8551         0.360523   
    278. A(H  89,C  36,H  90)          106.4022         0.283558   
    279. A(C  37,C  36,H  90)          109.9272         0.319141   
    280. A(C  35,C  36,H  90)          109.6666         0.318423   
    281. A(C  37,C  36,H  89)          107.6624         0.319260   
    282. A(C  35,C  36,H  89)          107.9523         0.318541   
    283. A(C  36,C  37,C  38)          113.6031         0.361669   
    284. A(H  91,C  37,H  92)          105.8353         0.283679   
    285. A(C  38,C  37,H  92)          107.1387         0.319920   
    286. A(C  36,C  37,H  92)          108.8676         0.319669   
    287. A(C  38,C  37,H  91)          110.6166         0.319126   
    288. A(C  36,C  37,H  91)          110.4153         0.318876   
    289. A(C  37,C  38,C  39)          113.1711         0.362186   
    290. A(H  93,C  38,H  94)          106.3156         0.283366   
    291. A(C  39,C  38,H  94)          110.2801         0.319353   
    292. A(C  37,C  38,H  94)          110.7008         0.319166   
    293. A(C  39,C  38,H  93)          108.3722         0.319695   
    294. A(C  37,C  38,H  93)          107.7058         0.319508   
    295. A(C  38,C  39,C  40)          114.2775         0.362176   
    296. A(H  95,C  39,H  96)          104.9920         0.283102   
    297. A(C  40,C  39,H  96)          108.7968         0.319171   
    298. A(C  38,C  39,H  96)          108.2559         0.319366   
    299. A(C  40,C  39,H  95)          109.7133         0.319173   
    300. A(C  38,C  39,H  95)          110.3679         0.319368   
    301. A(C  39,C  40,C  41)          113.3380         0.362254   
    302. A(H  97,C  40,H  98)          105.2835         0.282997   
    303. A(C  41,C  40,H  98)          109.9623         0.319562   
    304. A(C  39,C  40,H  98)          109.6091         0.319302   
    305. A(C  41,C  40,H  97)          109.6016         0.319178   
    306. A(C  39,C  40,H  97)          108.7259         0.318918   
    307. A(H 100,C  41,H 101)          106.9568         0.284025   
    308. A(H  99,C  41,H 101)          107.5689         0.284354   
    309. A(C  40,C  41,H 101)          111.3033         0.320079   
    310. A(H  99,C  41,H 100)          107.5260         0.284186   
    311. A(C  40,C  41,H 100)          111.2299         0.319880   
    312. A(C  40,C  41,H  99)          112.0111         0.320270   
    313. A(C  17,O  43,H 102)          107.7151         0.353531   
    314. A(C  13,C  45,C  46)          112.3534         0.363208   
    315. A(C  46,C  45,H 104)          110.6869         0.319534   
    316. A(C  13,C  45,H 104)          108.7384         0.320081   
    317. A(C  46,C  45,H 103)          111.2884         0.320403   
    318. A(C  13,C  45,H 103)          108.2347         0.320952   
    319. A(H 103,C  45,H 104)          105.2478         0.284008   
    320. A(H 106,C  46,H 107)          106.7103         0.284379   
    321. A(H 105,C  46,H 107)          108.2597         0.284630   
    322. A(C  45,C  46,H 107)          111.6283         0.320173   
    323. A(H 105,C  46,H 106)          107.8035         0.284655   
    324. A(C  45,C  46,H 106)          111.1384         0.320202   
    325. A(C  45,C  46,H 105)          111.1047         0.320499   
    326. A(C  50,C  48,H 108)          108.4630         0.319735   
    327. A(C  49,C  48,H 108)          109.2302         0.319033   
    328. A(C  10,C  48,H 108)          107.4536         0.314852   
    329. A(C  49,C  48,C  50)          110.5015         0.360752   
    330. A(C  10,C  48,C  50)          111.1865         0.355813   
    331. A(C  10,C  48,C  49)          109.9252         0.355002   
    332. A(H 110,C  49,H 111)          107.9274         0.284197   
    333. A(H 109,C  49,H 111)          108.8163         0.285336   
    334. A(C  48,C  49,H 111)          110.4460         0.319158   
    335. A(H 109,C  49,H 110)          107.9355         0.285006   
    336. A(C  48,C  49,H 110)          110.5950         0.318772   
    337. A(C  48,C  49,H 109)          111.0228         0.320112   
    338. A(H 113,C  50,H 114)          107.4878         0.284351   
    339. A(H 112,C  50,H 114)          107.8736         0.284565   
    340. A(C  48,C  50,H 114)          111.4739         0.319553   
    341. A(H 112,C  50,H 113)          107.2487         0.284913   
    342. A(C  48,C  50,H 113)          109.9259         0.319962   
    343. A(C  48,C  50,H 112)          112.6075         0.320215   
    344. D(H  51,C   2,C   1,N   9)    -58.7004         0.008764   
    345. D(C   3,C   2,C   1,N   9)    176.8850         0.008764   
    346. D(N   6,C   2,C   1,N   9)     60.4828         0.008764   
    347. D(N   6,C   2,C   1,O   0)   -120.6936         0.008764   
    348. D(C   3,C   2,C   1,O   0)     -4.2913         0.008764   
    349. D(H  51,C   2,C   1,O   0)    120.1232         0.008764   
    350. D(C   4,C   3,C   2,N   6)     31.3746         0.010998   
    351. D(H  53,C   3,C   2,H  51)    -90.6981         0.010998   
    352. D(H  53,C   3,C   2,C   1)     29.9823         0.010998   
    353. D(C   4,C   3,C   2,H  51)    148.2118         0.010998   
    354. D(H  53,C   3,C   2,N   6)    152.4648         0.010998   
    355. D(H  52,C   3,C   2,H  51)     29.9412         0.010998   
    356. D(C   4,C   3,C   2,C   1)    -91.1078         0.010998   
    357. D(H  52,C   3,C   2,C   1)    150.6216         0.010998   
    358. D(H  52,C   3,C   2,N   6)    -86.8960         0.010998   
    359. D(H  55,C   4,C   3,H  53)     78.7811         0.010601   
    360. D(H  55,C   4,C   3,H  52)    -44.3800         0.010601   
    361. D(H  54,C   4,C   3,H  52)   -165.1580         0.010601   
    362. D(H  55,C   4,C   3,C   2)   -161.8717         0.010601   
    363. D(H  54,C   4,C   3,H  53)    -41.9969         0.010601   
    364. D(C   5,C   4,C   3,C   2)    -40.0370         0.010601   
    365. D(H  54,C   4,C   3,C   2)     77.3504         0.010601   
    366. D(C   5,C   4,C   3,H  53)   -159.3842         0.010601   
    367. D(C   5,C   4,C   3,H  52)     77.4547         0.010601   
    368. D(N   6,C   5,C   4,C   3)     32.5979         0.010979   
    369. D(H  57,C   5,C   4,C   3)    -84.5752         0.010979   
    370. D(H  56,C   5,C   4,H  55)    -85.0997         0.010979   
    371. D(H  56,C   5,C   4,C   3)    152.0985         0.010979   
    372. D(H  57,C   5,C   4,H  54)    158.4042         0.010979   
    373. D(H  56,C   5,C   4,H  54)     35.0779         0.010979   
    374. D(H  57,C   5,C   4,H  55)     38.2266         0.010979   
    375. D(N   6,C   5,C   4,H  54)    -84.4227         0.010979   
    376. D(N   6,C   5,C   4,H  55)    155.3996         0.010979   
    377. D(C   5,N   6,C   2,C   3)    -11.4185         0.013233   
    378. D(C   7,N   6,C   5,H  57)    -66.1316         0.013454   
    379. D(C   7,N   6,C   5,H  56)     53.2774         0.013454   
    380. D(C   7,N   6,C   5,C   4)    176.0372         0.013454   
    381. D(C   2,N   6,C   5,H  57)    104.4954         0.013454   
    382. D(C   2,N   6,C   5,H  56)   -136.0956         0.013454   
    383. D(C   7,N   6,C   2,H  51)     39.2303         0.013233   
    384. D(C   2,N   6,C   5,C   4)    -13.3357         0.013454   
    385. D(C   7,N   6,C   2,C   3)    159.7265         0.013233   
    386. D(C   5,N   6,C   2,C   1)    109.5978         0.013233   
    387. D(C   7,N   6,C   2,C   1)    -79.2572         0.013233   
    388. D(C   5,N   6,C   2,H  51)   -131.9147         0.013233   
    389. D(C  24,C   7,N   6,C   5)     -0.2533         0.032846   
    390. D(C  24,C   7,N   6,C   2)   -170.0268         0.032846   
    391. D(O   8,C   7,N   6,C   5)    179.7221         0.032846   
    392. D(O   8,C   7,N   6,C   2)      9.9486         0.032846   
    393. D(H  58,N   9,C   1,O   0)   -177.8473         0.030642   
    394. D(C  10,N   9,C   1,C   2)    171.3647         0.030642   
    395. D(H  58,N   9,C   1,C   2)      0.9581         0.030642   
    396. D(C  10,N   9,C   1,O   0)     -7.4406         0.030642   
    397. D(H  59,C  10,N   9,C   1)   -179.5395         0.016104   
    398. D(C  48,C  10,N   9,H  58)    107.8720         0.016104   
    399. D(C  48,C  10,N   9,C   1)    -62.0711         0.016104   
    400. D(C  11,C  10,N   9,C   1)     67.8993         0.016104   
    401. D(H  59,C  10,N   9,H  58)     -9.5964         0.016104   
    402. D(C  11,C  10,N   9,H  58)   -122.1576         0.016104   
    403. D(O  47,C  11,C  10,N   9)   -165.2921         0.009804   
    404. D(N  12,C  11,C  10,H  59)    -93.8125         0.009804   
    405. D(N  12,C  11,C  10,C  48)    151.0752         0.009804   
    406. D(N  12,C  11,C  10,N   9)     19.7478         0.009804   
    407. D(O  47,C  11,C  10,H  59)     81.1476         0.009804   
    408. D(O  47,C  11,C  10,C  48)    -33.9647         0.009804   
    409. D(H  60,N  12,C  11,O  47)    179.0880         0.030719   
    410. D(H  60,N  12,C  11,C  10)     -5.8603         0.030719   
    411. D(C  13,N  12,C  11,O  47)      4.1646         0.030719   
    412. D(C  13,N  12,C  11,C  10)    179.2164         0.030719   
    413. D(H  61,C  13,N  12,C  11)     29.8994         0.015519   
    414. D(H  61,C  13,N  12,H  60)   -144.9801         0.015519   
    415. D(C  45,C  13,N  12,H  60)    -24.5671         0.015519   
    416. D(C  45,C  13,N  12,C  11)    150.3124         0.015519   
    417. D(C  14,C  13,N  12,C  11)    -86.0593         0.015519   
    418. D(C  14,C  13,N  12,H  60)     99.0612         0.015519   
    419. D(O  44,C  14,C  13,C  45)     10.3725         0.009130   
    420. D(O  44,C  14,C  13,N  12)   -111.4786         0.009130   
    421. D(N  15,C  14,C  13,H  61)    -53.1508         0.009130   
    422. D(N  15,C  14,C  13,C  45)   -176.6130         0.009130   
    423. D(O  44,C  14,C  13,H  61)    133.8347         0.009130   
    424. D(N  15,C  14,C  13,N  12)     61.5359         0.009130   
    425. D(H  62,N  15,C  14,O  44)    174.8396         0.032717   
    426. D(H  62,N  15,C  14,C  13)      1.9415         0.032717   
    427. D(C  16,N  15,C  14,O  44)     15.6057         0.032717   
    428. D(C  16,N  15,C  14,C  13)   -157.2924         0.032717   
    429. D(H  64,C  16,N  15,H  62)      5.0839         0.016300   
    430. D(H  64,C  16,N  15,C  14)    163.7795         0.016300   
    431. D(H  63,C  16,N  15,H  62)    123.5334         0.016300   
    432. D(H  63,C  16,N  15,C  14)    -77.7711         0.016300   
    433. D(C  17,C  16,N  15,C  14)     44.2016         0.016300   
    434. D(C  17,C  16,N  15,H  62)   -114.4940         0.016300   
    435. D(H  65,C  17,C  16,H  64)    163.7178         0.009843   
    436. D(H  65,C  17,C  16,H  63)     46.9729         0.009843   
    437. D(H  65,C  17,C  16,N  15)    -76.9515         0.009843   
    438. D(O  43,C  17,C  16,H  64)     45.0409         0.009843   
    439. D(O  43,C  17,C  16,H  63)    -71.7039         0.009843   
    440. D(O  43,C  17,C  16,N  15)    164.3716         0.009843   
    441. D(C  18,C  17,C  16,H  64)    -77.9079         0.009843   
    442. D(C  18,C  17,C  16,H  63)    165.3473         0.009843   
    443. D(C  18,C  17,C  16,N  15)     41.4228         0.009843   
    444. D(H  66,C  18,C  17,H  65)     87.2787         0.008478   
    445. D(H  66,C  18,C  17,O  43)   -150.6975         0.008478   
    446. D(H  66,C  18,C  17,C  16)    -31.5118         0.008478   
    447. D(C  32,C  18,C  17,O  43)    -40.3914         0.008478   
    448. D(C  32,C  18,C  17,C  16)     78.7943         0.008478   
    449. D(C  32,C  18,C  17,H  65)   -162.4152         0.008478   
    450. D(C  19,C  18,C  17,H  65)    -25.7451         0.008478   
    451. D(C  19,C  18,C  17,O  43)     96.2787         0.008478   
    452. D(C  19,C  18,C  17,C  16)   -144.5356         0.008478   
    453. D(O  31,C  19,C  18,H  66)    129.2510         0.010563   
    454. D(O  31,C  19,C  18,C  32)     14.3388         0.010563   
    455. D(O  31,C  19,C  18,C  17)   -116.4202         0.010563   
    456. D(N  20,C  19,C  18,H  66)    -49.1442         0.010563   
    457. D(N  20,C  19,C  18,C  17)     65.1845         0.010563   
    458. D(N  20,C  19,C  18,C  32)   -164.0564         0.010563   
    459. D(H  67,N  20,C  19,O  31)    178.2219         0.030780   
    460. D(H  67,N  20,C  19,C  18)     -3.3118         0.030780   
    461. D(C  21,N  20,C  19,O  31)      1.9146         0.030780   
    462. D(C  21,N  20,C  19,C  18)   -179.6191         0.030780   
    463. D(H  68,C  21,N  20,H  67)   -145.4806         0.015934   
    464. D(H  68,C  21,N  20,C  19)     30.9253         0.015934   
    465. D(C  27,C  21,N  20,H  67)    -23.9154         0.015934   
    466. D(C  27,C  21,N  20,C  19)    152.4904         0.015934   
    467. D(C  22,C  21,N  20,H  67)     99.0954         0.015934   
    468. D(C  22,C  21,N  20,C  19)    -84.4988         0.015934   
    469. D(N  23,C  22,C  21,C  27)   -160.0906         0.009272   
    470. D(N  23,C  22,C  21,N  20)     77.3773         0.009272   
    471. D(O  26,C  22,C  21,H  68)    144.5643         0.009272   
    472. D(O  26,C  22,C  21,C  27)     21.8962         0.009272   
    473. D(O  26,C  22,C  21,N  20)   -100.6359         0.009272   
    474. D(N  23,C  22,C  21,H  68)    -37.4225         0.009272   
    475. D(H  69,N  23,C  22,O  26)    166.6017         0.030201   
    476. D(H  69,N  23,C  22,C  21)    -11.3868         0.030201   
    477. D(C  24,N  23,C  22,O  26)      3.3140         0.030201   
    478. D(C  24,N  23,C  22,C  21)   -174.6745         0.030201   
    479. D(H  70,C  24,N  23,H  69)    166.9283         0.016202   
    480. D(H  70,C  24,N  23,C  22)    -30.2531         0.016202   
    481. D(C  25,C  24,N  23,H  69)     47.0536         0.016202   
    482. D(C  25,C  24,N  23,C  22)   -150.1279         0.016202   
    483. D(C   7,C  24,N  23,H  69)    -73.7894         0.016202   
    484. D(C   7,C  24,N  23,C  22)     89.0291         0.016202   
    485. D(H  70,C  24,C   7,O   8)   -173.1481         0.009710   
    486. D(H  70,C  24,C   7,N   6)      6.8280         0.009710   
    487. D(C  25,C  24,C   7,O   8)    -51.2751         0.009710   
    488. D(C  25,C  24,C   7,N   6)    128.7010         0.009710   
    489. D(N  23,C  24,C   7,O   8)     70.2855         0.009710   
    490. D(N  23,C  24,C   7,N   6)   -109.7384         0.009710   
    491. D(H  73,C  25,C  24,H  70)    179.4634         0.011073   
    492. D(H  73,C  25,C  24,N  23)    -63.3682         0.011073   
    493. D(H  73,C  25,C  24,C   7)     57.6407         0.011073   
    494. D(H  72,C  25,C  24,H  70)     60.3975         0.011073   
    495. D(H  72,C  25,C  24,N  23)    177.5659         0.011073   
    496. D(H  72,C  25,C  24,C   7)    -61.4252         0.011073   
    497. D(H  71,C  25,C  24,H  70)    -59.9484         0.011073   
    498. D(H  71,C  25,C  24,N  23)     57.2200         0.011073   
    499. D(H  71,C  25,C  24,C   7)    178.2289         0.011073   
    500. D(H  75,C  27,C  21,H  68)   -168.4037         0.011275   
    501. D(H  75,C  27,C  21,C  22)    -47.6610         0.011275   
    502. D(H  75,C  27,C  21,N  20)     72.5672         0.011275   
    503. D(H  74,C  27,C  21,H  68)    -54.5721         0.011275   
    504. D(H  74,C  27,C  21,C  22)     66.1706         0.011275   
    505. D(H  74,C  27,C  21,N  20)   -173.6013         0.011275   
    506. D(C  28,C  27,C  21,H  68)     68.1215         0.011275   
    507. D(C  28,C  27,C  21,C  22)   -171.1358         0.011275   
    508. D(C  28,C  27,C  21,N  20)    -50.9076         0.011275   
    509. D(H  76,C  28,C  27,H  75)    -56.4017         0.010289   
    510. D(H  76,C  28,C  27,H  74)   -172.2876         0.010289   
    511. D(H  76,C  28,C  27,C  21)     66.2659         0.010289   
    512. D(C  30,C  28,C  27,H  75)   -175.4363         0.010289   
    513. D(C  30,C  28,C  27,H  74)     68.6778         0.010289   
    514. D(C  30,C  28,C  27,C  21)    -52.7687         0.010289   
    515. D(C  29,C  28,C  27,H  75)     59.8970         0.010289   
    516. D(C  29,C  28,C  27,H  74)    -55.9890         0.010289   
    517. D(C  29,C  28,C  27,C  21)   -177.4354         0.010289   
    518. D(H  79,C  29,C  28,C  30)     58.6591         0.010748   
    519. D(H  79,C  29,C  28,C  27)   -175.9993         0.010748   
    520. D(H  78,C  29,C  28,H  76)   -179.4697         0.010748   
    521. D(H  78,C  29,C  28,C  30)    -61.2893         0.010748   
    522. D(H  78,C  29,C  28,C  27)     64.0523         0.010748   
    523. D(H  77,C  29,C  28,H  76)     60.6535         0.010748   
    524. D(H  77,C  29,C  28,C  30)    178.8339         0.010748   
    525. D(H  79,C  29,C  28,H  76)    -59.5212         0.010748   
    526. D(H  77,C  29,C  28,C  27)    -55.8245         0.010748   
    527. D(H  82,C  30,C  28,H  76)   -177.2944         0.010715   
    528. D(H  82,C  30,C  28,C  29)     65.1327         0.010715   
    529. D(H  82,C  30,C  28,C  27)    -58.6820         0.010715   
    530. D(H  81,C  30,C  28,H  76)     63.2005         0.010715   
    531. D(H  81,C  30,C  28,C  29)    -54.3724         0.010715   
    532. D(H  81,C  30,C  28,C  27)   -178.1871         0.010715   
    533. D(H  80,C  30,C  28,H  76)    -56.8565         0.010715   
    534. D(H  80,C  30,C  28,C  29)   -174.4294         0.010715   
    535. D(H  80,C  30,C  28,C  27)     61.7559         0.010715   
    536. D(O  42,C  32,C  18,H  66)     44.3035         0.009992   
    537. D(O  42,C  32,C  18,C  19)    159.7576         0.009992   
    538. D(O  42,C  32,C  18,C  17)    -68.1169         0.009992   
    539. D(C  33,C  32,C  18,H  66)   -131.6261         0.009992   
    540. D(C  33,C  32,C  18,C  19)    -16.1719         0.009992   
    541. D(C  33,C  32,C  18,C  17)    115.9536         0.009992   
    542. D(H  84,C  33,C  32,O  42)     32.4626         0.012002   
    543. D(H  84,C  33,C  32,C  18)   -151.7832         0.012002   
    544. D(H  83,C  33,C  32,O  42)    153.7544         0.012002   
    545. D(H  83,C  33,C  32,C  18)    -30.4914         0.012002   
    546. D(C  34,C  33,C  32,O  42)    -86.2689         0.012002   
    547. D(C  34,C  33,C  32,C  18)     89.4853         0.012002   
    548. D(H  86,C  34,C  33,H  84)   -179.6444         0.010062   
    549. D(H  86,C  34,C  33,H  83)     58.4090         0.010062   
    550. D(H  86,C  34,C  33,C  32)    -62.7212         0.010062   
    551. D(H  85,C  34,C  33,H  84)    -63.7986         0.010062   
    552. D(H  85,C  34,C  33,H  83)    174.2548         0.010062   
    553. D(H  85,C  34,C  33,C  32)     53.1245         0.010062   
    554. D(C  35,C  34,C  33,H  84)     58.3736         0.010062   
    555. D(C  35,C  34,C  33,H  83)    -63.5730         0.010062   
    556. D(C  35,C  34,C  33,C  32)    175.2967         0.010062   
    557. D(H  88,C  35,C  34,H  86)    167.9042         0.010717   
    558. D(H  88,C  35,C  34,H  85)     51.4282         0.010717   
    559. D(H  88,C  35,C  34,C  33)    -69.9226         0.010717   
    560. D(H  87,C  35,C  34,H  86)    -76.4714         0.010717   
    561. D(H  87,C  35,C  34,H  85)    167.0526         0.010717   
    562. D(H  87,C  35,C  34,C  33)     45.7019         0.010717   
    563. D(C  36,C  35,C  34,H  86)     44.2697         0.010717   
    564. D(C  36,C  35,C  34,H  85)    -72.2063         0.010717   
    565. D(C  36,C  35,C  34,C  33)    166.4430         0.010717   
    566. D(H  90,C  36,C  35,H  87)    -57.7477         0.010538   
    567. D(H  90,C  36,C  35,C  34)   -178.6068         0.010538   
    568. D(H  89,C  36,C  35,H  88)    173.8917         0.010538   
    569. D(H  89,C  36,C  35,H  87)     57.7842         0.010538   
    570. D(H  89,C  36,C  35,C  34)    -63.0749         0.010538   
    571. D(C  37,C  36,C  35,H  88)    -66.0037         0.010538   
    572. D(C  37,C  36,C  35,H  87)    177.8887         0.010538   
    573. D(H  90,C  36,C  35,H  88)     58.3599         0.010538   
    574. D(C  37,C  36,C  35,C  34)     57.0296         0.010538   
    575. D(H  92,C  37,C  36,H  90)   -171.5017         0.010814   
    576. D(H  92,C  37,C  36,H  89)     72.9890         0.010814   
    577. D(H  92,C  37,C  36,C  35)    -47.2757         0.010814   
    578. D(H  91,C  37,C  36,H  90)    -55.7233         0.010814   
    579. D(H  91,C  37,C  36,H  89)   -171.2327         0.010814   
    580. D(H  91,C  37,C  36,C  35)     68.5027         0.010814   
    581. D(C  38,C  37,C  36,H  90)     69.2118         0.010814   
    582. D(C  38,C  37,C  36,H  89)    -46.2975         0.010814   
    583. D(C  38,C  37,C  36,C  35)   -166.5622         0.010814   
    584. D(H  94,C  38,C  37,H  92)    171.7288         0.010912   
    585. D(H  94,C  38,C  37,H  91)     56.8243         0.010912   
    586. D(H  94,C  38,C  37,C  36)    -68.0027         0.010912   
    587. D(H  93,C  38,C  37,H  92)    -72.4292         0.010912   
    588. D(H  93,C  38,C  37,H  91)    172.6663         0.010912   
    589. D(H  93,C  38,C  37,C  36)     47.8393         0.010912   
    590. D(C  39,C  38,C  37,H  92)     47.3417         0.010912   
    591. D(C  39,C  38,C  37,H  91)    -67.5627         0.010912   
    592. D(C  39,C  38,C  37,C  36)    167.6102         0.010912   
    593. D(H  95,C  39,C  38,H  94)    -58.0321         0.010985   
    594. D(H  95,C  39,C  38,H  93)   -174.0278         0.010985   
    595. D(H  95,C  39,C  38,C  37)     66.5836         0.010985   
    596. D(C  40,C  39,C  38,H  94)     66.1740         0.010985   
    597. D(C  40,C  39,C  38,H  93)    -49.8216         0.010985   
    598. D(C  40,C  39,C  38,C  37)   -169.2102         0.010985   
    599. D(H  96,C  39,C  38,H  94)   -172.4272         0.010985   
    600. D(H  96,C  39,C  38,H  93)     71.5771         0.010985   
    601. D(H  96,C  39,C  38,C  37)    -47.8114         0.010985   
    602. D(H  98,C  40,C  39,H  95)     63.9241         0.010908   
    603. D(H  98,C  40,C  39,C  38)    -60.6310         0.010908   
    604. D(H  97,C  40,C  39,H  96)    -67.1342         0.010908   
    605. D(H  97,C  40,C  39,H  95)    178.5210         0.010908   
    606. D(H  97,C  40,C  39,C  38)     53.9659         0.010908   
    607. D(C  41,C  40,C  39,H  96)     55.0098         0.010908   
    608. D(C  41,C  40,C  39,H  95)    -59.3350         0.010908   
    609. D(H  98,C  40,C  39,H  96)    178.2689         0.010908   
    610. D(C  41,C  40,C  39,C  38)    176.1099         0.010908   
    611. D(H 101,C  41,C  40,H  98)    -63.1144         0.011011   
    612. D(H 101,C  41,C  40,H  97)   -178.3947         0.011011   
    613. D(H 101,C  41,C  40,C  39)     59.9502         0.011011   
    614. D(H 100,C  41,C  40,H  98)    177.7212         0.011011   
    615. D(H 100,C  41,C  40,H  97)     62.4409         0.011011   
    616. D(H 100,C  41,C  40,C  39)    -59.2142         0.011011   
    617. D(H  99,C  41,C  40,H  98)     57.3564         0.011011   
    618. D(H  99,C  41,C  40,H  97)    -57.9239         0.011011   
    619. D(H  99,C  41,C  40,C  39)   -179.5790         0.011011   
    620. D(H 102,O  43,C  17,H  65)     45.4727         0.019793   
    621. D(H 102,O  43,C  17,C  18)    -74.5819         0.019793   
    622. D(H 102,O  43,C  17,C  16)    162.3292         0.019793   
    623. D(H 104,C  45,C  13,H  61)    172.7829         0.011230   
    624. D(H 104,C  45,C  13,C  14)    -65.2805         0.011230   
    625. D(H 104,C  45,C  13,N  12)     55.2236         0.011230   
    626. D(H 103,C  45,C  13,H  61)    -73.3787         0.011230   
    627. D(H 103,C  45,C  13,C  14)     48.5579         0.011230   
    628. D(H 103,C  45,C  13,N  12)    169.0620         0.011230   
    629. D(C  46,C  45,C  13,H  61)     49.9057         0.011230   
    630. D(C  46,C  45,C  13,C  14)    171.8424         0.011230   
    631. D(C  46,C  45,C  13,N  12)    -67.6536         0.011230   
    632. D(H 107,C  46,C  45,H 104)    -68.2809         0.011010   
    633. D(H 107,C  46,C  45,H 103)    175.0497         0.011010   
    634. D(H 107,C  46,C  45,C  13)     53.4929         0.011010   
    635. D(H 106,C  46,C  45,H 104)    172.7115         0.011010   
    636. D(H 106,C  46,C  45,H 103)     56.0421         0.011010   
    637. D(H 106,C  46,C  45,C  13)    -65.5147         0.011010   
    638. D(H 105,C  46,C  45,H 104)     52.6713         0.011010   
    639. D(H 105,C  46,C  45,H 103)    -63.9981         0.011010   
    640. D(H 105,C  46,C  45,C  13)    174.4451         0.011010   
    641. D(H 108,C  48,C  10,H  59)   -157.7232         0.009115   
    642. D(H 108,C  48,C  10,C  11)    -44.2100         0.009115   
    643. D(H 108,C  48,C  10,N   9)     85.3872         0.009115   
    644. D(C  50,C  48,C  10,H  59)     83.7281         0.009115   
    645. D(C  50,C  48,C  10,C  11)   -162.7587         0.009115   
    646. D(C  50,C  48,C  10,N   9)    -33.1616         0.009115   
    647. D(C  49,C  48,C  10,H  59)    -38.9584         0.009115   
    648. D(C  49,C  48,C  10,C  11)     74.5548         0.009115   
    649. D(C  49,C  48,C  10,N   9)   -155.8481         0.009115   
    650. D(H 111,C  49,C  48,C  50)     58.1910         0.010578   
    651. D(H 111,C  49,C  48,C  10)   -178.7192         0.010578   
    652. D(H 110,C  49,C  48,H 108)    179.5396         0.010578   
    653. D(H 110,C  49,C  48,C  50)    -61.2172         0.010578   
    654. D(H 110,C  49,C  48,C  10)     61.8726         0.010578   
    655. D(H 109,C  49,C  48,H 108)     59.7479         0.010578   
    656. D(H 109,C  49,C  48,C  50)    178.9911         0.010578   
    657. D(H 111,C  49,C  48,H 108)    -61.0523         0.010578   
    658. D(H 109,C  49,C  48,C  10)    -57.9191         0.010578   
    659. D(H 114,C  50,C  48,H 108)   -173.7190         0.010848   
    660. D(H 114,C  50,C  48,C  49)     66.5744         0.010848   
    661. D(H 114,C  50,C  48,C  10)    -55.7792         0.010848   
    662. D(H 113,C  50,C  48,H 108)     67.1975         0.010848   
    663. D(H 113,C  50,C  48,C  49)    -52.5092         0.010848   
    664. D(H 113,C  50,C  48,C  10)   -174.8628         0.010848   
    665. D(H 112,C  50,C  48,H 108)    -52.3146         0.010848   
    666. D(H 112,C  50,C  48,C  49)   -172.0213         0.010848   
    667. D(H 112,C  50,C  48,C  10)     65.6251         0.010848   
    -----------------------------------------------------------------

Number of atoms                         .... 115
Number of degrees of freedom            .... 667

         *************************************************************
         *                GEOMETRY OPTIMIZATION CYCLE   1            *
         *************************************************************
---------------------------------
CARTESIAN COORDINATES (ANGSTROEM)
---------------------------------
  O     -1.452360    2.390420   -2.235465
  C     -1.446709    2.040987   -1.052596
  C     -1.206079    3.045453    0.111113
  C     -0.882919    4.447039   -0.416000
  C      0.650997    4.432607   -0.515992
  C      1.079407    3.679457    0.747628
  N     -0.026972    2.712440    0.951635
  C     -0.087700    1.753452    1.907442
  O     -1.064227    0.980210    2.012102
  N     -1.672801    0.760462   -0.640456
  C     -2.100333   -0.291473   -1.556302
  C     -0.995450   -0.652859   -2.565139
  N      0.270059   -0.289003   -2.210253
  C      1.432951   -0.575235   -3.052038
  C      1.926238   -2.003023   -2.705685
  N      1.016622   -2.978792   -2.948016
  C      1.054361   -4.274120   -2.281649
  C      1.323960   -4.195308   -0.759202
  C      0.538826   -3.023190   -0.068882
  C      1.340126   -2.381672    1.063335
  N      2.464310   -1.759281    0.607261
  C      3.399193   -1.078757    1.499012
  C      2.856146    0.351608    1.731142
  N      1.819261    0.385529    2.619646
  C      1.086484    1.615492    2.895252
  C      0.548837    1.613392    4.328658
  O      3.296025    1.344310    1.140158
  C      4.813431   -1.069882    0.919730
  C      5.336644   -2.446271    0.463245
  C      6.782242   -2.314057   -0.036489
  C      5.219586   -3.514003    1.560770
  O      1.025172   -2.376438    2.268424
  C     -0.920191   -3.456613    0.140658
  C     -1.523780   -3.612560    1.515814
  C     -2.125300   -2.251798    1.931971
  C     -2.880239   -2.280615    3.268936
  C     -3.173843   -0.872050    3.812561
  C     -3.970826    0.032410    2.863346
  C     -3.969553    1.508674    3.276713
  C     -4.500465    2.441321    2.183303
  C     -4.271760    3.931735    2.460308
  C     -4.724933    4.838826    1.312257
  O     -1.603438   -3.598307   -0.870486
  O      0.963439   -5.466457   -0.237743
  O      3.011374   -2.204103   -2.128291
  C      2.506407    0.493862   -2.846547
  C      2.073819    1.863558   -3.378552
  O     -1.210193   -1.315401   -3.590747
  C     -3.480269   -0.052162   -2.242529
  C     -4.093376   -1.396088   -2.669194
  C     -4.437816    0.704233   -1.313122
  H     -2.109510    3.014539    0.756085
  H     -1.226199    5.211464    0.310777
  H     -1.379221    4.620221   -1.388157
  H      0.960037    3.869164   -1.419689
  H      1.101727    5.441909   -0.574497
  H      2.042825    3.139248    0.661359
  H      1.136916    4.372561    1.616762
  H     -1.674247    0.606393    0.388956
  H     -2.207604   -1.206235   -0.933813
  H      0.393845    0.269928   -1.361894
  H      1.066983   -0.577188   -4.102542
  H      0.119134   -2.663030   -3.361663
  H      1.830003   -4.932050   -2.726524
  H      0.067599   -4.750741   -2.427471
  H      2.406819   -4.001269   -0.610813
  H      0.453715   -2.219280   -0.827757
  H      2.713658   -1.805270   -0.399187
  H      3.367105   -1.615895    2.470184
  H      1.404462   -0.526176    2.884534
  H      1.808917    2.440330    2.753627
  H      1.380789    1.482726    5.047202
  H      0.029239    2.565769    4.553593
  H     -0.181392    0.790811    4.461092
  H      5.490311   -0.645731    1.693246
  H      4.841298   -0.353820    0.072053
  H      4.717665   -2.768625   -0.402482
  H      6.860776   -1.557178   -0.843590
  H      7.462656   -2.001762    0.785044
  H      7.159763   -3.276710   -0.437931
  H      4.166063   -3.690149    1.861363
  H      5.632345   -4.484623    1.216832
  H      5.783071   -3.217175    2.472022
  H     -0.759493   -3.916609    2.255504
  H     -2.324152   -4.376440    1.440156
  H     -2.811275   -1.916720    1.124444
  H     -1.312564   -1.499059    1.996429
  H     -2.269614   -2.832217    4.016718
  H     -3.823161   -2.861430    3.152740
  H     -2.201098   -0.373617    4.016019
  H     -3.697553   -0.949979    4.790877
  H     -5.013602   -0.343082    2.753083
  H     -3.520023   -0.024080    1.850970
  H     -2.919457    1.795647    3.502623
  H     -4.543364    1.653827    4.219970
  H     -5.583779    2.254053    2.006548
  H     -4.001704    2.173960    1.224312
  H     -3.187588    4.096174    2.661269
  H     -4.791578    4.220859    3.400829
  H     -4.542720    5.910507    1.532467
  H     -4.187956    4.594710    0.370574
  H     -5.809303    4.718534    1.107144
  H      1.374693   -5.553772    0.641701
  H      3.438648    0.147985   -3.336385
  H      2.749864    0.552279   -1.762108
  H      2.822354    2.642107   -3.131386
  H      1.955106    1.845102   -4.481514
  H      1.095698    2.175543   -2.957552
  H     -3.300425    0.570067   -3.143678
  H     -3.418496   -1.939992   -3.353174
  H     -4.275410   -2.041484   -1.783225
  H     -5.064950   -1.234236   -3.179073
  H     -4.095792    1.734955   -1.097098
  H     -5.438539    0.781812   -1.783744
  H     -4.564798    0.177000   -0.343798

----------------------------
CARTESIAN COORDINATES (A.U.)
----------------------------
  NO LB      ZA    FRAG     MASS         X           Y           Z
   0 O     8.0000    0    15.999   -2.744562    4.517239   -4.224416
   1 C     6.0000    0    12.011   -2.733885    3.856906   -1.989119
   2 C     6.0000    0    12.011   -2.279159    5.755073    0.209973
   3 C     6.0000    0    12.011   -1.668476    8.403686   -0.786125
   4 C     6.0000    0    12.011    1.230205    8.376413   -0.975084
   5 C     6.0000    0    12.011    2.039783    6.953165    1.412811
   6 N     7.0000    0    14.007   -0.050969    5.125769    1.798329
   7 C     6.0000    0    12.011   -0.165728    3.313544    3.604542
   8 O     8.0000    0    15.999   -2.011097    1.852328    3.802322
   9 N     7.0000    0    14.007   -3.161135    1.437064   -1.210286
  10 C     6.0000    0    12.011   -3.969054   -0.550805   -2.940985
  11 C     6.0000    0    12.011   -1.881127   -1.233724   -4.847410
  12 N     7.0000    0    14.007    0.510338   -0.546136   -4.176772
  13 C     6.0000    0    12.011    2.707885   -1.087038   -5.767516
  14 C     6.0000    0    12.011    3.640061   -3.785165   -5.113004
  15 N     7.0000    0    14.007    1.921137   -5.629101   -5.570943
  16 C     6.0000    0    12.011    1.992454   -8.076916   -4.311693
  17 C     6.0000    0    12.011    2.501922   -7.927984   -1.434684
  18 C     6.0000    0    12.011    1.018234   -5.713001   -0.130167
  19 C     6.0000    0    12.011    2.532471   -4.500707    2.009412
  20 N     7.0000    0    14.007    4.656870   -3.324560    1.147556
  21 C     6.0000    0    12.011    6.423544   -2.038555    2.832723
  22 C     6.0000    0    12.011    5.397334    0.664443    3.271385
  23 N     7.0000    0    14.007    3.437905    0.728544    4.950414
  24 C     6.0000    0    12.011    2.053156    3.052837    5.471233
  25 C     6.0000    0    12.011    1.037152    3.048868    8.179979
  26 O     8.0000    0    15.999    6.228585    2.540378    2.154586
  27 C     6.0000    0    12.011    9.096067   -2.021784    1.738037
  28 C     6.0000    0    12.011   10.084797   -4.622781    0.875407
  29 C     6.0000    0    12.011   12.816580   -4.372934   -0.068954
  30 C     6.0000    0    12.011    9.863588   -6.640503    2.949427
  31 O     8.0000    0    15.999    1.937294   -4.490818    4.286700
  32 C     6.0000    0    12.011   -1.738910   -6.532052    0.265804
  33 C     6.0000    0    12.011   -2.879527   -6.826750    2.864473
  34 C     6.0000    0    12.011   -4.016234   -4.255281    3.650895
  35 C     6.0000    0    12.011   -5.442863   -4.309739    6.177393
  36 C     6.0000    0    12.011   -5.997695   -1.647935    7.204697
  37 C     6.0000    0    12.011   -7.503774    0.061246    5.410939
  38 C     6.0000    0    12.011   -7.501367    2.850981    6.192090
  39 C     6.0000    0    12.011   -8.504646    4.613428    4.125845
  40 C     6.0000    0    12.011   -8.072457    7.429902    4.649308
  41 C     6.0000    0    12.011   -8.928830    9.144055    2.479807
  42 O     8.0000    0    15.999   -3.030059   -6.799815   -1.644980
  43 O     8.0000    0    15.999    1.820635  -10.330106   -0.449269
  44 O     8.0000    0    15.999    5.690673   -4.165151   -4.021887
  45 C     6.0000    0    12.011    4.736422    0.933264   -5.379194
  46 C     6.0000    0    12.011    3.918949    3.521615   -6.384538
  47 O     8.0000    0    15.999   -2.286934   -2.485748   -6.785528
  48 C     6.0000    0    12.011   -6.576755   -0.098572   -4.237766
  49 C     6.0000    0    12.011   -7.735360   -2.638224   -5.044046
  50 C     6.0000    0    12.011   -8.386257    1.330807   -2.481440
  51 H     1.0000    0     1.008   -3.986396    5.696653    1.428794
  52 H     1.0000    0     1.008   -2.317180    9.848240    0.587284
  53 H     1.0000    0     1.008   -2.606350    8.730953   -2.623236
  54 H     1.0000    0     1.008    1.814207    7.311661   -2.682823
  55 H     1.0000    0     1.008    2.081962   10.283717   -1.085641
  56 H     1.0000    0     1.008    3.860380    5.932319    1.249787
  57 H     1.0000    0     1.008    2.148460    8.262942    3.055237
  58 H     1.0000    0     1.008   -3.163868    1.145917    0.735020
  59 H     1.0000    0     1.008   -4.171767   -2.279454   -1.764651
  60 H     1.0000    0     1.008    0.744259    0.510091   -2.573607
  61 H     1.0000    0     1.008    2.016306   -1.090727   -7.752681
  62 H     1.0000    0     1.008    0.225131   -5.032397   -6.352623
  63 H     1.0000    0     1.008    3.458204   -9.320224   -5.152383
  64 H     1.0000    0     1.008    0.127743   -8.977600   -4.587256
  65 H     1.0000    0     1.008    4.548228   -7.561302   -1.154269
  66 H     1.0000    0     1.008    0.857397   -4.193831   -1.564234
  67 H     1.0000    0     1.008    5.128071   -3.411466   -0.754355
  68 H     1.0000    0     1.008    6.362905   -3.053599    4.667971
  69 H     1.0000    0     1.008    2.654049   -0.994329    5.450978
  70 H     1.0000    0     1.008    3.418357    4.611555    5.203601
  71 H     1.0000    0     1.008    2.609313    2.801946    9.537829
  72 H     1.0000    0     1.008    0.055254    4.848601    8.605043
  73 H     1.0000    0     1.008   -0.342782    1.494416    8.430243
  74 H     1.0000    0     1.008   10.375183   -1.220255    3.199770
  75 H     1.0000    0     1.008    9.148727   -0.668623    0.136161
  76 H     1.0000    0     1.008    8.915094   -5.231943   -0.760581
  77 H     1.0000    0     1.008   12.964988   -2.942639   -1.594155
  78 H     1.0000    0     1.008   14.102376   -3.782783    1.483519
  79 H     1.0000    0     1.008   13.529990   -6.192084   -0.827570
  80 H     1.0000    0     1.008    7.872719   -6.973372    3.517467
  81 H     1.0000    0     1.008   10.643590   -8.474710    2.299480
  82 H     1.0000    0     1.008   10.928419   -6.079579    4.671445
  83 H     1.0000    0     1.008   -1.435234   -7.401318    4.262284
  84 H     1.0000    0     1.008   -4.392011   -8.270273    2.721501
  85 H     1.0000    0     1.008   -5.312539   -3.622077    2.124892
  86 H     1.0000    0     1.008   -2.480386   -2.832810    3.772705
  87 H     1.0000    0     1.008   -4.288948   -5.352115    7.590496
  88 H     1.0000    0     1.008   -7.224727   -5.407319    5.957814
  89 H     1.0000    0     1.008   -4.159473   -0.706033    7.589175
  90 H     1.0000    0     1.008   -6.987363   -1.795200    9.053446
  91 H     1.0000    0     1.008   -9.474335   -0.648331    5.202573
  92 H     1.0000    0     1.008   -6.651879   -0.045504    3.497827
  93 H     1.0000    0     1.008   -5.516974    3.393281    6.618998
  94 H     1.0000    0     1.008   -8.585714    3.125280    7.974589
  95 H     1.0000    0     1.008  -10.551813    4.259544    3.791827
  96 H     1.0000    0     1.008   -7.562125    4.108188    2.313615
  97 H     1.0000    0     1.008   -6.023669    7.740647    5.029070
  98 H     1.0000    0     1.008   -9.054771    7.976268    6.426636
  99 H     1.0000    0     1.008   -8.584496   11.169240    2.895944
 100 H     1.0000    0     1.008   -7.914089    8.682743    0.700284
 101 H     1.0000    0     1.008  -10.977991    8.916738    2.092198
 102 H     1.0000    0     1.008    2.597794  -10.495107    1.212640
 103 H     1.0000    0     1.008    6.498103    0.279651   -6.304854
 104 H     1.0000    0     1.008    5.196489    1.043657   -3.329901
 105 H     1.0000    0     1.008    5.333476    4.992858   -5.917461
 106 H     1.0000    0     1.008    3.694614    3.486737   -8.468834
 107 H     1.0000    0     1.008    2.070569    4.111181   -5.588963
 108 H     1.0000    0     1.008   -6.236899    1.077270   -5.940690
 109 H     1.0000    0     1.008   -6.460022   -3.666053   -6.336581
 110 H     1.0000    0     1.008   -8.079353   -3.857845   -3.369806
 111 H     1.0000    0     1.008   -9.571368   -2.332367   -6.007577
 112 H     1.0000    0     1.008   -7.739925    3.278589   -2.073214
 113 H     1.0000    0     1.008  -10.277350    1.477410   -3.370787
 114 H     1.0000    0     1.008   -8.626219    0.334482   -0.649684

--------------------------------
INTERNAL COORDINATES (ANGSTROEM)
--------------------------------
 O      0   0   0     0.000000000000     0.00000000     0.00000000
 C      1   0   0     1.233415287206     0.00000000     0.00000000
 C      2   1   0     1.555980517884   122.34829680     0.00000000
 C      3   2   1     1.531901576920   111.46402531   355.70867149
 C      4   3   2     1.537239240090   102.96109364   268.89221604
 C      5   4   3     1.532157202062   103.29569005   319.96303814
 N      6   5   4     1.483513387195   103.02080403    32.59789238
 C      7   6   5     1.355327593635   126.27197519   176.03722430
 O      8   7   6     1.249985077341   122.12415515   179.72206320
 N      2   1   3     1.364082450099   123.70710411   178.70746802
 C     10   2   1     1.458809721448   122.39904354   352.55937038
 C     11  10   2     1.539193938697   111.74104106    67.89925983
 N     12  11  10     1.363762623213   115.65255492    19.74783204
 C     13  12  11     1.463847166592   122.36846254   179.21639170
 C     14  13  12     1.549796485692   107.72689499   273.94073341
 N     15  14  13     1.355820607616   114.17635837    61.53586659
 C     16  15  14     1.457169167063   122.72757631   202.70762484
 C     17  16  15     1.548141271640   114.14012180    44.20159257
 C     18  17  16     1.570617451187   112.52990535    41.42279969
 C     19  18  17     1.528247724858   112.13481166   215.46442459
 N     20  19  18     1.363511160064   112.09224484    65.18454653
 C     21  20  19     1.460253993170   122.43263808   180.38090549
 C     22  21  20     1.547490533813   107.31934420   275.50117352
 N     23  22  21     1.365913845515   112.76289336    77.37733191
 C     24  23  22     1.457988754488   121.69777036   185.32549185
 C     25  24  23     1.530921812460   110.63050990   209.87213872
 O     23  22  21     1.236209557767   123.06999038   259.36413401
 C     22  21  20     1.528305279384   111.32584635   152.49041888
 C     28  22  21     1.541614390304   114.90489026   309.09237322
 C     29  28  22     1.535241906536   109.82035697   182.56455786
 C     29  28  22     1.535680705822   112.53641128   307.23130676
 O     20  19  18     1.245577588488   125.87089017   243.57975020
 C     19  18  17     1.536390012392   108.91283417    78.79432252
 C     33  19  18     1.509865282432   122.20732803   115.95357792
 C     34  33  19     1.544890609975   108.06038331    89.48529838
 C     35  34  33     1.535656214382   114.16755100   175.29674109
 C     36  35  34     1.538112226735   112.60421452   166.44295228
 C     37  36  35     1.534352714891   114.85512163    57.02962334
 C     38  37  36     1.533046346245   113.60313009   193.43784934
 C     39  38  37     1.532071526427   113.17112386   167.61019316
 C     40  39  38     1.533091971397   114.27753219   190.78977859
 C     41  40  39     1.531730698678   113.33797199   176.10988324
 O     33  19  18     1.228541648758   116.64259151   291.88311890
 O     18  17  16     1.420462379139   105.73913649   164.37161661
 O     15  14  13     1.245527927947   121.98088605   248.52135641
 C     14  13  12     1.528889521405   110.10521959   150.31237017
 C     46  14  13     1.531740672301   112.35339633   292.34643150
 O     12  11  10     1.239737409938   122.91265711   194.70788686
 C     11  10   2     1.559615394835   115.14378211   297.92893129
 C     49  11  10     1.537556836104   109.92520508   204.15192808
 C     49  11  10     1.533893215612   111.18651794   326.83839706
 H      3   2   1     1.110464935944   106.89379428   120.12322915
 H      4   3   2     1.109230003500   109.86400800   150.62160736
 H      4   3   2     1.105168360928   110.56781148    29.98232232
 H      5   4   3     1.108891438025   109.62554361    77.35035060
 H      5   4   3     1.106919540054   113.65261105   198.12832118
 H      6   5   4     1.107900230572   114.74703354   152.09853750
 H      6   5   4     1.113146559298   110.62907651   275.42481131
 H     10   2   1     1.040878566149   115.97571559   182.15272916
 H     11  10   2     1.111660658488   105.67042997   180.46050281
 H     13  12  11     1.023444884370   118.27161011   354.13974134
 H     14  13  12     1.112427568686   106.38183184    29.89936611
 H     16  15  14     1.037445924626   115.63294552     1.94147459
 H     17  16  15     1.110137414851   111.20278769   282.22893762
 H     17  16  15     1.105501297340   107.44641182   163.77947821
 H     18  17  16     1.110069065633   108.07310968   283.04848286
 H     19  18  17     1.108786054947   106.17866100   328.48822499
 H     21  20  19     1.037895631013   120.14569991   356.68818121
 H     22  21  20     1.110279550098   106.87032639    30.92525099
 H     24  23  22     1.036064094913   116.63936341   348.61320437
 H     25  24  23     1.105587795859   106.06639950   329.74685783
 H     26  25  24     1.107032854651   110.11858246    57.22004701
 H     26  25  24     1.107971446800   110.70765161   177.56591702
 H     26  25  24     1.107887087985   110.14631808   296.63178138
 H     28  22  21     1.111933568634   107.56848480   186.39871847
 H     28  22  21     1.109989745932   108.44773598    72.56719678
 H     29  28  22     1.111994754304   107.48345655    66.26592495
 H     30  29  28     1.109254740633   111.23958641   304.17550971
 H     30  29  28     1.111488861641   111.10162976    64.05230540
 H     30  29  28     1.109223893502   111.31772813   184.00074094
 H     31  29  28     1.109636702927   112.10746987    61.75585416
 H     31  29  28     1.109399575075   111.00074023   181.81286075
 H     31  29  28     1.111756641965   111.19369623   301.31798448
 H     34  33  19     1.106218999882   111.17387446   329.50858182
 H     34  33  19     1.108977753897   107.30907419   208.21677854
 H     35  34  33     1.111277286985   108.07054501    53.12454863
 H     35  34  33     1.109644577587   109.14615429   297.27876006
 H     36  35  34     1.111893068468   108.95620277    45.70185184
 H     36  35  34     1.113529971373   109.58630383   290.07744565
 H     37  36  35     1.111783939045   107.95225006   296.92506955
 H     37  36  35     1.112406195492   109.66659524   181.39320525
 H     38  37  36     1.113792542058   110.41530847    68.50271260
 H     38  37  36     1.109648016381   108.86757596   312.72433035
 H     39  38  37     1.111795428338   107.70579916    47.83926705
 H     39  38  37     1.113581516245   110.70079385   291.99725171
 H     40  39  38     1.113499534008   110.36793306    66.58364128
 H     40  39  38     1.113511029150   108.25591579   312.18855609
 H     41  40  39     1.114833926219   108.72588539    53.96586343
 H     41  40  39     1.112827316902   109.60913078   299.36896800
 H     42  41  40     1.109141690765   112.01105058   180.42102079
 H     42  41  40     1.111172735479   111.22994763   300.78583605
 H     42  41  40     1.110134261961   111.30327817    59.95023513
 H     44  18  17     0.974769803612   107.71506561   162.32923153
 H     46  14  13     1.108443323331   108.23473009   169.06196811
 H     46  14  13     1.112965618735   108.73843270    55.22359659
 H     47  46  14     1.107941134507   111.10474357   174.44511692
 H     47  46  14     1.109485391668   111.13835166   294.48533028
 H     47  46  14     1.109637903468   111.62829407    53.49291246
 H     49  11  10     1.109766142994   107.45356466    85.38715455
 H     50  49  11     1.104138778995   111.02278354   302.08092525
 H     50  49  11     1.111131938147   110.59504793    61.87263826
 H     50  49  11     1.109110955298   110.44595002   181.28079982
 H     51  49  11     1.107264303774   112.60750863    65.62510058
 H     51  49  11     1.108580390154   109.92594858   185.13718290
 H     51  49  11     1.110714694689   111.47388986   304.22076859

---------------------------
INTERNAL COORDINATES (A.U.)
---------------------------
 O      0   0   0     0.000000000000     0.00000000     0.00000000
 C      1   0   0     2.330817102212     0.00000000     0.00000000
 C      2   1   0     2.940377048517   122.34829680     0.00000000
 C      3   2   1     2.894874444501   111.46402531   355.70867149
 C      4   3   2     2.904961166087   102.96109364   268.89221604
 C      5   4   3     2.895357506012   103.29569005   319.96303814
 N      6   5   4     2.803434017804   103.02080403    32.59789238
 C      7   6   5     2.561197973717   126.27197519   176.03722430
 O      8   7   6     2.362129467662   122.12415515   179.72206320
 N      2   1   3     2.577742254776   123.70710411   178.70746802
 C     10   2   1     2.756750855040   122.39904354   352.55937038
 C     11  10   2     2.908655011130   111.74104106    67.89925983
 N     12  11  10     2.577137869551   115.65255492    19.74783204
 C     13  12  11     2.766270246775   122.36846254   179.21639170
 C     14  13  12     2.928690921272   107.72689499   273.94073341
 N     15  14  13     2.562129635121   114.17635837    61.53586659
 C     16  15  14     2.753650656543   122.72757631   202.70762484
 C     17  16  15     2.925563020020   114.14012180    44.20159257
 C     18  17  16     2.968036843901   112.52990535    41.42279969
 C     19  18  17     2.887969664770   112.13481166   215.46442459
 N     20  19  18     2.576662673066   112.09224484    65.18454653
 C     21  20  19     2.759480133056   122.43263808   180.38090549
 C     22  21  20     2.924333303742   107.31934420   275.50117352
 N     23  22  21     2.581203090554   112.76289336    77.37733191
 C     24  23  22     2.755199452319   121.69777036   185.32549185
 C     25  24  23     2.893022957995   110.63050990   209.87213872
 O     23  22  21     2.336097508315   123.06999038   259.36413401
 C     22  21  20     2.888078427062   111.32584635   152.49041888
 C     28  22  21     2.913229001787   114.90489026   309.09237322
 C     29  28  22     2.901186752671   109.82035697   182.56455786
 C     29  28  22     2.902015963150   112.53641128   307.23130676
 O     20  19  18     2.353800520792   125.87089017   243.57975020
 C     19  18  17     2.903356358312   108.91283417    78.79432252
 C     33  19  18     2.853231882913   122.20732803   115.95357792
 C     34  33  19     2.919420159719   108.06038331    89.48529838
 C     35  34  33     2.901969681036   114.16755100   175.29674109
 C     36  35  34     2.906610871766   112.60421452   166.44295228
 C     37  36  35     2.899506423982   114.85512163    57.02962334
 C     38  37  36     2.897037745011   113.60313009   193.43784934
 C     39  38  37     2.895195602525   113.17112386   167.61019316
 C     40  39  38     2.897123964054   114.27753219   190.78977859
 C     41  40  39     2.894551531422   113.33797199   176.10988324
 O     33  19  18     2.321607260269   116.64259151   291.88311890
 O     18  17  16     2.684284880110   105.73913649   164.37161661
 O     15  14  13     2.353706675970   121.98088605   248.52135641
 C     14  13  12     2.889182484478   110.10521959   150.31237017
 C     46  14  13     2.894570378838   112.35339633   292.34643150
 O     12  11  10     2.342764182759   122.91265711   194.70788686
 C     11  10   2     2.947245970486   115.14378211   297.92893129
 C     49  11  10     2.905561335575   109.92520508   204.15192808
 C     49  11  10     2.898638096186   111.18651794   326.83839706
 H      3   2   1     2.098474610256   106.89379428   120.12322915
 H      4   3   2     2.096140926143   109.86400800   150.62160736
 H      4   3   2     2.088465534028   110.56781148    29.98232232
 H      5   4   3     2.095501130117   109.62554361    77.35035060
 H      5   4   3     2.091774782987   113.65261105   198.12832118
 H      6   5   4     2.093628019490   114.74703354   152.09853750
[...]
freq.      73.43  E(vib)   ...       0.49 
freq.      75.85  E(vib)   ...       0.49 
freq.      79.15  E(vib)   ...       0.49 
freq.      84.31  E(vib)   ...       0.48 
freq.      85.42  E(vib)   ...       0.48 
freq.      91.45  E(vib)   ...       0.47 
freq.      93.24  E(vib)   ...       0.47 
freq.      97.53  E(vib)   ...       0.46 
freq.     102.29  E(vib)   ...       0.46 
freq.     105.62  E(vib)   ...       0.45 
freq.     108.49  E(vib)   ...       0.45 
freq.     113.58  E(vib)   ...       0.44 
freq.     123.78  E(vib)   ...       0.43 
freq.     128.81  E(vib)   ...       0.43 
freq.     133.77  E(vib)   ...       0.42 
freq.     134.39  E(vib)   ...       0.42 
freq.     143.41  E(vib)   ...       0.41 
freq.     145.00  E(vib)   ...       0.41 
freq.     151.13  E(vib)   ...       0.40 
freq.     156.34  E(vib)   ...       0.40 
freq.     160.63  E(vib)   ...       0.39 
freq.     163.27  E(vib)   ...       0.39 
freq.     171.07  E(vib)   ...       0.38 
freq.     172.58  E(vib)   ...       0.38 
freq.     189.58  E(vib)   ...       0.36 
freq.     196.36  E(vib)   ...       0.36 
freq.     205.14  E(vib)   ...       0.35 
freq.     209.03  E(vib)   ...       0.34 
freq.     212.13  E(vib)   ...       0.34 
freq.     215.70  E(vib)   ...       0.34 
freq.     223.12  E(vib)   ...       0.33 
freq.     226.18  E(vib)   ...       0.33 
freq.     228.93  E(vib)   ...       0.32 
freq.     234.15  E(vib)   ...       0.32 
freq.     236.83  E(vib)   ...       0.32 
freq.     237.83  E(vib)   ...       0.32 
freq.     239.12  E(vib)   ...       0.31 
freq.     245.12  E(vib)   ...       0.31 
freq.     249.52  E(vib)   ...       0.31 
freq.     257.16  E(vib)   ...       0.30 
freq.     262.92  E(vib)   ...       0.29 
freq.     264.06  E(vib)   ...       0.29 
freq.     266.94  E(vib)   ...       0.29 
freq.     280.40  E(vib)   ...       0.28 
freq.     283.65  E(vib)   ...       0.28 
freq.     287.55  E(vib)   ...       0.27 
freq.     292.11  E(vib)   ...       0.27 
freq.     309.03  E(vib)   ...       0.26 
freq.     311.04  E(vib)   ...       0.26 
freq.     316.87  E(vib)   ...       0.25 
freq.     324.96  E(vib)   ...       0.24 
freq.     332.17  E(vib)   ...       0.24 
freq.     339.53  E(vib)   ...       0.23 
freq.     350.93  E(vib)   ...       0.23 
freq.     355.31  E(vib)   ...       0.22 
freq.     357.32  E(vib)   ...       0.22 
freq.     379.85  E(vib)   ...       0.21 
freq.     383.96  E(vib)   ...       0.20 
freq.     387.11  E(vib)   ...       0.20 
freq.     393.26  E(vib)   ...       0.20 
freq.     398.31  E(vib)   ...       0.20 
freq.     410.13  E(vib)   ...       0.19 
freq.     414.50  E(vib)   ...       0.19 
freq.     421.52  E(vib)   ...       0.18 
freq.     422.49  E(vib)   ...       0.18 
freq.     445.24  E(vib)   ...       0.17 
freq.     455.49  E(vib)   ...       0.16 
freq.     456.64  E(vib)   ...       0.16 
freq.     476.89  E(vib)   ...       0.15 
freq.     497.27  E(vib)   ...       0.14 
freq.     501.55  E(vib)   ...       0.14 
freq.     521.45  E(vib)   ...       0.13 
freq.     528.87  E(vib)   ...       0.13 
freq.     535.23  E(vib)   ...       0.13 
freq.     552.31  E(vib)   ...       0.12 
freq.     556.45  E(vib)   ...       0.12 
freq.     591.86  E(vib)   ...       0.10 
freq.     618.38  E(vib)   ...       0.09 
freq.     627.65  E(vib)   ...       0.09 
freq.     639.28  E(vib)   ...       0.09 
freq.     648.67  E(vib)   ...       0.08 
freq.     680.15  E(vib)   ...       0.08 
freq.     689.67  E(vib)   ...       0.07 
freq.     698.82  E(vib)   ...       0.07 
freq.     706.48  E(vib)   ...       0.07 
freq.     711.32  E(vib)   ...       0.07 
freq.     716.66  E(vib)   ...       0.07 
freq.     727.47  E(vib)   ...       0.06 
freq.     729.23  E(vib)   ...       0.06 
freq.     741.16  E(vib)   ...       0.06 
freq.     744.50  E(vib)   ...       0.06 
freq.     753.90  E(vib)   ...       0.06 
freq.     755.78  E(vib)   ...       0.06 
freq.     766.29  E(vib)   ...       0.06 
freq.     768.82  E(vib)   ...       0.06 
freq.     781.69  E(vib)   ...       0.05 
freq.     789.75  E(vib)   ...       0.05 
freq.     792.07  E(vib)   ...       0.05 
freq.     796.42  E(vib)   ...       0.05 
freq.     804.30  E(vib)   ...       0.05 
freq.     807.48  E(vib)   ...       0.05 
freq.     818.75  E(vib)   ...       0.05 
freq.     825.11  E(vib)   ...       0.04 
freq.     834.96  E(vib)   ...       0.04 
freq.     838.27  E(vib)   ...       0.04 
freq.     853.63  E(vib)   ...       0.04 
freq.     860.92  E(vib)   ...       0.04 
freq.     868.23  E(vib)   ...       0.04 
freq.     875.60  E(vib)   ...       0.04 
freq.     878.04  E(vib)   ...       0.04 
freq.     883.45  E(vib)   ...       0.04 
freq.     892.77  E(vib)   ...       0.03 
freq.     894.56  E(vib)   ...       0.03 
freq.     901.72  E(vib)   ...       0.03 
freq.     905.21  E(vib)   ...       0.03 
freq.     914.28  E(vib)   ...       0.03 
freq.     915.85  E(vib)   ...       0.03 
freq.     918.20  E(vib)   ...       0.03 
freq.     923.42  E(vib)   ...       0.03 
freq.     930.49  E(vib)   ...       0.03 
freq.     938.37  E(vib)   ...       0.03 
freq.     940.16  E(vib)   ...       0.03 
freq.     942.61  E(vib)   ...       0.03 
freq.     946.24  E(vib)   ...       0.03 
freq.     948.38  E(vib)   ...       0.03 
freq.     954.61  E(vib)   ...       0.03 
freq.     969.57  E(vib)   ...       0.03 
freq.     975.73  E(vib)   ...       0.03 
freq.     981.42  E(vib)   ...       0.02 
freq.     985.42  E(vib)   ...       0.02 
freq.     994.53  E(vib)   ...       0.02 
freq.     998.12  E(vib)   ...       0.02 
freq.    1000.82  E(vib)   ...       0.02 
freq.    1002.29  E(vib)   ...       0.02 
freq.    1018.96  E(vib)   ...       0.02 
freq.    1027.24  E(vib)   ...       0.02 
freq.    1030.69  E(vib)   ...       0.02 
freq.    1031.90  E(vib)   ...       0.02 
freq.    1037.59  E(vib)   ...       0.02 
freq.    1042.73  E(vib)   ...       0.02 
freq.    1047.39  E(vib)   ...       0.02 
freq.    1055.04  E(vib)   ...       0.02 
freq.    1059.75  E(vib)   ...       0.02 
freq.    1061.30  E(vib)   ...       0.02 
freq.    1062.56  E(vib)   ...       0.02 
freq.    1074.78  E(vib)   ...       0.02 
freq.    1079.05  E(vib)   ...       0.02 
freq.    1089.22  E(vib)   ...       0.02 
freq.    1091.41  E(vib)   ...       0.02 
freq.    1106.32  E(vib)   ...       0.02 
freq.    1109.22  E(vib)   ...       0.02 
freq.    1115.75  E(vib)   ...       0.01 
freq.    1119.31  E(vib)   ...       0.01 
freq.    1123.31  E(vib)   ...       0.01 
freq.    1125.93  E(vib)   ...       0.01 
freq.    1136.08  E(vib)   ...       0.01 
freq.    1139.76  E(vib)   ...       0.01 
freq.    1147.73  E(vib)   ...       0.01 
freq.    1151.97  E(vib)   ...       0.01 
freq.    1152.61  E(vib)   ...       0.01 
freq.    1160.60  E(vib)   ...       0.01 
freq.    1161.95  E(vib)   ...       0.01 
freq.    1173.24  E(vib)   ...       0.01 
freq.    1176.52  E(vib)   ...       0.01 
freq.    1186.56  E(vib)   ...       0.01 
freq.    1187.83  E(vib)   ...       0.01 
freq.    1189.87  E(vib)   ...       0.01 
freq.    1194.17  E(vib)   ...       0.01 
freq.    1207.06  E(vib)   ...       0.01 
freq.    1209.56  E(vib)   ...       0.01 
freq.    1215.24  E(vib)   ...       0.01 
freq.    1220.25  E(vib)   ...       0.01 
freq.    1223.00  E(vib)   ...       0.01 
freq.    1227.44  E(vib)   ...       0.01 
freq.    1233.14  E(vib)   ...       0.01 
freq.    1237.71  E(vib)   ...       0.01 
freq.    1240.54  E(vib)   ...       0.01 
freq.    1240.99  E(vib)   ...       0.01 
freq.    1252.35  E(vib)   ...       0.01 
freq.    1263.61  E(vib)   ...       0.01 
freq.    1264.88  E(vib)   ...       0.01 
freq.    1265.48  E(vib)   ...       0.01 
freq.    1267.27  E(vib)   ...       0.01 
freq.    1273.34  E(vib)   ...       0.01 
freq.    1281.65  E(vib)   ...       0.01 
freq.    1282.92  E(vib)   ...       0.01 
freq.    1283.93  E(vib)   ...       0.01 
freq.    1288.62  E(vib)   ...       0.01 
freq.    1288.76  E(vib)   ...       0.01 
freq.    1291.42  E(vib)   ...       0.01 
freq.    1292.93  E(vib)   ...       0.01 
freq.    1297.27  E(vib)   ...       0.01 
freq.    1300.39  E(vib)   ...       0.01 
freq.    1302.52  E(vib)   ...       0.01 
freq.    1304.27  E(vib)   ...       0.01 
freq.    1307.64  E(vib)   ...       0.01 
freq.    1309.63  E(vib)   ...       0.01 
freq.    1312.80  E(vib)   ...       0.01 
freq.    1315.08  E(vib)   ...       0.01 
freq.    1318.43  E(vib)   ...       0.01 
freq.    1319.56  E(vib)   ...       0.01 
freq.    1321.65  E(vib)   ...       0.01 
freq.    1323.68  E(vib)   ...       0.01 
freq.    1327.86  E(vib)   ...       0.01 
freq.    1328.44  E(vib)   ...       0.01 
freq.    1333.66  E(vib)   ...       0.01 
freq.    1338.97  E(vib)   ...       0.01 
freq.    1340.04  E(vib)   ...       0.01 
freq.    1345.45  E(vib)   ...       0.01 
freq.    1347.41  E(vib)   ...       0.01 
freq.    1348.12  E(vib)   ...       0.01 
freq.    1348.67  E(vib)   ...       0.01 
freq.    1351.10  E(vib)   ...       0.01 
freq.    1352.74  E(vib)   ...       0.01 
freq.    1354.68  E(vib)   ...       0.01 
freq.    1364.45  E(vib)   ...       0.01 
freq.    1369.28  E(vib)   ...       0.01 
freq.    1371.72  E(vib)   ...       0.01 
freq.    1373.55  E(vib)   ...       0.01 
freq.    1378.74  E(vib)   ...       0.01 
freq.    1410.88  E(vib)   ...       0.00 
freq.    1414.22  E(vib)   ...       0.00 
freq.    1424.07  E(vib)   ...       0.00 
freq.    1426.37  E(vib)   ...       0.00 
freq.    1427.04  E(vib)   ...       0.00 
freq.    1429.05  E(vib)   ...       0.00 
freq.    1429.81  E(vib)   ...       0.00 
freq.    1432.52  E(vib)   ...       0.00 
freq.    1434.08  E(vib)   ...       0.00 
freq.    1435.26  E(vib)   ...       0.00 
freq.    1438.08  E(vib)   ...       0.00 
freq.    1438.74  E(vib)   ...       0.00 
freq.    1440.95  E(vib)   ...       0.00 
freq.    1443.53  E(vib)   ...       0.00 
freq.    1444.98  E(vib)   ...       0.00 
freq.    1445.84  E(vib)   ...       0.00 
freq.    1449.48  E(vib)   ...       0.00 
freq.    1450.17  E(vib)   ...       0.00 
freq.    1450.99  E(vib)   ...       0.00 
freq.    1451.17  E(vib)   ...       0.00 
freq.    1451.61  E(vib)   ...       0.00 
freq.    1453.25  E(vib)   ...       0.00 
freq.    1454.26  E(vib)   ...       0.00 
freq.    1456.23  E(vib)   ...       0.00 
freq.    1462.07  E(vib)   ...       0.00 
freq.    1462.29  E(vib)   ...       0.00 
freq.    1463.02  E(vib)   ...       0.00 
freq.    1464.74  E(vib)   ...       0.00 
freq.    1467.86  E(vib)   ...       0.00 
freq.    1480.40  E(vib)   ...       0.00 
freq.    1497.50  E(vib)   ...       0.00 
freq.    1520.27  E(vib)   ...       0.00 
freq.    1526.68  E(vib)   ...       0.00 
freq.    1528.03  E(vib)   ...       0.00 
freq.    1613.14  E(vib)   ...       0.00 
freq.    1634.21  E(vib)   ...       0.00 
freq.    1642.23  E(vib)   ...       0.00 
freq.    1654.12  E(vib)   ...       0.00 
freq.    1673.88  E(vib)   ...       0.00 
freq.    1681.31  E(vib)   ...       0.00 
freq.    1684.33  E(vib)   ...       0.00 
freq.    2926.33  E(vib)   ...       0.00 
freq.    2933.34  E(vib)   ...       0.00 
freq.    2937.63  E(vib)   ...       0.00 
freq.    2940.51  E(vib)   ...       0.00 
freq.    2942.66  E(vib)   ...       0.00 
freq.    2944.17  E(vib)   ...       0.00 
freq.    2946.96  E(vib)   ...       0.00 
freq.    2948.81  E(vib)   ...       0.00 
freq.    2950.96  E(vib)   ...       0.00 
freq.    2952.02  E(vib)   ...       0.00 
freq.    2955.73  E(vib)   ...       0.00 
freq.    2955.83  E(vib)   ...       0.00 
freq.    2955.97  E(vib)   ...       0.00 
freq.    2956.90  E(vib)   ...       0.00 
freq.    2957.72  E(vib)   ...       0.00 
freq.    2961.23  E(vib)   ...       0.00 
freq.    2965.25  E(vib)   ...       0.00 
freq.    2967.22  E(vib)   ...       0.00 
freq.    2967.62  E(vib)   ...       0.00 
freq.    2969.70  E(vib)   ...       0.00 
freq.    2972.98  E(vib)   ...       0.00 
freq.    2974.28  E(vib)   ...       0.00 
freq.    2976.93  E(vib)   ...       0.00 
freq.    2979.26  E(vib)   ...       0.00 
freq.    2981.40  E(vib)   ...       0.00 
freq.    2981.61  E(vib)   ...       0.00 
freq.    2985.64  E(vib)   ...       0.00 
freq.    2985.73  E(vib)   ...       0.00 
freq.    2987.42  E(vib)   ...       0.00 
freq.    2987.78  E(vib)   ...       0.00 
freq.    2990.66  E(vib)   ...       0.00 
freq.    2991.17  E(vib)   ...       0.00 
freq.    2994.98  E(vib)   ...       0.00 
freq.    2997.93  E(vib)   ...       0.00 
freq.    3003.29  E(vib)   ...       0.00 
freq.    3010.17  E(vib)   ...       0.00 
freq.    3010.73  E(vib)   ...       0.00 
freq.    3012.49  E(vib)   ...       0.00 
freq.    3014.44  E(vib)   ...       0.00 
freq.    3017.98  E(vib)   ...       0.00 
freq.    3020.23  E(vib)   ...       0.00 
freq.    3021.41  E(vib)   ...       0.00 
freq.    3025.75  E(vib)   ...       0.00 
freq.    3027.44  E(vib)   ...       0.00 
freq.    3030.49  E(vib)   ...       0.00 
freq.    3032.14  E(vib)   ...       0.00 
freq.    3032.24  E(vib)   ...       0.00 
freq.    3034.11  E(vib)   ...       0.00 
freq.    3037.39  E(vib)   ...       0.00 
freq.    3040.63  E(vib)   ...       0.00 
freq.    3044.48  E(vib)   ...       0.00 
freq.    3049.39  E(vib)   ...       0.00 
freq.    3051.60  E(vib)   ...       0.00 
freq.    3055.83  E(vib)   ...       0.00 
freq.    3062.18  E(vib)   ...       0.00 
freq.    3064.29  E(vib)   ...       0.00 
freq.    3067.34  E(vib)   ...       0.00 
freq.    3079.57  E(vib)   ...       0.00 
freq.    3207.17  E(vib)   ...       0.00 
freq.    3258.74  E(vib)   ...       0.00 
freq.    3296.42  E(vib)   ...       0.00 
freq.    3347.73  E(vib)   ...       0.00 
freq.    3487.78  E(vib)   ...       0.00 
freq.    3691.25  E(vib)   ...       0.00 

------------
INNER ENERGY
------------

The inner energy is: U= E(el) + E(ZPE) + E(vib) + E(rot) + E(trans)
    E(el)   - is the total energy from the electronic structure calculation
              = E(kin-el) + E(nuc-el) + E(el-el) + E(nuc-nuc)
    E(ZPE)  - the the zero temperature vibrational energy from the frequency calculation
    E(vib)  - the the finite temperature correction to E(ZPE) due to population
              of excited vibrational states
    E(rot)  - is the rotational thermal energy
    E(trans)- is the translational thermal energy

Summary of contributions to the inner energy U:
Electronic energy                ...  -2380.09248136 Eh
Zero point energy                ...      0.97893582 Eh     614.29 kcal/mol
Thermal vibrational correction   ...      0.05492688 Eh      34.47 kcal/mol
Thermal rotational correction    ...      0.00141627 Eh       0.89 kcal/mol
Thermal translational correction ...      0.00141627 Eh       0.89 kcal/mol
-----------------------------------------------------------------------
Total thermal energy                  -2379.05578612 Eh


Summary of corrections to the electronic energy:
(perhaps to be used in another calculation)
Total thermal correction                  0.05775942 Eh      36.24 kcal/mol
Non-thermal (ZPE) correction              0.97893582 Eh     614.29 kcal/mol
-----------------------------------------------------------------------
Total correction                          1.03669524 Eh     650.53 kcal/mol


--------
ENTHALPY
--------

The enthalpy is H = U + kB*T
                kB is Boltzmann's constant
Total free energy                 ...  -2379.05578612 Eh 
Thermal Enthalpy correction       ...      0.00094421 Eh       0.59 kcal/mol
-----------------------------------------------------------------------
Total Enthalpy                    ...  -2379.05484191 Eh


Note: Only C1 symmetry has been detected, increase convergence thresholds 
      if your molecule has a higher symmetry. Symmetry factor of 1.0 is   
      used for the rotational entropy correction. 
 

Note: Rotational entropy computed according to Herzberg 
Infrared and Raman Spectra, Chapter V,1, Van Nostrand Reinhold, 1945 
Point Group:  C1, Symmetry Number:   1  
Rotational constants in cm-1:     0.002530     0.001662     0.001584 

Vibrational entropy computed according to the QRRHO of S. Grimme
Chem.Eur.J. 2012 18 9955


-------
ENTROPY
-------

The entropy contributions are T*S = T*(S(el)+S(vib)+S(rot)+S(trans))
     S(el)   - electronic entropy
     S(vib)  - vibrational entropy
     S(rot)  - rotational entropy
     S(trans)- translational entropy
The entropies will be listed as mutliplied by the temperature to get
units of energy

Electronic entropy                ...      0.00000000 Eh      0.00 kcal/mol
Vibrational entropy               ...      0.09975744 Eh     62.60 kcal/mol
Rotational entropy                ...      0.01839899 Eh     11.55 kcal/mol
Translational entropy             ...      0.02166895 Eh     13.60 kcal/mol
-----------------------------------------------------------------------
Final entropy term                ...      0.13982538 Eh     87.74 kcal/mol

In case the symmetry of your molecule has not been determined correctly
or in case you have a reason to use a different symmetry number we print 
out the resulting rotational entropy values for sn=1,12 :
 --------------------------------------------------------
|  sn= 1 | S(rot)=       0.01839899 Eh     11.55 kcal/mol|
|  sn= 2 | S(rot)=       0.01774454 Eh     11.13 kcal/mol|
|  sn= 3 | S(rot)=       0.01736170 Eh     10.89 kcal/mol|
|  sn= 4 | S(rot)=       0.01709008 Eh     10.72 kcal/mol|
|  sn= 5 | S(rot)=       0.01687939 Eh     10.59 kcal/mol|
|  sn= 6 | S(rot)=       0.01670725 Eh     10.48 kcal/mol|
|  sn= 7 | S(rot)=       0.01656170 Eh     10.39 kcal/mol|
|  sn= 8 | S(rot)=       0.01643562 Eh     10.31 kcal/mol|
|  sn= 9 | S(rot)=       0.01632441 Eh     10.24 kcal/mol|
|  sn=10 | S(rot)=       0.01622493 Eh     10.18 kcal/mol|
|  sn=11 | S(rot)=       0.01613494 Eh     10.12 kcal/mol|
|  sn=12 | S(rot)=       0.01605279 Eh     10.07 kcal/mol|
 --------------------------------------------------------


-------------------
GIBBS FREE ENERGY
-------------------

The Gibbs free energy is G = H - T*S

Total enthalpy                    ...  -2379.05484191 Eh 
Total entropy correction          ...     -0.13982538 Eh    -87.74 kcal/mol
-----------------------------------------------------------------------
Final Gibbs free energy         ...  -2379.19466728 Eh

For completeness - the Gibbs free energy minus the electronic energy
G-E(el)                           ...      0.89781407 Eh    563.39 kcal/mol

--------------------------------------------------------------------------
WARNING: No preset parameters were found for the device that Open MPI
detected:

  Local host:            eu-fn-2t-07
  Device name:           mlx5_1
  Device vendor ID:      0x02c9
  Device vendor part ID: 4123

Default device parameters will be used, which may result in lower
performance.  You can edit any of the files specified by the
btl_openib_device_param_files MCA parameter to set values for your
device.

NOTE: You can turn off this warning by setting the MCA parameter
      btl_openib_warn_no_device_params_found to 0.
--------------------------------------------------------------------------

Timings for individual modules:

Sum of individual times         ...    37686.983 sec (= 628.116 min)
GTO integral calculation        ...       95.804 sec (=   1.597 min)   0.3 %
SCF iterations                  ...     3127.540 sec (=  52.126 min)   8.3 %
SCF Gradient evaluation         ...     1056.936 sec (=  17.616 min)   2.8 %
Geometry relaxation             ...       46.705 sec (=   0.778 min)   0.1 %
Analytical frequency calculation...    33359.998 sec (= 556.000 min)  88.5 %
                             ****ORCA TERMINATED NORMALLY****
TOTAL RUN TIME: 0 days 10 hours 29 minutes 24 seconds 736 msec
