
                                 *****************
                                 * O   R   C   A *
                                 *****************

           --- An Ab Initio, DFT and Semiempirical electronic structure package ---

                  #######################################################
                  #                        -***-                        #
                  #          Department of theory and spectroscopy      #
                  #               Directorship: Frank Neese             #
                  #        Max Planck Institute fuer Kohlenforschung    #
                  #                Kaiser Wilhelm Platz 1               #
                  #                 D-45470 Muelheim/Ruhr               #
                  #                      Germany                        #
                  #                                                     #
                  #                  All rights reserved                #
                  #                        -***-                        #
                  #######################################################


                         Program Version 4.2.0 -  RELEASE  -


 With contributions from (in alphabetic order):
   Daniel Aravena         : Magnetic Suceptibility
   Michael Atanasov       : Ab Initio Ligand Field Theory (pilot matlab implementation)
   Alexander A. Auer      : GIAO ZORA, VPT2
   Ute Becker             : Parallelization
   Giovanni Bistoni       : ED, misc. LED, open-shell LED, HFLED
   Martin Brehm           : Molecular dynamics
   Dmytro Bykov           : SCF Hessian
   Vijay G. Chilkuri      : MRCI spin determinant printing, contributions to CSF-ICE
   Dipayan Datta          : RHF DLPNO-CCSD density
   Achintya Kumar Dutta   : EOM-CC, STEOM-CC
   Dmitry Ganyushin       : Spin-Orbit,Spin-Spin,Magnetic field MRCI
   Miquel Garcia          : C-PCM Hessian, Gaussian charge scheme
   Yang Guo               : DLPNO-NEVPT2, CIM, IAO-localization
   Andreas Hansen         : Spin unrestricted coupled pair/coupled cluster methods
   Benjamin Helmich-Paris : CASSCF linear response (MC-RPA)
   Lee Huntington         : MR-EOM, pCC
   Robert Izsak           : Overlap fitted RIJCOSX, COSX-SCS-MP3, EOM
   Christian Kollmar      : KDIIS, OOCD, Brueckner-CCSD(T), CCSD density
   Simone Kossmann        : Meta GGA functionals, TD-DFT gradient, OOMP2, MP2 Hessian
   Martin Krupicka        : AUTO-CI
   Lucas Lang             : DCDCAS
   Dagmar Lenk            : GEPOL surface, SMD
   Dimitrios Liakos       : Extrapolation schemes; Compound Job, initial MDCI parallelization
   Dimitrios Manganas     : Further ROCIS development; embedding schemes
   Dimitrios Pantazis     : SARC Basis sets
   Taras Petrenko         : DFT Hessian,TD-DFT gradient, ASA, ECA, R-Raman, ABS, FL, XAS/XES, NRVS
   Peter Pinski           : DLPNO-MP2, DLPNO-MP2 Gradient
   Christoph Reimann      : Effective Core Potentials
   Marius Retegan         : Local ZFS, SOC
   Christoph Riplinger    : Optimizer, TS searches, QM/MM, DLPNO-CCSD(T), (RO)-DLPNO pert. Triples
   Tobias Risthaus        : Range-separated hybrids, TD-DFT gradient, RPA, STAB
   Michael Roemelt        : Original ROCIS implementation
   Masaaki Saitow         : Open-shell DLPNO-CCSD energy and density
   Barbara Sandhoefer     : DKH picture change effects
   Avijit Sen             : IP-ROCIS
   Kantharuban Sivalingam : CASSCF convergence, NEVPT2, FIC-MRCI
   Bernardo de Souza      : ESD, SOC TD-DFT
   Georgi Stoychev        : AutoAux, RI-MP2 NMR
   Willem Van den Heuvel  : Paramagnetic NMR
   Boris Wezisla          : Elementary symmetry handling
   Frank Wennmohs         : Technical directorship


 We gratefully acknowledge several colleagues who have allowed us to
 interface, adapt or use parts of their codes:
   Stefan Grimme, W. Hujo, H. Kruse,             : VdW corrections, initial TS optimization,
                  C. Bannwarth                     DFT functionals, gCP, sTDA/sTD-DF
   Ed Valeev, F. Pavosevic, A. Kumar             : LibInt (2-el integral package), F12 methods
   Garnet Chan, S. Sharma, J. Yang, R. Olivares  : DMRG
   Ulf Ekstrom                                   : XCFun DFT Library
   Mihaly Kallay                                 : mrcc  (arbitrary order and MRCC methods)
   Andreas Klamt, Michael Diedenhofen            : otool_cosmo (COSMO solvation model)
   Jiri Pittner, Ondrej Demel                    : Mk-CCSD
   Frank Weinhold                                : gennbo (NPA and NBO analysis)
   Christopher J. Cramer and Donald G. Truhlar   : smd solvation model
   Lars Goerigk                                  : TD-DFT with DH, B97 family of functionals
   V. Asgeirsson, H. Jonsson                     : NEB implementation
   FAccTs GmbH                                   : IRC, NEB, NEB-TS, Multilevel, MM, QM/MM, CI optimization
   S Lehtola, MJT Oliveira, MAL Marques          : LibXC Library


 Your calculation uses the libint2 library for the computation of 2-el integrals
 For citations please refer to: http://libint.valeyev.net

 Your ORCA version has been built with support for libXC version: 4.2.3
 For citations please refer to: https://tddft.org/programs/libxc/

 This ORCA versions uses:
   CBLAS   interface :  Fast vector & matrix operations
   LAPACKE interface :  Fast linear algebra routines
   SCALAPACK package :  Parallel linear algebra routines




***************************************
The coordinates will be read from file: 25_old.xyz
***************************************


Your calculation utilizes the atom-pairwise dispersion correction
with the Becke-Johnson damping scheme (D3BJ)
Cite in your paper:
S.Grimme, S.Ehrlich, L.Goerigk, J Comput Chem, (2011), 32, 1456–1465 
S.Grimme, J.Antony, S.Ehrlich and H.Krieg, J.Chem.Phys., 132, (2010), 154104 
   

----- Orbital basis set information -----
Your calculation utilizes the basis: def2-TZVP
   F. Weigend and R. Ahlrichs, Phys. Chem. Chem. Phys. 7, 3297 (2005).

----- AuxJ basis set information -----
Your calculation utilizes the auxiliary basis: def2/J
   F. Weigend, Phys. Chem. Chem. Phys. 8, 1057 (2006).

================================================================================
                                        WARNINGS
                       Please study these warnings very carefully!
================================================================================


WARNING: Geometry Optimization
  ===> : Switching off AutoStart
         For restart on a previous wavefunction, please use MOREAD

INFO   : the flag for use of LIBINT has been found!

================================================================================
                                       INPUT FILE
================================================================================
NAME = 25.inp
|  1> !RI BP86 def2-tzvp def2/J D3BJ TIGHTSCF TightOpt Grid5 FinalGrid6 freq
|  2> %maxcore 4000
|  3> %pal nprocs 24
|  4> end
|  5> * xyzfile 0 1 25_old.xyz 
|  6> 
|  7>                          ****END OF INPUT****
================================================================================

                       *****************************
                       * Geometry Optimization Run *
                       *****************************

Geometry optimization settings:
Update method            Update   .... BFGS
Choice of coordinates    CoordSys .... Z-matrix Internals
Initial Hessian          InHess   .... Almoef's Model

Convergence Tolerances:
Energy Change            TolE     ....  1.0000e-06 Eh
Max. Gradient            TolMAXG  ....  1.0000e-04 Eh/bohr
RMS Gradient             TolRMSG  ....  3.0000e-05 Eh/bohr
Max. Displacement        TolMAXD  ....  1.0000e-03 bohr
RMS Displacement         TolRMSD  ....  6.0000e-04 bohr
Strict Convergence                ....  False
------------------------------------------------------------------------------
                        ORCA OPTIMIZATION COORDINATE SETUP
------------------------------------------------------------------------------

The optimization will be done in new redundant internal coordinates
Making redundant internal coordinates   ...  (new redundants) done
Evaluating the initial hessian          ...  (Almloef) done
Evaluating the coordinates              ...  done
Calculating the B-matrix                .... done
Calculating the G-matrix                .... done
Diagonalizing the G-matrix              .... done
Small eigenvalue found = 2.092e-04
Small eigenvalue found = 1.001e-03
Small eigenvalue found = 2.893e-03
Small eigenvalue found = 3.907e-03
Small eigenvalue found = 4.302e-03
Small eigenvalue found = 4.788e-03
Small eigenvalue found = 7.077e-03
Small eigenvalue found = 8.288e-03
Small eigenvalue found = 1.012e-02
Small eigenvalue found = 1.086e-02
Small eigenvalue found = 1.270e-02
Small eigenvalue found = 1.398e-02
Small eigenvalue found = 1.553e-02
Small eigenvalue found = 1.670e-02
Small eigenvalue found = 1.829e-02
Small eigenvalue found = 2.007e-02
Small eigenvalue found = 2.384e-02
Small eigenvalue found = 2.698e-02
Small eigenvalue found = 2.874e-02
The first mode is                       ....  327
The number of degrees of freedom        ....  339

    -----------------------------------------------------------------
                    Redundant Internal Coordinates


    -----------------------------------------------------------------
         Definition                    Initial Value    Approx d2E/dq
    -----------------------------------------------------------------
      1. B(C   1,O   0)                  1.2299         1.007687   
      2. B(C   2,C   1)                  1.5383         0.362320   
      3. B(C   3,C   2)                  1.5507         0.346275   
      4. B(C   4,C   3)                  1.5372         0.363847   
      5. B(C   5,C   4)                  1.5326         0.369972   
      6. B(N   6,C   2)                  1.4682         0.419837   
      7. B(N   6,C   5)                  1.4762         0.407678   
      8. B(C   7,N   6)                  1.3649         0.613570   
      9. B(O   8,C   7)                  1.2365         0.983376   
     10. B(N   9,C   1)                  1.3766         0.587863   
     11. B(C  10,N   9)                  1.4645         0.425642   
     12. B(C  11,C  10)                  1.5336         0.368731   
     13. B(N  12,C  11)                  1.3621         0.619943   
     14. B(C  13,N  12)                  1.4694         0.418052   
     15. B(C  14,C  13)                  1.5515         0.345246   
     16. B(N  15,C  14)                  1.3613         0.621871   
     17. B(C  16,N  15)                  1.4494         0.449919   
     18. B(C  17,C  16)                  1.5488         0.348629   
     19. B(C  18,C  17)                  1.5522         0.344254   
     20. B(C  19,C  18)                  1.5522         0.344326   
     21. B(N  20,C  19)                  1.3503         0.647343   
     22. B(C  21,N  20)                  1.4452         0.456864   
     23. B(C  22,C  21)                  1.5401         0.360019   
     24. B(N  23,C  22)                  1.3659         0.611499   
     25. B(C  24,C   7)                  1.5449         0.353711   
     26. B(C  24,N  23)                  1.4623         0.429037   
     27. B(C  25,C  24)                  1.5266         0.378208   
     28. B(O  26,C  22)                  1.2332         0.995524   
     29. B(C  27,C  21)                  1.5452         0.353233   
     30. B(C  28,C  27)                  1.5478         0.349941   
     31. B(C  29,C  28)                  1.5395         0.360735   
     32. B(C  30,C  28)                  1.5380         0.362778   
     33. B(O  31,C  19)                  1.2439         0.957267   
     34. B(C  32,C  18)                  1.5351         0.366668   
     35. B(C  33,C  32)                  1.5132         0.397400   
     36. B(C  34,C  33)                  1.5268         0.377961   
     37. B(C  35,C  34)                  1.5320         0.370821   
     38. B(C  36,C  35)                  1.5317         0.371208   
     39. B(C  37,C  36)                  1.5327         0.369834   
     40. B(C  38,C  37)                  1.5329         0.369628   
     41. B(C  39,C  38)                  1.5330         0.369508   
     42. B(C  40,C  39)                  1.5341         0.367986   
     43. B(C  41,C  40)                  1.5317         0.371266   
     44. B(O  42,C  32)                  1.2246         1.027494   
     45. B(O  43,C  17)                  1.4418         0.462606   
     46. B(O  44,C  14)                  1.2359         0.985503   
     47. B(C  45,C  13)                  1.5481         0.349602   
     48. B(C  46,C  45)                  1.5299         0.373746   
     49. B(O  47,C  11)                  1.2433         0.959065   
     50. B(C  48,C  10)                  1.5516         0.345025   
     51. B(C  49,C  48)                  1.5306         0.372694   
     52. B(C  50,C  48)                  1.5354         0.366252   
     53. B(H  51,C   2)                  1.1077         0.337483   
     54. B(H  52,C   3)                  1.1096         0.335070   
     55. B(H  53,C   3)                  1.1072         0.338044   
     56. B(H  54,C   4)                  1.1093         0.335505   
     57. B(H  55,C   4)                  1.1070         0.338315   
     58. B(H  56,C   5)                  1.1068         0.338531   
     59. B(H  57,C   5)                  1.1148         0.328716   
     60. B(H  58,N   9)                  1.0310         0.400599   
     61. B(H  58,O  31)                  2.0036         0.011244   
     62. B(H  59,C  10)                  1.1141         0.329575   
     63. B(H  60,N  12)                  1.0233         0.412016   
     64. B(H  61,C  13)                  1.1080         0.337005   
     65. B(H  62,N  15)                  1.0405         0.386913   
     66. B(H  63,C  16)                  1.1042         0.341774   
     67. B(H  64,C  16)                  1.1090         0.335858   
     68. B(H  65,C  17)                  1.1129         0.331092   
     69. B(H  66,C  18)                  1.1148         0.328734   
     70. B(H  67,N  20)                  1.0327         0.398050   
     71. B(H  68,C  21)                  1.1136         0.330215   
     72. B(H  69,H  60)                  3.2311         0.000026   
     73. B(H  69,N  23)                  1.0236         0.411564   
     74. B(H  70,C  24)                  1.1059         0.339608   
     75. B(H  71,C  25)                  1.1071         0.338156   
     76. B(H  72,C  25)                  1.1081         0.336898   
     77. B(H  73,C  25)                  1.1078         0.337258   
     78. B(H  74,C  27)                  1.1106         0.333849   
     79. B(H  75,C  27)                  1.1106         0.333796   
     80. B(H  76,C  28)                  1.1138         0.329915   
     81. B(H  77,C  29)                  1.1094         0.335274   
     82. B(H  78,C  29)                  1.1096         0.335140   
     83. B(H  79,H  56)                  4.5588         0.000000   
     84. B(H  79,C  29)                  1.1073         0.337893   
     85. B(H  80,O  44)                  4.1227         0.000005   
     86. B(H  80,C  30)                  1.1100         0.334574   
     87. B(H  81,C  30)                  1.1092         0.335535   
     88. B(H  82,C  30)                  1.1095         0.335215   
     89. B(H  83,C  33)                  1.1126         0.331462   
     90. B(H  84,H  54)                  2.0870         0.001769   
     91. B(H  84,C  33)                  1.1151         0.328416   
     92. B(H  85,C  34)                  1.1084         0.336550   
     93. B(H  86,C  34)                  1.1121         0.332002   
     94. B(H  87,C  35)                  1.1142         0.329471   
     95. B(H  88,C  35)                  1.1132         0.330638   
     96. B(H  89,C  36)                  1.1137         0.330086   
     97. B(H  90,C  36)                  1.1138         0.329997   
     98. B(H  91,C  37)                  1.1142         0.329519   
     99. B(H  92,C  37)                  1.1142         0.329454   
    100. B(H  93,C  38)                  1.1139         0.329791   
    101. B(H  94,C  38)                  1.1140         0.329710   
    102. B(H  95,C  39)                  1.1143         0.329304   
    103. B(H  96,C  39)                  1.1143         0.329364   
    104. B(H  97,C  40)                  1.1133         0.330597   
    105. B(H  98,C  40)                  1.1133         0.330518   
    106. B(H  99,C  41)                  1.1091         0.335700   
    107. B(H 100,C  41)                  1.1106         0.333900   
    108. B(H 101,C  41)                  1.1106         0.333846   
    109. B(H 102,O  43)                  0.9768         0.488795   
    110. B(H 103,C  45)                  1.1084         0.336514   
    111. B(H 104,C  45)                  1.1112         0.333133   
    112. B(H 105,C  46)                  1.1083         0.336700   
    113. B(H 106,C  46)                  1.1080         0.337115   
    114. B(H 107,C  46)                  1.1098         0.334892   
    115. B(H 108,C  48)                  1.1112         0.333143   
    116. B(H 109,C  49)                  1.1082         0.336819   
    117. B(H 110,H  85)                  2.3966         0.000567   
    118. B(H 110,C  49)                  1.1068         0.338523   
    119. B(H 111,C  49)                  1.1091         0.335746   
    120. B(H 112,C  50)                  1.1102         0.334400   
    121. B(H 113,C  50)                  1.1094         0.335345   
    122. B(H 114,C  50)                  1.1061         0.339449   
    123. A(O   0,C   1,N   9)          122.4577         0.463314   
    124. A(C   2,C   1,N   9)          117.5001         0.388418   
    125. A(O   0,C   1,C   2)          119.7296         0.427261   
    126. A(C   1,C   2,H  51)          104.0550         0.319289   
    127. A(N   6,C   2,H  51)          110.4292         0.325139   
    128. A(C   1,C   2,N   6)          115.6792         0.366452   
    129. A(C   1,C   2,C   3)          111.1419         0.356819   
    130. A(C   3,C   2,H  51)          112.5466         0.316940   
    131. A(C   3,C   2,N   6)          103.2673         0.363622   
    132. A(C   4,C   3,H  53)          113.7514         0.319595   
    133. A(C   4,C   3,H  52)          110.4224         0.319134   
    134. A(C   2,C   3,C   4)          103.8641         0.357074   
    135. A(C   2,C   3,H  53)          112.0568         0.317026   
    136. A(C   2,C   3,H  52)          109.2979         0.316570   
    137. A(H  52,C   3,H  53)          107.4095         0.284754   
    138. A(H  54,C   4,H  55)          107.4443         0.284847   
    139. A(C   3,C   4,H  55)          113.4776         0.319637   
    140. A(C   3,C   4,C   5)          103.4670         0.361120   
    141. A(C   3,C   4,H  54)          110.3772         0.319202   
    142. A(C   5,C   4,H  55)          112.7684         0.320510   
    143. A(C   5,C   4,H  54)          109.2636         0.320073   
    144. A(H  56,C   5,H  57)          108.4803         0.283971   
    145. A(C   4,C   5,N   6)          102.4344         0.365919   
    146. A(C   4,C   5,H  56)          113.1814         0.320543   
    147. A(N   6,C   5,H  57)          110.4671         0.322180   
    148. A(N   6,C   5,H  56)          111.3368         0.323738   
    149. A(C   4,C   5,H  57)          110.8697         0.319007   
    150. A(C   5,N   6,C   7)          128.1792         0.396957   
    151. A(C   2,N   6,C   7)          118.3580         0.399012   
    152. A(C   2,N   6,C   5)          113.1003         0.371614   
    153. A(O   8,C   7,C  24)          120.1616         0.423570   
    154. A(N   6,C   7,O   8)          121.9508         0.464874   
    155. A(N   6,C   7,C  24)          117.6880         0.389691   
    156. A(C   1,N   9,C  10)          117.3979         0.396980   
    157. A(C  10,N   9,H  58)          118.2991         0.332377   
    158. A(C   1,N   9,H  58)          121.3661         0.350830   
    159. A(C  48,C  10,H  59)          106.1955         0.315535   
    160. A(C  11,C  10,H  59)          106.6577         0.318968   
    161. A(N   9,C  10,C  11)          110.6961         0.368423   
    162. A(N   9,C  10,C  48)          112.2389         0.364252   
    163. A(N   9,C  10,H  59)          105.5148         0.324607   
    164. A(C  11,C  10,C  48)          114.8326         0.357664   
    165. A(N  12,C  11,O  47)          122.6087         0.463626   
    166. A(C  10,C  11,O  47)          122.2522         0.424826   
    167. A(C  10,C  11,N  12)          115.0982         0.393246   
    168. A(C  13,N  12,H  60)          118.3891         0.332935   
    169. A(C  11,N  12,C  13)          125.7876         0.399439   
    170. A(C  11,N  12,H  60)          115.7201         0.355689   
    171. A(C  14,C  13,C  45)          110.9908         0.354483   
    172. A(N  12,C  13,H  61)          106.0599         0.324836   
    173. A(C  14,C  13,H  61)          103.4689         0.316714   
    174. A(N  12,C  13,C  14)          115.5624         0.363173   
    175. A(C  45,C  13,H  61)          108.1128         0.317361   
    176. A(N  12,C  13,C  45)          111.9115         0.363952   
    177. A(C  13,C  14,N  15)          115.8894         0.388958   
    178. A(N  15,C  14,O  44)          123.9265         0.466203   
    179. A(C  13,C  14,O  44)          120.1438         0.421904   
    180. A(C  14,N  15,H  62)          116.8590         0.352106   
    181. A(C  16,N  15,H  62)          119.6203         0.333521   
    182. A(C  14,N  15,C  16)          122.4762         0.404866   
    183. A(H  63,C  16,H  64)          109.7191         0.285346   
    184. A(C  17,C  16,H  64)          106.2663         0.317041   
    185. A(N  15,C  16,H  63)          107.1897         0.329554   
    186. A(C  17,C  16,H  63)          107.5734         0.317944   
    187. A(N  15,C  16,C  17)          116.9508         0.368386   
    188. A(N  15,C  16,H  64)          109.0250         0.328605   
    189. A(O  43,C  17,H  65)          108.5716         0.329339   
    190. A(C  18,C  17,H  65)          106.7878         0.315656   
    191. A(C  16,C  17,H  65)          106.4127         0.316304   
    192. A(C  16,C  17,C  18)          115.7503         0.354143   
    193. A(C  18,C  17,O  43)          111.0158         0.369347   
    194. A(C  16,C  17,O  43)          108.0104         0.370150   
    195. A(C  19,C  18,H  66)          103.7603         0.315300   
    196. A(C  17,C  18,H  66)          106.7579         0.315289   
    197. A(C  17,C  18,C  32)          111.7029         0.357187   
    198. A(C  17,C  18,C  19)          115.4053         0.353398   
    199. A(C  19,C  18,C  32)          112.0435         0.357200   
    200. A(C  32,C  18,H  66)          106.2781         0.318543   
    201. A(C  18,C  19,N  20)          113.1985         0.391513   
    202. A(N  20,C  19,O  31)          123.6709         0.467150   
    203. A(C  18,C  19,O  31)          123.0011         0.419521   
    204. A(C  19,N  20,H  67)          116.7734         0.356218   
    205. A(C  19,N  20,C  21)          122.4463         0.408856   
    206. A(C  21,N  20,H  67)          119.9027         0.335951   
    207. A(C  27,C  21,H  68)          106.9172         0.316844   
    208. A(C  22,C  21,H  68)          106.0862         0.317827   
    209. A(N  20,C  21,H  68)          108.1377         0.328517   
    210. A(N  20,C  21,C  22)          109.2995         0.371403   
    211. A(C  22,C  21,C  27)          114.4319         0.357640   
    212. A(N  20,C  21,C  27)          111.6167         0.370190   
    213. A(C  21,C  22,N  23)          113.1027         0.390666   
    214. A(C  21,C  22,O  26)          123.1742         0.425846   
    215. A(N  23,C  22,O  26)          123.7116         0.465632   
    216. A(C  22,N  23,C  24)          122.4247         0.400299   
    217. A(C  24,N  23,H  69)          115.3792         0.334310   
    218. A(C  22,N  23,H  69)          118.3222         0.354796   
    219. A(C  25,C  24,H  70)          110.9799         0.321868   
    220. A(N  23,C  24,H  70)          105.4196         0.326638   
    221. A(C   7,C  24,H  70)          112.1438         0.318365   
    222. A(N  23,C  24,C  25)          112.0024         0.370538   
    223. A(C   7,C  24,N  23)          104.8012         0.366303   
    224. A(C   7,C  24,C  25)          111.2120         0.360737   
    225. A(H  71,C  25,H  73)          109.7261         0.285058   
    226. A(C  24,C  25,H  73)          109.9737         0.321502   
    227. A(H  71,C  25,H  72)          108.8009         0.285010   
    228. A(C  24,C  25,H  72)          110.4924         0.321446   
    229. A(C  24,C  25,H  71)          110.2653         0.321642   
    230. A(H  72,C  25,H  73)          107.5303         0.284892   
    231. A(C  28,C  27,H  75)          108.1828         0.316917   
    232. A(C  21,C  27,C  28)          119.2195         0.355919   
    233. A(H  74,C  27,H  75)          105.7769         0.284034   
    234. A(C  21,C  27,H  75)          107.1109         0.317401   
    235. A(C  28,C  27,H  74)          110.4861         0.316925   
    236. A(C  21,C  27,H  74)          105.2560         0.317409   
    237. A(C  29,C  28,C  30)          110.8003         0.359388   
    238. A(C  27,C  28,C  30)          113.6767         0.357535   
    239. A(C  27,C  28,C  29)          113.5039         0.357192   
    240. A(C  30,C  28,H  76)          107.2413         0.318176   
    241. A(C  29,C  28,H  76)          106.8163         0.317883   
    242. A(C  27,C  28,H  76)          104.1426         0.316314   
    243. A(C  28,C  29,H  79)          111.6955         0.319124   
    244. A(H  78,C  29,H  79)          107.1711         0.284744   
    245. A(H  77,C  29,H  79)          108.2279         0.284761   
    246. A(H  77,C  29,H  78)          107.6372         0.284399   
    247. A(C  28,C  29,H  78)          110.3757         0.318698   
    248. A(C  28,C  29,H  77)          111.5425         0.318719   
    249. A(H  81,C  30,H  82)          107.8312         0.284444   
    250. A(H  80,C  30,H  82)          107.4689         0.284317   
    251. A(C  28,C  30,H  82)          110.4747         0.319004   
    252. A(H  80,C  30,H  81)          108.8138         0.284359   
    253. A(C  28,C  30,H  81)          110.6042         0.319053   
    254. A(C  28,C  30,H  80)          111.5191         0.318904   
    255. A(C  33,C  32,O  42)          123.0745         0.435936   
    256. A(C  18,C  32,O  42)          120.8356         0.429673   
    257. A(C  18,C  32,C  33)          116.0898         0.366045   
    258. A(C  32,C  33,C  34)          115.2825         0.367954   
    259. A(C  34,C  33,H  84)          111.5589         0.320074   
    260. A(H  83,C  33,H  84)          104.0605         0.283002   
    261. A(C  32,C  33,H  84)          103.6044         0.322712   
    262. A(C  34,C  33,H  83)          112.2859         0.320557   
    263. A(C  32,C  33,H  83)          109.1360         0.323201   
    264. A(C  33,C  34,C  35)          112.7684         0.363617   
    265. A(H  85,C  34,H  86)          105.4156         0.284152   
    266. A(C  35,C  34,H  86)          110.1539         0.319645   
    267. A(C  33,C  34,H  86)          109.6731         0.320643   
    268. A(C  35,C  34,H  85)          109.9742         0.320356   
    269. A(C  33,C  34,H  85)          108.5825         0.321357   
    270. A(C  34,C  35,C  36)          113.7662         0.362499   
    271. A(H  87,C  35,H  88)          105.5253         0.283034   
    272. A(C  36,C  35,H  88)          108.9497         0.319484   
    273. A(C  34,C  35,H  88)          108.7350         0.319430   
    274. A(C  36,C  35,H  87)          109.5640         0.319300   
    275. A(C  34,C  35,H  87)          109.9641         0.319246   
    276. A(C  35,C  36,C  37)          113.5889         0.362334   
    277. A(H  89,C  36,H  90)          105.5316         0.283031   
    278. A(C  37,C  36,H  90)          109.5310         0.319190   
    279. A(C  35,C  36,H  90)          109.5655         0.319383   
    280. A(C  37,C  36,H  89)          109.3284         0.319204   
    281. A(C  35,C  36,H  89)          108.9801         0.319397   
    282. A(C  36,C  37,C  38)          113.9148         0.362070   
    283. A(H  91,C  37,H  92)          105.4853         0.282883   
    284. A(C  38,C  37,H  92)          109.2683         0.319075   
    285. A(C  36,C  37,H  92)          109.1194         0.319104   
    286. A(C  38,C  37,H  91)          109.3449         0.319085   
    287. A(C  36,C  37,H  91)          109.3666         0.319114   
    288. A(C  37,C  38,C  39)          113.8347         0.362016   
    289. A(H  93,C  38,H  94)          105.4836         0.282953   
    290. A(C  39,C  38,H  94)          109.3410         0.319099   
    291. A(C  37,C  38,H  94)          109.3051         0.319115   
    292. A(C  39,C  38,H  93)          109.3119         0.319111   
    293. A(C  37,C  38,H  93)          109.2290         0.319128   
    294. A(C  38,C  39,C  40)          113.8931         0.361741   
    295. A(H  95,C  39,H  96)          105.4637         0.282842   
    296. A(C  40,C  39,H  96)          109.2694         0.318829   
    297. A(C  38,C  39,H  96)          109.2730         0.319044   
    298. A(C  40,C  39,H  95)          109.2836         0.318820   
    299. A(C  38,C  39,H  95)          109.3166         0.319034   
    300. A(C  39,C  40,C  41)          113.5027         0.362034   
    301. A(H  97,C  40,H  98)          105.5063         0.283168   
    302. A(C  41,C  40,H  98)          109.6844         0.319474   
    303. A(C  39,C  40,H  98)          109.0894         0.319011   
    304. A(C  41,C  40,H  97)          109.6750         0.319486   
    305. A(C  39,C  40,H  97)          109.0710         0.319024   
    306. A(H 100,C  41,H 101)          107.1937         0.284047   
    307. A(H  99,C  41,H 101)          107.5200         0.284285   
    308. A(C  40,C  41,H 101)          111.2931         0.319997   
    309. A(H  99,C  41,H 100)          107.5142         0.284292   
    310. A(C  40,C  41,H 100)          111.2801         0.320005   
    311. A(C  40,C  41,H  99)          111.8101         0.320287   
    312. A(C  17,O  43,H 102)          107.8541         0.348433   
    313. A(C  13,C  45,C  46)          113.5517         0.359292   
    314. A(C  46,C  45,H 104)          110.3372         0.320233   
    315. A(C  13,C  45,H 104)          106.9490         0.316764   
    316. A(C  46,C  45,H 103)          110.8506         0.320762   
    317. A(C  13,C  45,H 103)          108.3537         0.317286   
    318. A(H 103,C  45,H 104)          106.4803         0.284297   
    319. A(H 106,C  46,H 107)          106.9445         0.284609   
    320. A(H 105,C  46,H 107)          107.8629         0.284554   
    321. A(C  45,C  46,H 107)          111.6028         0.320509   
    322. A(H 105,C  46,H 106)          107.8745         0.284847   
    323. A(C  45,C  46,H 106)          111.8939         0.320856   
    324. A(C  45,C  46,H 105)          110.4681         0.320791   
    325. A(C  50,C  48,H 108)          106.8694         0.319177   
    326. A(C  49,C  48,H 108)          108.3600         0.320087   
    327. A(C  10,C  48,H 108)          103.2146         0.316088   
    328. A(C  49,C  48,C  50)          112.6792         0.361979   
    329. A(C  10,C  48,C  50)          112.3562         0.357254   
    330. A(C  10,C  48,C  49)          112.6657         0.358315   
    331. A(H 110,C  49,H 111)          108.2604         0.284907   
    332. A(H 109,C  49,H 111)          107.2303         0.284683   
    333. A(C  48,C  49,H 111)          110.6591         0.320495   
    334. A(H 109,C  49,H 110)          108.1428         0.285048   
    335. A(C  48,C  49,H 110)          111.4928         0.320927   
    336. A(C  48,C  49,H 109)          110.9026         0.320662   
    337. A(H 113,C  50,H 114)          108.4920         0.284975   
    338. A(H 112,C  50,H 114)          108.3756         0.284850   
    339. A(C  48,C  50,H 114)          111.1684         0.320156   
    340. A(H 112,C  50,H 113)          107.3942         0.284311   
    341. A(C  48,C  50,H 113)          110.2058         0.319521   
    342. A(C  48,C  50,H 112)          111.0837         0.319373   
    343. D(H  51,C   2,C   1,N   9)   -158.5873         0.009861   
    344. D(C   3,C   2,C   1,N   9)     80.0398         0.009861   
    345. D(N   6,C   2,C   1,N   9)    -37.2801         0.009861   
    346. D(N   6,C   2,C   1,O   0)    148.9818         0.009861   
    347. D(C   3,C   2,C   1,O   0)    -93.6983         0.009861   
    348. D(H  51,C   2,C   1,O   0)     27.6746         0.009861   
    349. D(C   4,C   3,C   2,N   6)     25.3037         0.009678   
    350. D(H  53,C   3,C   2,H  51)    -92.4019         0.009678   
    351. D(H  53,C   3,C   2,C   1)     23.8601         0.009678   
    352. D(C   4,C   3,C   2,H  51)    144.3943         0.009678   
    353. D(H  53,C   3,C   2,N   6)    148.5075         0.009678   
    354. D(H  52,C   3,C   2,H  51)     26.5398         0.009678   
    355. D(C   4,C   3,C   2,C   1)    -99.3437         0.009678   
    356. D(H  52,C   3,C   2,C   1)    142.8019         0.009678   
    357. D(H  52,C   3,C   2,N   6)    -92.5507         0.009678   
    358. D(H  55,C   4,C   3,H  53)     78.4082         0.010606   
    359. D(H  55,C   4,C   3,H  52)    -42.4327         0.010606   
    360. D(H  54,C   4,C   3,H  52)   -163.0958         0.010606   
    361. D(H  55,C   4,C   3,C   2)   -159.5056         0.010606   
    362. D(H  54,C   4,C   3,H  53)    -42.2549         0.010606   
    363. D(C   5,C   4,C   3,C   2)    -36.9662         0.010606   
    364. D(H  54,C   4,C   3,C   2)     79.8313         0.010606   
    365. D(C   5,C   4,C   3,H  53)   -159.0524         0.010606   
    366. D(C   5,C   4,C   3,H  52)     80.1067         0.010606   
    367. D(N   6,C   5,C   4,C   3)     33.7150         0.010942   
    368. D(H  57,C   5,C   4,C   3)    -84.1425         0.010942   
    369. D(H  56,C   5,C   4,H  55)    -83.2930         0.010942   
    370. D(H  56,C   5,C   4,C   3)    153.6972         0.010942   
    371. D(H  57,C   5,C   4,H  54)    158.2785         0.010942   
    372. D(H  56,C   5,C   4,H  54)     36.1183         0.010942   
    373. D(H  57,C   5,C   4,H  55)     38.8672         0.010942   
    374. D(N   6,C   5,C   4,H  54)    -83.8640         0.010942   
    375. D(N   6,C   5,C   4,H  55)    156.7247         0.010942   
    376. D(C   5,N   6,C   2,C   3)     -4.1240         0.015030   
    377. D(C   7,N   6,C   5,H  57)    -73.4391         0.014181   
    378. D(C   7,N   6,C   5,H  56)     47.1599         0.014181   
    379. D(C   7,N   6,C   5,C   4)    168.4178         0.014181   
    380. D(C   2,N   6,C   5,H  57)     99.4521         0.014181   
    381. D(C   2,N   6,C   5,H  56)   -139.9489         0.014181   
    382. D(C   7,N   6,C   2,H  51)     48.9841         0.015030   
    383. D(C   2,N   6,C   5,C   4)    -18.6910         0.014181   
    384. D(C   7,N   6,C   2,C   3)    169.5292         0.015030   
    385. D(C   5,N   6,C   2,C   1)    117.5140         0.015030   
    386. D(C   7,N   6,C   2,C   1)    -68.8329         0.015030   
    387. D(C   5,N   6,C   2,H  51)   -124.6691         0.015030   
    388. D(C  24,C   7,N   6,C   5)     -6.3263         0.030435   
    389. D(C  24,C   7,N   6,C   2)   -178.8940         0.030435   
    390. D(O   8,C   7,N   6,C   5)    178.8038         0.030435   
    391. D(O   8,C   7,N   6,C   2)      6.2360         0.030435   
    392. D(H  58,N   9,C   1,O   0)    173.7508         0.027767   
    393. D(C  10,N   9,C   1,C   2)   -160.0772         0.027767   
    394. D(H  58,N   9,C   1,C   2)      0.1960         0.027767   
    395. D(C  10,N   9,C   1,O   0)     13.4777         0.027767   
    396. D(H  59,C  10,N   9,C   1)    -44.6584         0.015447   
    397. D(C  48,C  10,N   9,H  58)    -90.3229         0.015447   
    398. D(C  48,C  10,N   9,C   1)     70.5704         0.015447   
    399. D(C  11,C  10,N   9,C   1)   -159.6757         0.015447   
    400. D(H  59,C  10,N   9,H  58)    154.4484         0.015447   
    401. D(C  11,C  10,N   9,H  58)     39.4311         0.015447   
    402. D(O  47,C  11,C  10,N   9)   -139.2588         0.010187   
    403. D(N  12,C  11,C  10,H  59)    -71.2884         0.010187   
    404. D(N  12,C  11,C  10,C  48)    171.3725         0.010187   
    405. D(N  12,C  11,C  10,N   9)     43.0110         0.010187   
    406. D(O  47,C  11,C  10,H  59)    106.4418         0.010187   
    407. D(O  47,C  11,C  10,C  48)    -10.8973         0.010187   
    408. D(H  60,N  12,C  11,O  47)    175.0070         0.031121   
    409. D(H  60,N  12,C  11,C  10)     -7.2717         0.031121   
    410. D(C  13,N  12,C  11,O  47)     -8.7650         0.031121   
    411. D(C  13,N  12,C  11,C  10)    168.9562         0.031121   
    412. D(H  61,C  13,N  12,C  11)   -173.9641         0.014903   
    413. D(H  61,C  13,N  12,H  60)      2.1729         0.014903   
    414. D(C  45,C  13,N  12,H  60)    119.8506         0.014903   
    415. D(C  45,C  13,N  12,C  11)    -56.2864         0.014903   
    416. D(C  14,C  13,N  12,C  11)     72.0588         0.014903   
    417. D(C  14,C  13,N  12,H  60)   -111.8042         0.014903   
    418. D(O  44,C  14,C  13,C  45)    -93.5550         0.009030   
    419. D(O  44,C  14,C  13,N  12)    137.6461         0.009030   
    420. D(N  15,C  14,C  13,H  61)   -160.0350         0.009030   
    421. D(N  15,C  14,C  13,C  45)     84.2244         0.009030   
    422. D(O  44,C  14,C  13,H  61)     22.1855         0.009030   
    423. D(N  15,C  14,C  13,N  12)    -44.5744         0.009030   
    424. D(H  62,N  15,C  14,O  44)    172.3884         0.031330   
    425. D(H  62,N  15,C  14,C  13)     -5.2973         0.031330   
    426. D(C  16,N  15,C  14,O  44)      4.1362         0.031330   
    427. D(C  16,N  15,C  14,C  13)   -173.5494         0.031330   
    428. D(H  64,C  16,N  15,H  62)   -140.0860         0.017268   
    429. D(H  64,C  16,N  15,C  14)     27.8535         0.017268   
    430. D(H  63,C  16,N  15,H  62)    -21.3834         0.017268   
    431. D(H  63,C  16,N  15,C  14)    146.5560         0.017268   
    432. D(C  17,C  16,N  15,C  14)    -92.6575         0.017268   
    433. D(C  17,C  16,N  15,H  62)     99.4030         0.017268   
    434. D(H  65,C  17,C  16,H  64)     92.6791         0.009799   
    435. D(H  65,C  17,C  16,H  63)    -24.7786         0.009799   
    436. D(H  65,C  17,C  16,N  15)   -145.3627         0.009799   
    437. D(O  43,C  17,C  16,H  64)    -23.7374         0.009799   
    438. D(O  43,C  17,C  16,H  63)   -141.1951         0.009799   
    439. D(O  43,C  17,C  16,N  15)     98.2208         0.009799   
    440. D(C  18,C  17,C  16,H  64)   -148.8722         0.009799   
    441. D(C  18,C  17,C  16,H  63)     93.6701         0.009799   
    442. D(C  18,C  17,C  16,N  15)    -26.9140         0.009799   
    443. D(H  66,C  18,C  17,H  65)    -66.8735         0.009575   
    444. D(H  66,C  18,C  17,O  43)     51.3085         0.009575   
    445. D(H  66,C  18,C  17,C  16)    174.8850         0.009575   
    446. D(C  32,C  18,C  17,O  43)    167.0882         0.009575   
    447. D(C  32,C  18,C  17,C  16)    -69.3353         0.009575   
    448. D(C  32,C  18,C  17,H  65)     48.9062         0.009575   
    449. D(C  19,C  18,C  17,H  65)    178.4169         0.009575   
    450. D(C  19,C  18,C  17,O  43)    -63.4011         0.009575   
    451. D(C  19,C  18,C  17,C  16)     60.1754         0.009575   
    452. D(O  31,C  19,C  18,H  66)    101.4715         0.008986   
    453. D(O  31,C  19,C  18,C  32)    -12.7648         0.008986   
    454. D(O  31,C  19,C  18,C  17)   -142.1092         0.008986   
    455. D(N  20,C  19,C  18,H  66)    -74.5254         0.008986   
    456. D(N  20,C  19,C  18,C  17)     41.8939         0.008986   
    457. D(N  20,C  19,C  18,C  32)    171.2383         0.008986   
    458. D(H  67,N  20,C  19,O  31)    172.4801         0.034175   
    459. D(H  67,N  20,C  19,C  18)    -11.5540         0.034175   
    460. D(C  21,N  20,C  19,O  31)      3.2287         0.034175   
    461. D(C  21,N  20,C  19,C  18)    179.1947         0.034175   
    462. D(H  68,C  21,N  20,H  67)   -112.7819         0.017813   
    463. D(H  68,C  21,N  20,C  19)     56.1440         0.017813   
    464. D(C  27,C  21,N  20,H  67)      4.5522         0.017813   
    465. D(C  27,C  21,N  20,C  19)    173.4781         0.017813   
    466. D(C  22,C  21,N  20,H  67)    132.1531         0.017813   
    467. D(C  22,C  21,N  20,C  19)    -58.9210         0.017813   
    468. D(N  23,C  22,C  21,C  27)    -80.6771         0.009746   
    469. D(N  23,C  22,C  21,N  20)    153.3214         0.009746   
    470. D(O  26,C  22,C  21,H  68)   -144.2496         0.009746   
    471. D(O  26,C  22,C  21,C  27)     98.1282         0.009746   
    472. D(O  26,C  22,C  21,N  20)    -27.8734         0.009746   
    473. D(N  23,C  22,C  21,H  68)     36.9452         0.009746   
    474. D(H  69,N  23,C  22,O  26)    171.3722         0.030215   
    475. D(H  69,N  23,C  22,C  21)     -9.8300         0.030215   
    476. D(C  24,N  23,C  22,O  26)     14.5674         0.030215   
    477. D(C  24,N  23,C  22,C  21)   -166.6348         0.030215   
    478. D(H  70,C  24,N  23,H  69)   -173.4123         0.015694   
    479. D(H  70,C  24,N  23,C  22)    -15.9786         0.015694   
    480. D(C  25,C  24,N  23,H  69)     65.7882         0.015694   
    481. D(C  25,C  24,N  23,C  22)   -136.7781         0.015694   
    482. D(C   7,C  24,N  23,H  69)    -54.9027         0.015694   
    483. D(C   7,C  24,N  23,C  22)    102.5309         0.015694   
    484. D(H  70,C  24,C   7,O   8)   -166.0889         0.009436   
    485. D(H  70,C  24,C   7,N   6)     18.9454         0.009436   
    486. D(C  25,C  24,C   7,O   8)    -41.1579         0.009436   
    487. D(C  25,C  24,C   7,N   6)    143.8763         0.009436   
    488. D(N  23,C  24,C   7,O   8)     80.0550         0.009436   
    489. D(N  23,C  24,C   7,N   6)    -94.9107         0.009436   
    490. D(H  73,C  25,C  24,H  70)    177.0155         0.011406   
    491. D(H  73,C  25,C  24,N  23)    -65.4630         0.011406   
    492. D(H  73,C  25,C  24,C   7)     51.4339         0.011406   
    493. D(H  72,C  25,C  24,H  70)     58.4624         0.011406   
    494. D(H  72,C  25,C  24,N  23)    175.9839         0.011406   
    495. D(H  72,C  25,C  24,C   7)    -67.1192         0.011406   
    496. D(H  71,C  25,C  24,H  70)    -61.8521         0.011406   
    497. D(H  71,C  25,C  24,N  23)     55.6694         0.011406   
    498. D(H  71,C  25,C  24,C   7)    172.5663         0.011406   
    499. D(H  75,C  27,C  21,H  68)    -44.7658         0.010038   
    500. D(H  75,C  27,C  21,C  22)     72.3812         0.010038   
    501. D(H  75,C  27,C  21,N  20)   -162.8341         0.010038   
    502. D(H  74,C  27,C  21,H  68)     67.4959         0.010038   
    503. D(H  74,C  27,C  21,C  22)   -175.3570         0.010038   
    504. D(H  74,C  27,C  21,N  20)    -50.5723         0.010038   
    505. D(C  28,C  27,C  21,H  68)   -167.8788         0.010038   
    506. D(C  28,C  27,C  21,C  22)    -50.7318         0.010038   
    507. D(C  28,C  27,C  21,N  20)     74.0529         0.010038   
    508. D(H  76,C  28,C  27,H  75)     68.2872         0.009867   
    509. D(H  76,C  28,C  27,H  74)    -47.0672         0.009867   
    510. D(H  76,C  28,C  27,C  21)   -169.1280         0.009867   
    511. D(C  30,C  28,C  27,H  75)   -175.3380         0.009867   
    512. D(C  30,C  28,C  27,H  74)     69.3076         0.009867   
    513. D(C  30,C  28,C  27,C  21)    -52.7532         0.009867   
    514. D(C  29,C  28,C  27,H  75)    -47.4931         0.009867   
    515. D(C  29,C  28,C  27,H  74)   -162.8475         0.009867   
    516. D(C  29,C  28,C  27,C  21)     75.0917         0.009867   
    517. D(H  79,C  29,C  28,C  30)     56.3322         0.010437   
    518. D(H  79,C  29,C  28,C  27)    -72.9872         0.010437   
    519. D(H  78,C  29,C  28,H  76)     53.6970         0.010437   
    520. D(H  78,C  29,C  28,C  30)    -62.7925         0.010437   
    521. D(H  78,C  29,C  28,C  27)    167.8881         0.010437   
    522. D(H  77,C  29,C  28,H  76)    -65.9139         0.010437   
    523. D(H  77,C  29,C  28,C  30)    177.5966         0.010437   
    524. D(H  79,C  29,C  28,H  76)    172.8216         0.010437   
    525. D(H  77,C  29,C  28,C  27)     48.2772         0.010437   
    526. D(H  82,C  30,C  28,H  76)    -59.4937         0.010547   
    527. D(H  82,C  30,C  28,C  29)     56.7331         0.010547   
    528. D(H  82,C  30,C  28,C  27)   -174.0398         0.010547   
    529. D(H  81,C  30,C  28,H  76)   -178.8064         0.010547   
    530. D(H  81,C  30,C  28,C  29)    -62.5796         0.010547   
    531. D(H  81,C  30,C  28,C  27)     66.6475         0.010547   
    532. D(H  80,C  30,C  28,H  76)     59.9562         0.010547   
    533. D(H  80,C  30,C  28,C  29)    176.1830         0.010547   
    534. D(H  80,C  30,C  28,C  27)    -54.5899         0.010547   
    535. D(O  42,C  32,C  18,H  66)    138.4478         0.010081   
    536. D(O  42,C  32,C  18,C  19)   -108.8729         0.010081   
    537. D(O  42,C  32,C  18,C  17)     22.3754         0.010081   
    538. D(C  33,C  32,C  18,H  66)    -41.5676         0.010081   
    539. D(C  33,C  32,C  18,C  19)     71.1118         0.010081   
    540. D(C  33,C  32,C  18,C  17)   -157.6399         0.010081   
    541. D(H  84,C  33,C  32,O  42)    112.5314         0.011727   
    542. D(H  84,C  33,C  32,C  18)    -67.4529         0.011727   
    543. D(H  83,C  33,C  32,O  42)   -137.0699         0.011727   
    544. D(H  83,C  33,C  32,C  18)     42.9459         0.011727   
    545. D(C  34,C  33,C  32,O  42)     -9.6377         0.011727   
    546. D(C  34,C  33,C  32,C  18)    170.3780         0.011727   
    547. D(H  86,C  34,C  33,H  84)    167.8553         0.011392   
    548. D(H  86,C  34,C  33,H  83)     51.4807         0.011392   
    549. D(H  86,C  34,C  33,C  32)    -74.3493         0.011392   
    550. D(H  85,C  34,C  33,H  84)    -77.4350         0.011392   
    551. D(H  85,C  34,C  33,H  83)    166.1905         0.011392   
    552. D(H  85,C  34,C  33,C  32)     40.3604         0.011392   
    553. D(C  35,C  34,C  33,H  84)     44.7021         0.011392   
    554. D(C  35,C  34,C  33,H  83)    -71.6725         0.011392   
    555. D(C  35,C  34,C  33,C  32)    162.4975         0.011392   
    556. D(H  88,C  35,C  34,H  86)   -178.6315         0.010990   
    557. D(H  88,C  35,C  34,H  85)     65.6039         0.010990   
    558. D(H  88,C  35,C  34,C  33)    -55.7463         0.010990   
    559. D(H  87,C  35,C  34,H  86)    -63.5496         0.010990   
    560. D(H  87,C  35,C  34,H  85)   -179.3141         0.010990   
    561. D(H  87,C  35,C  34,C  33)     59.3356         0.010990   
    562. D(C  36,C  35,C  34,H  86)     59.7655         0.010990   
    563. D(C  36,C  35,C  34,H  85)    -55.9991         0.010990   
    564. D(C  36,C  35,C  34,C  33)   -177.3493         0.010990   
    565. D(H  90,C  36,C  35,H  87)     63.7447         0.011011   
    566. D(H  90,C  36,C  35,C  34)    -59.7882         0.011011   
    567. D(H  89,C  36,C  35,H  88)    -66.2633         0.011011   
    568. D(H  89,C  36,C  35,H  87)    178.7533         0.011011   
    569. D(H  89,C  36,C  35,C  34)     55.2203         0.011011   
    570. D(C  37,C  36,C  35,H  88)     55.8848         0.011011   
    571. D(C  37,C  36,C  35,H  87)    -59.0987         0.011011   
    572. D(H  90,C  36,C  35,H  88)    178.7282         0.011011   
    573. D(C  37,C  36,C  35,C  34)    177.3684         0.011011   
    574. D(H  92,C  37,C  36,H  90)   -179.7377         0.010935   
    575. D(H  92,C  37,C  36,H  89)     65.0794         0.010935   
    576. D(H  92,C  37,C  36,C  35)    -56.8754         0.010935   
    577. D(H  91,C  37,C  36,H  90)    -64.8162         0.010935   
    578. D(H  91,C  37,C  36,H  89)   -179.9991         0.010935   
    579. D(H  91,C  37,C  36,C  35)     58.0461         0.010935   
    580. D(C  38,C  37,C  36,H  90)     57.8652         0.010935   
    581. D(C  38,C  37,C  36,H  89)    -57.3176         0.010935   
    582. D(C  38,C  37,C  36,C  35)   -179.2725         0.010935   
    583. D(H  94,C  38,C  37,H  92)    179.8011         0.010923   
    584. D(H  94,C  38,C  37,H  91)     64.8096         0.010923   
    585. D(H  94,C  38,C  37,C  36)    -57.8837         0.010923   
    586. D(H  93,C  38,C  37,H  92)    -65.2528         0.010923   
    587. D(H  93,C  38,C  37,H  91)    179.7557         0.010923   
    588. D(H  93,C  38,C  37,C  36)     57.0624         0.010923   
    589. D(C  39,C  38,C  37,H  92)     57.2269         0.010923   
    590. D(C  39,C  38,C  37,H  91)    -57.7646         0.010923   
    591. D(C  39,C  38,C  37,C  36)    179.5421         0.010923   
    592. D(H  95,C  39,C  38,H  94)    -64.9538         0.010917   
    593. D(H  95,C  39,C  38,H  93)   -179.9653         0.010917   
    594. D(H  95,C  39,C  38,C  37)     57.6007         0.010917   
    595. D(C  40,C  39,C  38,H  94)     57.5954         0.010917   
    596. D(C  40,C  39,C  38,H  93)    -57.4161         0.010917   
    597. D(C  40,C  39,C  38,C  37)   -179.8501         0.010917   
    598. D(H  96,C  39,C  38,H  94)   -179.9066         0.010917   
    599. D(H  96,C  39,C  38,H  93)     65.0819         0.010917   
    600. D(H  96,C  39,C  38,C  37)    -57.3521         0.010917   
    601. D(H  98,C  40,C  39,H  95)     65.1354         0.010832   
    602. D(H  98,C  40,C  39,C  38)    -57.4318         0.010832   
    603. D(H  97,C  40,C  39,H  96)    -65.1620         0.010832   
    604. D(H  97,C  40,C  39,H  95)    179.9053         0.010832   
    605. D(H  97,C  40,C  39,C  38)     57.3380         0.010832   
    606. D(C  41,C  40,C  39,H  96)     57.4402         0.010832   
    607. D(C  41,C  40,C  39,H  95)    -57.4925         0.010832   
    608. D(H  98,C  40,C  39,H  96)   -179.9319         0.010832   
    609. D(C  41,C  40,C  39,C  38)    179.9402         0.010832   
    610. D(H 101,C  41,C  40,H  98)    -62.5406         0.011014   
    611. D(H 101,C  41,C  40,H  97)   -177.9738         0.011014   
    612. D(H 101,C  41,C  40,C  39)     59.7582         0.011014   
    613. D(H 100,C  41,C  40,H  98)    177.9692         0.011014   
    614. D(H 100,C  41,C  40,H  97)     62.5361         0.011014   
    615. D(H 100,C  41,C  40,C  39)    -59.7320         0.011014   
    616. D(H  99,C  41,C  40,H  98)     57.7224         0.011014   
    617. D(H  99,C  41,C  40,H  97)    -57.7107         0.011014   
    618. D(H  99,C  41,C  40,C  39)   -179.9788         0.011014   
    619. D(H 102,O  43,C  17,H  65)     50.2906         0.016861   
    620. D(H 102,O  43,C  17,C  18)    -66.8055         0.016861   
    621. D(H 102,O  43,C  17,C  16)    165.2939         0.016861   
    622. D(H 104,C  45,C  13,H  61)     65.3210         0.009849   
    623. D(H 104,C  45,C  13,C  14)    178.1499         0.009849   
    624. D(H 104,C  45,C  13,N  12)    -51.1214         0.009849   
    625. D(H 103,C  45,C  13,H  61)    179.7502         0.009849   
    626. D(H 103,C  45,C  13,C  14)    -67.4210         0.009849   
    627. D(H 103,C  45,C  13,N  12)     63.3077         0.009849   
    628. D(C  46,C  45,C  13,H  61)    -56.6290         0.009849   
    629. D(C  46,C  45,C  13,C  14)     56.1999         0.009849   
    630. D(C  46,C  45,C  13,N  12)   -173.0714         0.009849   
    631. D(H 107,C  46,C  45,H 104)    -62.0954         0.011153   
    632. D(H 107,C  46,C  45,H 103)   -179.8003         0.011153   
    633. D(H 107,C  46,C  45,C  13)     57.9517         0.011153   
    634. D(H 106,C  46,C  45,H 104)    178.1051         0.011153   
    635. D(H 106,C  46,C  45,H 103)     60.4003         0.011153   
    636. D(H 106,C  46,C  45,C  13)    -61.8477         0.011153   
    637. D(H 105,C  46,C  45,H 104)     57.9010         0.011153   
    638. D(H 105,C  46,C  45,H 103)    -59.8038         0.011153   
    639. D(H 105,C  46,C  45,C  13)    177.9482         0.011153   
    640. D(H 108,C  48,C  10,H  59)     63.1895         0.009614   
    641. D(H 108,C  48,C  10,C  11)   -179.2093         0.009614   
    642. D(H 108,C  48,C  10,N   9)    -51.6250         0.009614   
    643. D(C  50,C  48,C  10,H  59)    -51.5746         0.009614   
    644. D(C  50,C  48,C  10,C  11)     66.0266         0.009614   
    645. D(C  50,C  48,C  10,N   9)   -166.3892         0.009614   
    646. D(C  49,C  48,C  10,H  59)    179.8495         0.009614   
    647. D(C  49,C  48,C  10,C  11)    -62.5493         0.009614   
    648. D(C  49,C  48,C  10,N   9)     65.0349         0.009614   
    649. D(H 111,C  49,C  48,C  50)     59.3913         0.011094   
    650. D(H 111,C  49,C  48,C  10)   -172.2012         0.011094   
    651. D(H 110,C  49,C  48,H 108)   -179.2022         0.011094   
    652. D(H 110,C  49,C  48,C  50)    -61.1637         0.011094   
    653. D(H 110,C  49,C  48,C  10)     67.2438         0.011094   
    654. D(H 109,C  49,C  48,H 108)     60.2260         0.011094   
    655. D(H 109,C  49,C  48,C  50)    178.2645         0.011094   
    656. D(H 111,C  49,C  48,H 108)    -58.6472         0.011094   
    657. D(H 109,C  49,C  48,C  10)    -53.3281         0.011094   
    658. D(H 114,C  50,C  48,H 108)    178.7849         0.010737   
    659. D(H 114,C  50,C  48,C  49)     59.8738         0.010737   
    660. D(H 114,C  50,C  48,C  10)    -68.6950         0.010737   
    661. D(H 113,C  50,C  48,H 108)     58.4569         0.010737   
    662. D(H 113,C  50,C  48,C  49)    -60.4542         0.010737   
    663. D(H 113,C  50,C  48,C  10)    170.9770         0.010737   
    664. D(H 112,C  50,C  48,H 108)    -60.4441         0.010737   
    665. D(H 112,C  50,C  48,C  49)   -179.3553         0.010737   
    666. D(H 112,C  50,C  48,C  10)     52.0760         0.010737   
    -----------------------------------------------------------------

Number of atoms                         .... 115
Number of degrees of freedom            .... 666

         *************************************************************
         *                GEOMETRY OPTIMIZATION CYCLE   1            *
         *************************************************************
---------------------------------
CARTESIAN COORDINATES (ANGSTROEM)
---------------------------------
  O      0.157796    4.139148   -1.532841
  C     -0.088764    2.936769   -1.611038
  C     -1.359336    2.464287   -2.338265
  C     -2.534490    2.274078   -1.344601
  C     -2.554891    0.759305   -1.083879
  C     -2.197694    0.157588   -2.447450
  N     -1.264173    1.157923   -3.001609
  C     -0.460843    1.045203   -4.099336
  O      0.266632    1.971554   -4.475732
  N      0.660642    1.984898   -0.957338
  C      1.583207    2.449558    0.080772
  C      2.669920    1.401233    0.348821
  N      3.199151    0.820183   -0.763688
  C      4.395108   -0.032659   -0.801392
  C      4.226289   -1.449717   -0.192706
  N      3.568411   -1.510867    0.997476
  C      3.449572   -2.738431    1.758839
  C      2.186704   -3.599687    1.509400
  C      0.930439   -2.829181    1.021959
  C      1.094337   -2.070918   -0.322465
  N      1.770894   -2.778005   -1.252919
  C      2.022877   -2.268944   -2.581829
  C      0.681014   -1.958430   -3.270867
  N      0.780566   -0.985220   -4.224026
  C     -0.392458   -0.329590   -4.800691
  C     -0.273238   -0.172092   -6.314503
  O     -0.368113   -2.548026   -3.001657
  C      2.951321   -3.207809   -3.384509
  C      2.387864   -4.542210   -3.929984
  C      1.475010   -4.367234   -5.157259
  C      1.702793   -5.407258   -2.858646
  O      0.583115   -0.957874   -0.539196
  C      0.353013   -1.929900    2.123932
  C     -1.104543   -1.550651    1.977700
  C     -1.721495   -0.853422    3.187836
  C     -3.025067   -0.122766    2.850334
  C     -3.630228    0.638516    4.033730
  C     -4.899340    1.419945    3.675942
  C     -5.501416    2.198925    4.850869
  C     -6.764314    2.988658    4.488329
  C     -7.365936    3.771686    5.662378
  C     -8.626247    4.558450    5.289973
  O      1.051050   -1.553760    3.057142
  O      2.538833   -4.650620    0.587245
  O      4.712023   -2.432371   -0.763685
  C      5.633261    0.682051   -0.207558
  C      6.934109   -0.104542   -0.379552
  O      3.067156    1.135908    1.496742
  C      0.838586    2.954203    1.345075
  C      0.071545    1.840298    2.061824
  C      1.758309    3.741806    2.289115
  H     -1.556286    3.261777   -3.081316
  H     -3.479616    2.596452   -1.828385
  H     -2.406958    2.882594   -0.428442
  H     -1.773553    0.483779   -0.346283
  H     -3.523623    0.391921   -0.693996
  H     -1.722192   -0.839087   -2.372787
  H     -3.102885    0.069853   -3.092245
  H      0.384156    0.991675   -0.956567
  H      2.096670    3.338132   -0.352859
  H      2.740947    1.055027   -1.648063
  H      4.594389   -0.233975   -1.872615
  H      3.310624   -0.604789    1.439184
  H      3.458551   -2.461634    2.827764
  H      4.318823   -3.389159    1.533512
  H      1.921974   -4.060204    2.487307
  H      0.149747   -3.593886    0.801637
  H      2.252917   -3.631854   -0.928698
  H      2.552818   -1.294338   -2.485004
  H      1.654841   -0.456783   -4.289075
  H     -1.250200   -0.975662   -4.536129
  H     -0.091665   -1.155630   -6.789252
  H     -1.203143    0.260695   -6.733936
  H      0.556666    0.519932   -6.558779
  H      3.821560   -3.395817   -2.720598
  H      3.346329   -2.622240   -4.241607
  H      3.289536   -5.097342   -4.275578
  H      1.939879   -3.709545   -5.920286
  H      1.277571   -5.349021   -5.634985
  H      0.493828   -3.935656   -4.879417
  H      2.376459   -5.597881   -1.997270
  H      0.780735   -4.913551   -2.489242
  H      1.415045   -6.392144   -3.280754
  H     -1.685109   -2.447015    1.665836
  H     -1.115531   -0.893811    1.076687
  H     -0.981505   -0.137507    3.598269
  H     -1.896493   -1.594772    3.998129
  H     -3.773015   -0.844740    2.449377
  H     -2.828893    0.594125    2.021554
  H     -2.867582    1.340553    4.440941
  H     -3.852112   -0.073408    4.861015
  H     -5.662785    0.718175    3.268488
  H     -4.670953    2.126235    2.845002
  H     -4.735243    2.896653    5.259528
  H     -5.733349    1.492793    5.680677
  H     -7.531048    2.290653    4.080098
  H     -6.531495    3.693337    3.657152
  H     -6.596693    4.466453    6.068494
  H     -7.596212    3.065125    6.491387
  H     -9.036985    5.113527    6.157893
  H     -8.417395    5.298331    4.488533
  H     -9.425893    3.885137    4.914920
  H      1.828634   -5.320850    0.611620
  H      5.436293    0.889488    0.863336
  H      5.709687    1.669655   -0.711084
  H      7.790294    0.468221    0.029345
  H      6.898283   -1.081383    0.142044
  H      7.145395   -0.316101   -1.448270
  H      0.102216    3.677890    0.934271
  H     -0.605062    1.311959    1.360999
  H      0.759143    1.094754    2.505020
  H     -0.557799    2.258399    2.873697
  H      2.292117    4.549008    1.745131
  H      1.162490    4.221292    3.092752
  H      2.510865    3.080233    2.757498

----------------------------
CARTESIAN COORDINATES (A.U.)
----------------------------
  NO LB      ZA    FRAG     MASS         X           Y           Z
   0 O     8.0000    0    15.999    0.298191    7.821855   -2.896649
   1 C     6.0000    0    12.011   -0.167740    5.549688   -3.044420
   2 C     6.0000    0    12.011   -2.568772    4.656828   -4.418680
   3 C     6.0000    0    12.011   -4.789492    4.297384   -2.540927
   4 C     6.0000    0    12.011   -4.828045    1.434878   -2.048235
   5 C     6.0000    0    12.011   -4.153040    0.297797   -4.625011
   6 N     7.0000    0    14.007   -2.388940    2.188158   -5.672220
   7 C     6.0000    0    12.011   -0.870866    1.975148   -7.746623
   8 O     8.0000    0    15.999    0.503861    3.725697   -8.457907
   9 N     7.0000    0    14.007    1.248433    3.750914   -1.809107
  10 C     6.0000    0    12.011    2.991827    4.628994    0.152636
  11 C     6.0000    0    12.011    5.045418    2.647946    0.659176
  12 N     7.0000    0    14.007    6.045519    1.549921   -1.443160
  13 C     6.0000    0    12.011    8.305551   -0.061717   -1.514411
  14 C     6.0000    0    12.011    7.986528   -2.739567   -0.364162
  15 N     7.0000    0    14.007    6.743319   -2.855124    1.884956
  16 C     6.0000    0    12.011    6.518747   -5.174884    3.323724
  17 C     6.0000    0    12.011    4.132272   -6.802423    2.852352
  18 C     6.0000    0    12.011    1.758274   -5.346377    1.931223
  19 C     6.0000    0    12.011    2.067997   -3.913468   -0.609371
  20 N     7.0000    0    14.007    3.346504   -5.249669   -2.367674
  21 C     6.0000    0    12.011    3.822684   -4.287683   -4.878949
  22 C     6.0000    0    12.011    1.286930   -3.700897   -6.181042
  23 N     7.0000    0    14.007    1.475056   -1.861795   -7.982252
  24 C     6.0000    0    12.011   -0.741638   -0.622836   -9.071992
  25 C     6.0000    0    12.011   -0.516344   -0.325206  -11.932680
  26 O     8.0000    0    15.999   -0.695633   -4.815070   -5.672310
  27 C     6.0000    0    12.011    5.577188   -6.061880   -6.395796
  28 C     6.0000    0    12.011    4.512409   -8.583534   -7.426593
  29 C     6.0000    0    12.011    2.787365   -8.252876   -9.745806
  30 C     6.0000    0    12.011    3.217813  -10.218236   -5.402059
  31 O     8.0000    0    15.999    1.101928   -1.810120   -1.018933
  32 C     6.0000    0    12.011    0.667099   -3.646983    4.013650
  33 C     6.0000    0    12.011   -2.087284   -2.930306    3.737311
  34 C     6.0000    0    12.011   -3.253154   -1.612733    6.024136
  35 C     6.0000    0    12.011   -5.716549   -0.231994    5.386350
  36 C     6.0000    0    12.011   -6.860137    1.206620    7.622646
  37 C     6.0000    0    12.011   -9.258412    2.683308    6.946524
  38 C     6.0000    0    12.011  -10.396169    4.155365    9.166813
  39 C     6.0000    0    12.011  -12.782701    5.647745    8.481713
  40 C     6.0000    0    12.011  -13.919602    7.127453   10.700343
  41 C     6.0000    0    12.011  -16.301244    8.614222    9.996601
  42 O     8.0000    0    15.999    1.986196   -2.936181    5.777161
  43 O     8.0000    0    15.999    4.797699   -8.788398    1.109732
  44 O     8.0000    0    15.999    8.904434   -4.596514   -1.443155
  45 C     6.0000    0    12.011   10.645320    1.288889   -0.392227
  46 C     6.0000    0    12.011   13.103568   -0.197556   -0.717249
  47 O     8.0000    0    15.999    5.796084    2.146554    2.828433
  48 C     6.0000    0    12.011    1.584697    5.582635    2.541824
  49 C     6.0000    0    12.011    0.135200    3.477659    3.896283
  50 C     6.0000    0    12.011    3.322722    7.070989    4.325800
  51 H     1.0000    0     1.008   -2.940954    6.163865   -5.822844
  52 H     1.0000    0     1.008   -6.575521    4.906583   -3.455147
  53 H     1.0000    0     1.008   -4.548492    5.447314   -0.809637
  54 H     1.0000    0     1.008   -3.351529    0.914210   -0.654380
  55 H     1.0000    0     1.008   -6.658682    0.740624   -1.311463
  56 H     1.0000    0     1.008   -3.254472   -1.585644   -4.483917
  57 H     1.0000    0     1.008   -5.863602    0.132003   -5.843497
  58 H     1.0000    0     1.008    0.725950    1.873995   -1.807650
  59 H     1.0000    0     1.008    3.962133    6.308156   -0.666807
  60 H     1.0000    0     1.008    5.179640    1.993711   -3.114387
  61 H     1.0000    0     1.008    8.682137   -0.442148   -3.538730
  62 H     1.0000    0     1.008    6.256173   -1.142885    2.719664
  63 H     1.0000    0     1.008    6.535714   -4.651814    5.343699
  64 H     1.0000    0     1.008    8.161392   -6.404583    2.897918
  65 H     1.0000    0     1.008    3.632004   -7.672674    4.700330
  66 H     1.0000    0     1.008    0.282980   -6.791460    1.514874
  67 H     1.0000    0     1.008    4.257397   -6.863209   -1.754986
  68 H     1.0000    0     1.008    4.824127   -2.445944   -4.695977
  69 H     1.0000    0     1.008    3.127195   -0.863194   -8.105177
  70 H     1.0000    0     1.008   -2.362535   -1.843734   -8.572041
  71 H     1.0000    0     1.008   -0.173223   -2.183824  -12.829826
  72 H     1.0000    0     1.008   -2.273610    0.492642  -12.725295
  73 H     1.0000    0     1.008    1.051946    0.982529  -12.394295
  74 H     1.0000    0     1.008    7.221702   -6.417163   -5.141185
  75 H     1.0000    0     1.008    6.323644   -4.955316   -8.015475
  76 H     1.0000    0     1.008    6.216323   -9.632581   -8.079672
  77 H     1.0000    0     1.008    3.665840   -7.010024  -11.187719
  78 H     1.0000    0     1.008    2.414260  -10.108184  -10.648578
  79 H     1.0000    0     1.008    0.933200   -7.437312   -9.220762
  80 H     1.0000    0     1.008    4.490857  -10.578461   -3.774294
  81 H     1.0000    0     1.008    1.475375   -9.285266   -4.703985
  82 H     1.0000    0     1.008    2.674047  -12.079401   -6.199727
  83 H     1.0000    0     1.008   -3.184395   -4.624188    3.147974
  84 H     1.0000    0     1.008   -2.108048   -1.689058    2.034644
  85 H     1.0000    0     1.008   -1.854776   -0.259851    6.799744
  86 H     1.0000    0     1.008   -3.583853   -3.013682    7.555368
  87 H     1.0000    0     1.008   -7.129964   -1.596326    4.628652
  88 H     1.0000    0     1.008   -5.345834    1.122734    3.820184
  89 H     1.0000    0     1.008   -5.418945    2.533279    8.392162
  90 H     1.0000    0     1.008   -7.279437   -0.138721    9.185987
  91 H     1.0000    0     1.008  -10.701114    1.357155    6.176547
  92 H     1.0000    0     1.008   -8.826822    4.018002    5.376274
  93 H     1.0000    0     1.008   -8.948313    5.473881    9.939068
  94 H     1.0000    0     1.008  -10.834460    2.820969   10.734924
  95 H     1.0000    0     1.008  -14.231619    4.328707    7.710269
  96 H     1.0000    0     1.008  -12.342737    6.979396    6.911016
  97 H     1.0000    0     1.008  -12.465943    8.440373   11.467793
  98 H     1.0000    0     1.008  -14.354759    5.792247   12.266945
  99 H     1.0000    0     1.008  -17.077427    9.663165   11.636732
 100 H     1.0000    0     1.008  -15.906571   10.012395    8.482098
 101 H     1.0000    0     1.008  -17.812356    7.341846    9.287853
 102 H     1.0000    0     1.008    3.455618  -10.054948    1.155795
 103 H     1.0000    0     1.008   10.273105    1.680889    1.631468
 104 H     1.0000    0     1.008   10.789746    3.155190   -1.343755
 105 H     1.0000    0     1.008   14.721523    0.884809    0.055454
 106 H     1.0000    0     1.008   13.035866   -2.043518    0.268424
 107 H     1.0000    0     1.008   13.502840   -0.597344   -2.736833
 108 H     1.0000    0     1.008    0.193160    6.950205    1.765517
 109 H     1.0000    0     1.008   -1.143401    2.479244    2.571915
 110 H     1.0000    0     1.008    1.434573    2.068786    4.733801
 111 H     1.0000    0     1.008   -1.054087    4.267755    5.430500
 112 H     1.0000    0     1.008    4.331474    8.596379    3.297819
 113 H     1.0000    0     1.008    2.196787    7.977086    5.844454
 114 H     1.0000    0     1.008    4.744848    5.820797    5.210917

--------------------------------
INTERNAL COORDINATES (ANGSTROEM)
--------------------------------
 O      0   0   0     0.000000000000     0.00000000     0.00000000
 C      1   0   0     1.229887029072     0.00000000     0.00000000
 C      2   1   0     1.538326936984   119.72958675     0.00000000
 C      3   2   1     1.550656369059   111.14188055   266.30170233
 C      4   3   2     1.537181877158   103.86413805   260.65629150
 C      5   4   3     1.532638106470   103.46702356   323.03375242
 N      3   2   1     1.468219917093   115.67916522   148.98184415
 C      7   3   2     1.364935746535   118.35803944   291.16714724
 O      8   7   3     1.236534597979   121.95080407     6.23604937
 N      2   1   3     1.376586174617   122.45768598   186.58405990
 C     10   2   1     1.464481655692   117.39793556    13.47769085
 C     11  10   2     1.533552390233   110.69614952   200.32429913
 N     12  11  10     1.362122942717   115.09816289    43.01097975
 C     13  12  11     1.469379491056   125.78761584   168.95623767
 C     14  13  12     1.551466826908   115.56243913    72.05880486
 N     15  14  13     1.361277711106   115.88936168   315.42556906
 C     16  15  14     1.449382659882   122.47620891   186.45055037
 C     17  16  15     1.548812054792   116.95082566   267.34250110
 C     18  17  16     1.552249893738   115.75033157   333.08604499
 C     19  18  17     1.552192911503   115.40529296    60.17539560
 N     20  19  18     1.350349954529   113.19850742    41.89394014
 C     21  20  19     1.445213012299   122.44627412   179.19465368
 C     22  21  20     1.540061204656   109.29946735   301.07904532
 N     23  22  21     1.365856053384   113.10269169   153.32136583
 C     24  23  22     1.462319324642   122.42467699   193.36524679
 C     25  24  23     1.526644746387   112.00241531   223.22185431
 O     23  22  21     1.233192498864   123.17422828   332.12663039
 C     22  21  20     1.545240996804   111.61672170   173.47814884
 C     28  22  21     1.547789808315   119.21946302    74.05290000
 C     29  28  22     1.539520439658   113.50394850    75.09169449
 C     29  28  22     1.537983117403   113.67673017   307.24676294
 O     20  19  18     1.243859644262   123.00105006   217.89084242
 C     19  18  17     1.535079848336   111.70288374   290.66468943
 C     33  19  18     1.513170692848   116.08984826   202.36006516
 C     34  33  19     1.526822469565   115.28249134   170.37800932
 C     35  34  33     1.532013700497   112.76837959   162.49747871
 C     36  35  34     1.531730261828   113.76624644   182.65071776
 C     37  36  35     1.532739509251   113.58889309   177.36840878
 C     38  37  36     1.532891172225   113.91477127   180.72752021
 C     39  38  37     1.532979449553   113.83467029   179.54208220
 C     40  39  38     1.534102760415   113.89309806   180.14986036
 C     41  40  39     1.531687501113   113.50270104   179.94022295
 O     33  19  18     1.224588391694   120.83564949    22.37541039
 O     18  17  16     1.441812982580   108.01043872    98.22081518
 O     15  14  13     1.235946515495   120.14377212   137.64613295
 C     14  13  12     1.548053890019   111.91153445   303.71361893
 C     46  14  13     1.529875297905   113.55165953   186.92856903
 O     12  11  10     1.243348848141   122.25224612   220.74122176
 C     11  10   2     1.551641371887   112.23886475    70.57037620
 C     49  11  10     1.530642437013   112.66565471    65.03493090
 C     49  11  10     1.535389121298   112.35619736   193.61079757
 H      3   2   1     1.107657094898   104.05502997    27.67460693
 H      4   3   2     1.109610592136   109.29785328   142.80185665
 H      4   3   2     1.107205559191   112.05683676    23.86008940
 H      5   4   3     1.109257509943   110.37723252    79.83126925
 H      5   4   3     1.106987108243   113.47757755   200.49435875
 H      6   5   4     1.106813460269   113.18141407   153.69722224
 H      6   5   4     1.114822131786   110.86965583   275.85745174
 H     10   2   1     1.030988336875   121.36609841   173.75082004
 H     11  10   2     1.114111513713   105.51482657   315.34162562
 H     13  12  11     1.023338249329   115.72011136   352.72826364
 H     14  13  12     1.108043353329   106.05990082   186.03586343
 H     16  15  14     1.040450162693   116.85901841   354.70270331
 H     17  16  15     1.104217898468   107.18972645   146.55603106
 H     17  16  15     1.108970856375   109.02496799    27.85350247
 H     18  17  16     1.112861909200   106.41270737   214.63727685
 H     19  18  17     1.114807181511   106.75791598   174.88501193
 H     21  20  19     1.032725912779   116.77339710   348.44600707
 H     22  21  20     1.113583717139   108.13772889    56.14403372
 H     24  23  22     1.023637090951   118.32216799   350.17001393
 H     25  24  23     1.105948735773   105.41961973   344.02135828
 H     26  25  24     1.107114711696   110.26534790    55.66937481
 H     26  25  24     1.108129939296   110.49239045   175.98385134
 H     26  25  24     1.107839007563   109.97374815   294.53698363
 H     28  22  21     1.110604386084   105.25595201   309.42765068
 H     28  22  21     1.110647332659   107.11085363   197.16586181
 H     29  28  22     1.113831229474   104.14258273   190.87201250
 H     30  29  28     1.109445173339   111.54249147    48.27723316
 H     30  29  28     1.109553957124   110.37568462   167.88812486
 H     30  29  28     1.107327235991   111.69554678   287.01277574
 H     31  29  28     1.110014310296   111.51906502   305.41011066
 H     31  29  28     1.109232866617   110.60422234    66.64752471
 H     31  29  28     1.109492987506   110.47468746   185.96021082
 H     34  33  19     1.112557546496   109.13598645    42.94587004
 H     34  33  19     1.115070908940   103.60437357   292.54707491
 H     35  34  33     1.108410716878   108.58247832    40.36042237
 H     35  34  33     1.112114801115   109.67313577   285.65069494
 H     36  35  34     1.114197665373   109.96414428    59.33564149
 H     36  35  34     1.113235455347   108.73495036   304.25369400
 H     37  36  35     1.113690033056   108.98007988    55.22033893
 H     37  36  35     1.113763273474   109.56545678   300.21178496
 H     38  37  36     1.114158066115   109.36655643    58.04610743
 H     38  37  36     1.114211910694   109.11935625   303.12457148
 H     39  38  37     1.113933523415   109.22895856    57.06242969
 H     39  38  37     1.114000545690   109.30508717   302.11628553
 H     40  39  38     1.114336039622   109.31658477    57.60065863
 H     40  39  38     1.114285776095   109.27297607   302.64789085
 H     41  40  39     1.113268898777   109.07102222    57.33798977
 H     41  40  39     1.113333893668   109.08942394   302.56815764
 H     42  41  40     1.109099253555   111.81010169   180.02123712
 H     42  41  40     1.110563071367   111.28012343   300.26801581
 H     42  41  40     1.110606953490   111.29305039    59.75818304
 H     44  18  17     0.976823131765   107.85413980   165.29388107
 H     46  14  13     1.108439775596   108.35374582    63.30773682
 H     46  14  13     1.111189214121   106.94898390   308.87861125
 H     47  46  14     1.108289955457   110.46808522   177.94816661
 H     47  46  14     1.107954613855   111.89393516   298.15225503
 H     47  46  14     1.109755298564   111.60280432    57.95169195
 H     49  11  10     1.111180817337   103.21461703   308.37495460
 H     50  49  11     1.108193778683   110.90260602   306.67194080
 H     50  49  11     1.106819612884   111.49279803    67.24375249
 H     50  49  11     1.109062072801   110.65906349   187.79875123
 H     51  49  11     1.110155249735   111.08366071    52.07596150
 H     51  49  11     1.109386986095   110.20577868   170.97702101
 H     51  49  11     1.106076101915   111.16842859   291.30498931

---------------------------
INTERNAL COORDINATES (A.U.)
---------------------------
 O      0   0   0     0.000000000000     0.00000000     0.00000000
 C      1   0   0     2.324149660608     0.00000000     0.00000000
 C      2   1   0     2.907016615333   119.72958675     0.00000000
 C      3   2   1     2.930315865342   111.14188055   266.30170233
 C      4   3   2     2.904852765855   103.86413805   260.65629150
 C      5   4   3     2.896266283640   103.46702356   323.03375242
 N      3   2   1     2.774533547675   115.67916522   148.98184415
 C      7   3   2     2.579354751351   118.35803944   291.16714724
 O      8   7   3     2.336711745300   121.95080407     6.23604937
 N      2   1   3     2.601370869769   122.45768598   186.58405990
 C     10   2   1     2.767469257410   117.39793556    13.47769085
 C     11  10   2     2.897994029562   110.69614952   200.32429913
 N     12  11  10     2.574039322466   115.09816289    43.01097975
 C     13  12  11     2.776724824896   125.78761584   168.95623767
 C     14  13  12     2.931847408720   115.56243913    72.05880486
 N     15  14  13     2.572442066202   115.88936168   315.42556906
 C     16  15  14     2.738936290431   122.47620891   186.45055037
 C     17  16  15     2.926830616473   116.95082566   267.34250110
 C     18  17  16     2.933327190573   115.75033157   333.08604499
 C     19  18  17     2.933219509755   115.40529296    60.17539560
 N     20  19  18     2.551791599014   113.19850742    41.89394014
 C     21  20  19     2.731056798425   122.44627412   179.19465368
 C     22  21  20     2.910293906276   109.29946735   301.07904532
 N     23  22  21     2.581093879254   113.10269169   153.32136583
 C     24  23  22     2.763383043914   122.42467699   193.36524679
 C     25  24  23     2.884940474461   112.00241531   223.22185431
 O     23  22  21     2.330396093260   123.17422828   332.12663039
 C     22  21  20     2.920082294867   111.61672170   173.47814884
 C     28  22  21     2.924898850589   119.21946302    74.05290000
 C     29  28  22     2.909272008527   113.50394850    75.09169449
 C     29  28  22     2.906366890486   113.67673017   307.24676294
 O     20  19  18     2.350554076691   123.00105006   217.89084242
 C     19  18  17     2.900880507056   111.70288374   290.66468943
 C     33  19  18     2.859478203358   116.08984826   202.36006516
 C     34  33  19     2.885276322595   115.28249134   170.37800932
 C     35  34  33     2.895086327354   112.76837959   162.49747871
 C     36  35  34     2.894550705895   113.76624644   182.65071776
 C     37  36  35     2.896457907126   113.58889309   177.36840878
 C     38  37  36     2.896744508611   113.91477127   180.72752021
 C     39  38  37     2.896911328584   113.83467029   179.54208220
 C     40  39  38     2.899034078477   113.89309806   180.14986036
 C     41  40  39     2.894469899853   113.50270104   179.94022295
 O     33  19  18     2.314136687080   120.83564949    22.37541039
 O     18  17  16     2.724631673408   108.01043872    98.22081518
 O     15  14  13     2.335600430459   120.14377212   137.64613295
 C     14  13  12     2.925397892687   111.91153445   303.71361893
 C     46  14  13     2.891045332091   113.55165953   186.92856903
 O     12  11  10     2.349588811913   122.25224612   220.74122176
 C     11  10   2     2.932177250928   112.23886475    70.57037620
 C     49  11  10     2.892495014913   112.66565471    65.03493090
 C     49  11  10     2.901464948255   112.35619736   193.61079757
 H      3   2   1     2.093168559653   104.05502997    27.67460693
 H      4   3   2     2.096860134435   109.29785328   142.80185665
 H      4   3   2     2.092315280827   112.05683676    23.86008940
 H      5   4   3     2.096192905788   110.37723252    79.83126925
 H      5   4   3     2.091902468360   113.47757755   200.49435875
 H      6   5   4     2.091574321245   113.18141407   153.69722224
[...]
freq.      89.47  E(vib)   ...       0.47 
freq.      91.94  E(vib)   ...       0.47 
freq.      96.81  E(vib)   ...       0.46 
freq.     102.55  E(vib)   ...       0.46 
freq.     110.61  E(vib)   ...       0.45 
freq.     116.89  E(vib)   ...       0.44 
freq.     118.86  E(vib)   ...       0.44 
freq.     125.56  E(vib)   ...       0.43 
freq.     133.35  E(vib)   ...       0.42 
freq.     137.04  E(vib)   ...       0.42 
freq.     138.88  E(vib)   ...       0.42 
freq.     144.91  E(vib)   ...       0.41 
freq.     146.69  E(vib)   ...       0.41 
freq.     149.25  E(vib)   ...       0.40 
freq.     156.01  E(vib)   ...       0.40 
freq.     158.31  E(vib)   ...       0.39 
freq.     162.97  E(vib)   ...       0.39 
freq.     164.48  E(vib)   ...       0.39 
freq.     169.86  E(vib)   ...       0.38 
freq.     175.13  E(vib)   ...       0.38 
freq.     178.20  E(vib)   ...       0.37 
freq.     188.04  E(vib)   ...       0.36 
freq.     197.17  E(vib)   ...       0.35 
freq.     202.66  E(vib)   ...       0.35 
freq.     216.50  E(vib)   ...       0.34 
freq.     222.07  E(vib)   ...       0.33 
freq.     224.94  E(vib)   ...       0.33 
freq.     227.13  E(vib)   ...       0.33 
freq.     229.45  E(vib)   ...       0.32 
freq.     232.82  E(vib)   ...       0.32 
freq.     235.83  E(vib)   ...       0.32 
freq.     237.19  E(vib)   ...       0.32 
freq.     243.66  E(vib)   ...       0.31 
freq.     251.32  E(vib)   ...       0.30 
freq.     257.21  E(vib)   ...       0.30 
freq.     265.69  E(vib)   ...       0.29 
freq.     269.27  E(vib)   ...       0.29 
freq.     284.74  E(vib)   ...       0.28 
freq.     292.59  E(vib)   ...       0.27 
freq.     296.20  E(vib)   ...       0.27 
freq.     301.40  E(vib)   ...       0.26 
freq.     308.83  E(vib)   ...       0.26 
freq.     313.80  E(vib)   ...       0.25 
freq.     322.88  E(vib)   ...       0.25 
freq.     326.46  E(vib)   ...       0.24 
freq.     331.76  E(vib)   ...       0.24 
freq.     334.59  E(vib)   ...       0.24 
freq.     335.77  E(vib)   ...       0.24 
freq.     343.11  E(vib)   ...       0.23 
freq.     352.01  E(vib)   ...       0.23 
freq.     368.33  E(vib)   ...       0.21 
freq.     379.56  E(vib)   ...       0.21 
freq.     382.53  E(vib)   ...       0.21 
freq.     388.18  E(vib)   ...       0.20 
freq.     394.12  E(vib)   ...       0.20 
freq.     407.39  E(vib)   ...       0.19 
freq.     422.63  E(vib)   ...       0.18 
freq.     426.33  E(vib)   ...       0.18 
freq.     441.04  E(vib)   ...       0.17 
freq.     448.93  E(vib)   ...       0.17 
freq.     459.52  E(vib)   ...       0.16 
freq.     471.64  E(vib)   ...       0.15 
freq.     480.25  E(vib)   ...       0.15 
freq.     488.36  E(vib)   ...       0.15 
freq.     503.64  E(vib)   ...       0.14 
freq.     507.86  E(vib)   ...       0.14 
freq.     536.74  E(vib)   ...       0.12 
freq.     553.85  E(vib)   ...       0.12 
freq.     566.98  E(vib)   ...       0.11 
freq.     576.52  E(vib)   ...       0.11 
freq.     580.28  E(vib)   ...       0.11 
freq.     591.53  E(vib)   ...       0.10 
freq.     599.30  E(vib)   ...       0.10 
freq.     619.16  E(vib)   ...       0.09 
freq.     646.05  E(vib)   ...       0.09 
freq.     647.39  E(vib)   ...       0.09 
freq.     670.09  E(vib)   ...       0.08 
freq.     681.53  E(vib)   ...       0.08 
freq.     695.85  E(vib)   ...       0.07 
freq.     699.38  E(vib)   ...       0.07 
freq.     709.08  E(vib)   ...       0.07 
freq.     711.52  E(vib)   ...       0.07 
freq.     714.88  E(vib)   ...       0.07 
freq.     720.51  E(vib)   ...       0.07 
freq.     727.29  E(vib)   ...       0.06 
freq.     737.63  E(vib)   ...       0.06 
freq.     747.59  E(vib)   ...       0.06 
freq.     748.66  E(vib)   ...       0.06 
freq.     756.09  E(vib)   ...       0.06 
freq.     762.02  E(vib)   ...       0.06 
freq.     779.80  E(vib)   ...       0.05 
freq.     784.99  E(vib)   ...       0.05 
freq.     789.30  E(vib)   ...       0.05 
freq.     797.67  E(vib)   ...       0.05 
freq.     801.30  E(vib)   ...       0.05 
freq.     809.68  E(vib)   ...       0.05 
freq.     824.28  E(vib)   ...       0.04 
freq.     830.49  E(vib)   ...       0.04 
freq.     832.90  E(vib)   ...       0.04 
freq.     848.71  E(vib)   ...       0.04 
freq.     853.27  E(vib)   ...       0.04 
freq.     860.11  E(vib)   ...       0.04 
freq.     870.47  E(vib)   ...       0.04 
freq.     873.07  E(vib)   ...       0.04 
freq.     877.56  E(vib)   ...       0.04 
freq.     887.50  E(vib)   ...       0.04 
freq.     888.59  E(vib)   ...       0.04 
freq.     899.11  E(vib)   ...       0.03 
freq.     906.97  E(vib)   ...       0.03 
freq.     909.69  E(vib)   ...       0.03 
freq.     911.76  E(vib)   ...       0.03 
freq.     915.16  E(vib)   ...       0.03 
freq.     922.05  E(vib)   ...       0.03 
freq.     927.91  E(vib)   ...       0.03 
freq.     934.82  E(vib)   ...       0.03 
freq.     938.39  E(vib)   ...       0.03 
freq.     942.37  E(vib)   ...       0.03 
freq.     946.23  E(vib)   ...       0.03 
freq.     951.60  E(vib)   ...       0.03 
freq.     952.47  E(vib)   ...       0.03 
freq.     963.20  E(vib)   ...       0.03 
freq.     979.15  E(vib)   ...       0.03 
freq.     980.30  E(vib)   ...       0.02 
freq.     988.88  E(vib)   ...       0.02 
freq.    1001.85  E(vib)   ...       0.02 
freq.    1011.05  E(vib)   ...       0.02 
freq.    1017.39  E(vib)   ...       0.02 
freq.    1022.99  E(vib)   ...       0.02 
freq.    1025.42  E(vib)   ...       0.02 
freq.    1031.70  E(vib)   ...       0.02 
freq.    1035.66  E(vib)   ...       0.02 
freq.    1036.23  E(vib)   ...       0.02 
freq.    1044.57  E(vib)   ...       0.02 
freq.    1048.65  E(vib)   ...       0.02 
freq.    1050.55  E(vib)   ...       0.02 
freq.    1051.24  E(vib)   ...       0.02 
freq.    1054.50  E(vib)   ...       0.02 
freq.    1061.43  E(vib)   ...       0.02 
freq.    1066.15  E(vib)   ...       0.02 
freq.    1068.82  E(vib)   ...       0.02 
freq.    1080.04  E(vib)   ...       0.02 
freq.    1084.96  E(vib)   ...       0.02 
freq.    1088.95  E(vib)   ...       0.02 
freq.    1092.63  E(vib)   ...       0.02 
freq.    1095.45  E(vib)   ...       0.02 
freq.    1096.95  E(vib)   ...       0.02 
freq.    1104.24  E(vib)   ...       0.02 
freq.    1115.08  E(vib)   ...       0.01 
freq.    1120.61  E(vib)   ...       0.01 
freq.    1123.09  E(vib)   ...       0.01 
freq.    1135.84  E(vib)   ...       0.01 
freq.    1139.60  E(vib)   ...       0.01 
freq.    1155.72  E(vib)   ...       0.01 
freq.    1158.98  E(vib)   ...       0.01 
freq.    1164.49  E(vib)   ...       0.01 
freq.    1168.80  E(vib)   ...       0.01 
freq.    1179.15  E(vib)   ...       0.01 
freq.    1181.46  E(vib)   ...       0.01 
freq.    1184.51  E(vib)   ...       0.01 
freq.    1186.65  E(vib)   ...       0.01 
freq.    1192.95  E(vib)   ...       0.01 
freq.    1198.95  E(vib)   ...       0.01 
freq.    1203.67  E(vib)   ...       0.01 
freq.    1212.01  E(vib)   ...       0.01 
freq.    1213.88  E(vib)   ...       0.01 
freq.    1219.20  E(vib)   ...       0.01 
freq.    1222.22  E(vib)   ...       0.01 
freq.    1223.86  E(vib)   ...       0.01 
freq.    1238.08  E(vib)   ...       0.01 
freq.    1239.09  E(vib)   ...       0.01 
freq.    1241.52  E(vib)   ...       0.01 
freq.    1252.57  E(vib)   ...       0.01 
freq.    1253.43  E(vib)   ...       0.01 
freq.    1260.35  E(vib)   ...       0.01 
freq.    1267.12  E(vib)   ...       0.01 
freq.    1267.75  E(vib)   ...       0.01 
freq.    1270.23  E(vib)   ...       0.01 
freq.    1275.35  E(vib)   ...       0.01 
freq.    1276.26  E(vib)   ...       0.01 
freq.    1282.50  E(vib)   ...       0.01 
freq.    1282.83  E(vib)   ...       0.01 
freq.    1285.38  E(vib)   ...       0.01 
freq.    1289.56  E(vib)   ...       0.01 
freq.    1293.98  E(vib)   ...       0.01 
freq.    1294.86  E(vib)   ...       0.01 
freq.    1295.16  E(vib)   ...       0.01 
freq.    1295.73  E(vib)   ...       0.01 
freq.    1297.87  E(vib)   ...       0.01 
freq.    1302.00  E(vib)   ...       0.01 
freq.    1305.32  E(vib)   ...       0.01 
freq.    1309.78  E(vib)   ...       0.01 
freq.    1310.85  E(vib)   ...       0.01 
freq.    1318.36  E(vib)   ...       0.01 
freq.    1322.05  E(vib)   ...       0.01 
freq.    1326.14  E(vib)   ...       0.01 
freq.    1332.66  E(vib)   ...       0.01 
freq.    1334.30  E(vib)   ...       0.01 
freq.    1335.04  E(vib)   ...       0.01 
freq.    1336.45  E(vib)   ...       0.01 
freq.    1342.55  E(vib)   ...       0.01 
freq.    1343.60  E(vib)   ...       0.01 
freq.    1347.04  E(vib)   ...       0.01 
freq.    1348.17  E(vib)   ...       0.01 
freq.    1350.19  E(vib)   ...       0.01 
freq.    1352.35  E(vib)   ...       0.01 
freq.    1352.48  E(vib)   ...       0.01 
freq.    1354.30  E(vib)   ...       0.01 
freq.    1357.08  E(vib)   ...       0.01 
freq.    1357.83  E(vib)   ...       0.01 
freq.    1363.91  E(vib)   ...       0.01 
freq.    1366.40  E(vib)   ...       0.01 
freq.    1372.88  E(vib)   ...       0.01 
freq.    1373.54  E(vib)   ...       0.01 
freq.    1377.60  E(vib)   ...       0.01 
freq.    1396.00  E(vib)   ...       0.00 
freq.    1397.74  E(vib)   ...       0.00 
freq.    1400.84  E(vib)   ...       0.00 
freq.    1429.96  E(vib)   ...       0.00 
freq.    1432.38  E(vib)   ...       0.00 
freq.    1433.67  E(vib)   ...       0.00 
freq.    1434.91  E(vib)   ...       0.00 
freq.    1436.37  E(vib)   ...       0.00 
freq.    1438.38  E(vib)   ...       0.00 
freq.    1439.83  E(vib)   ...       0.00 
freq.    1440.60  E(vib)   ...       0.00 
freq.    1442.91  E(vib)   ...       0.00 
freq.    1445.50  E(vib)   ...       0.00 
freq.    1446.38  E(vib)   ...       0.00 
freq.    1447.96  E(vib)   ...       0.00 
freq.    1449.40  E(vib)   ...       0.00 
freq.    1450.39  E(vib)   ...       0.00 
freq.    1450.96  E(vib)   ...       0.00 
freq.    1451.06  E(vib)   ...       0.00 
freq.    1453.65  E(vib)   ...       0.00 
freq.    1454.44  E(vib)   ...       0.00 
freq.    1456.96  E(vib)   ...       0.00 
freq.    1458.09  E(vib)   ...       0.00 
freq.    1460.20  E(vib)   ...       0.00 
freq.    1461.88  E(vib)   ...       0.00 
freq.    1463.10  E(vib)   ...       0.00 
freq.    1464.72  E(vib)   ...       0.00 
freq.    1469.81  E(vib)   ...       0.00 
freq.    1471.78  E(vib)   ...       0.00 
freq.    1474.69  E(vib)   ...       0.00 
freq.    1483.46  E(vib)   ...       0.00 
freq.    1497.17  E(vib)   ...       0.00 
freq.    1523.66  E(vib)   ...       0.00 
freq.    1543.23  E(vib)   ...       0.00 
freq.    1638.08  E(vib)   ...       0.00 
freq.    1648.76  E(vib)   ...       0.00 
freq.    1649.82  E(vib)   ...       0.00 
freq.    1674.93  E(vib)   ...       0.00 
freq.    1679.45  E(vib)   ...       0.00 
freq.    1686.00  E(vib)   ...       0.00 
freq.    1707.18  E(vib)   ...       0.00 
freq.    2922.78  E(vib)   ...       0.00 
freq.    2924.58  E(vib)   ...       0.00 
freq.    2924.81  E(vib)   ...       0.00 
freq.    2927.41  E(vib)   ...       0.00 
freq.    2927.88  E(vib)   ...       0.00 
freq.    2928.24  E(vib)   ...       0.00 
freq.    2931.36  E(vib)   ...       0.00 
freq.    2932.88  E(vib)   ...       0.00 
freq.    2940.08  E(vib)   ...       0.00 
freq.    2942.03  E(vib)   ...       0.00 
freq.    2942.37  E(vib)   ...       0.00 
freq.    2944.69  E(vib)   ...       0.00 
freq.    2947.05  E(vib)   ...       0.00 
freq.    2947.78  E(vib)   ...       0.00 
freq.    2953.52  E(vib)   ...       0.00 
freq.    2954.03  E(vib)   ...       0.00 
freq.    2956.82  E(vib)   ...       0.00 
freq.    2957.00  E(vib)   ...       0.00 
freq.    2961.75  E(vib)   ...       0.00 
freq.    2962.42  E(vib)   ...       0.00 
freq.    2963.21  E(vib)   ...       0.00 
freq.    2964.48  E(vib)   ...       0.00 
freq.    2967.50  E(vib)   ...       0.00 
freq.    2968.75  E(vib)   ...       0.00 
freq.    2969.47  E(vib)   ...       0.00 
freq.    2969.70  E(vib)   ...       0.00 
freq.    2970.57  E(vib)   ...       0.00 
freq.    2973.68  E(vib)   ...       0.00 
freq.    2977.83  E(vib)   ...       0.00 
freq.    2980.12  E(vib)   ...       0.00 
freq.    2982.37  E(vib)   ...       0.00 
freq.    2988.30  E(vib)   ...       0.00 
freq.    2989.70  E(vib)   ...       0.00 
freq.    2997.93  E(vib)   ...       0.00 
freq.    2999.04  E(vib)   ...       0.00 
freq.    3005.23  E(vib)   ...       0.00 
freq.    3019.25  E(vib)   ...       0.00 
freq.    3020.13  E(vib)   ...       0.00 
freq.    3021.21  E(vib)   ...       0.00 
freq.    3022.89  E(vib)   ...       0.00 
freq.    3022.98  E(vib)   ...       0.00 
freq.    3023.42  E(vib)   ...       0.00 
freq.    3023.53  E(vib)   ...       0.00 
freq.    3027.38  E(vib)   ...       0.00 
freq.    3027.88  E(vib)   ...       0.00 
freq.    3033.24  E(vib)   ...       0.00 
freq.    3034.91  E(vib)   ...       0.00 
freq.    3039.06  E(vib)   ...       0.00 
freq.    3041.00  E(vib)   ...       0.00 
freq.    3042.42  E(vib)   ...       0.00 
freq.    3048.14  E(vib)   ...       0.00 
freq.    3049.11  E(vib)   ...       0.00 
freq.    3050.08  E(vib)   ...       0.00 
freq.    3051.25  E(vib)   ...       0.00 
freq.    3058.97  E(vib)   ...       0.00 
freq.    3062.99  E(vib)   ...       0.00 
freq.    3063.07  E(vib)   ...       0.00 
freq.    3063.39  E(vib)   ...       0.00 
freq.    3221.95  E(vib)   ...       0.00 
freq.    3354.09  E(vib)   ...       0.00 
freq.    3407.74  E(vib)   ...       0.00 
freq.    3484.16  E(vib)   ...       0.00 
freq.    3489.08  E(vib)   ...       0.00 
freq.    3669.05  E(vib)   ...       0.00 

------------
INNER ENERGY
------------

The inner energy is: U= E(el) + E(ZPE) + E(vib) + E(rot) + E(trans)
    E(el)   - is the total energy from the electronic structure calculation
              = E(kin-el) + E(nuc-el) + E(el-el) + E(nuc-nuc)
    E(ZPE)  - the the zero temperature vibrational energy from the frequency calculation
    E(vib)  - the the finite temperature correction to E(ZPE) due to population
              of excited vibrational states
    E(rot)  - is the rotational thermal energy
    E(trans)- is the translational thermal energy

Summary of contributions to the inner energy U:
Electronic energy                ...  -2380.07384701 Eh
Zero point energy                ...      0.97785396 Eh     613.61 kcal/mol
Thermal vibrational correction   ...      0.05553917 Eh      34.85 kcal/mol
Thermal rotational correction    ...      0.00141627 Eh       0.89 kcal/mol
Thermal translational correction ...      0.00141627 Eh       0.89 kcal/mol
-----------------------------------------------------------------------
Total thermal energy                  -2379.03762133 Eh


Summary of corrections to the electronic energy:
(perhaps to be used in another calculation)
Total thermal correction                  0.05837171 Eh      36.63 kcal/mol
Non-thermal (ZPE) correction              0.97785396 Eh     613.61 kcal/mol
-----------------------------------------------------------------------
Total correction                          1.03622567 Eh     650.24 kcal/mol


--------
ENTHALPY
--------

The enthalpy is H = U + kB*T
                kB is Boltzmann's constant
Total free energy                 ...  -2379.03762133 Eh 
Thermal Enthalpy correction       ...      0.00094421 Eh       0.59 kcal/mol
-----------------------------------------------------------------------
Total Enthalpy                    ...  -2379.03667712 Eh


Note: Only C1 symmetry has been detected, increase convergence thresholds 
      if your molecule has a higher symmetry. Symmetry factor of 1.0 is   
      used for the rotational entropy correction. 
 

Note: Rotational entropy computed according to Herzberg 
Infrared and Raman Spectra, Chapter V,1, Van Nostrand Reinhold, 1945 
Point Group:  C1, Symmetry Number:   1  
Rotational constants in cm-1:     0.002408     0.001190     0.001111 

Vibrational entropy computed according to the QRRHO of S. Grimme
Chem.Eur.J. 2012 18 9955


-------
ENTROPY
-------

The entropy contributions are T*S = T*(S(el)+S(vib)+S(rot)+S(trans))
     S(el)   - electronic entropy
     S(vib)  - vibrational entropy
     S(rot)  - rotational entropy
     S(trans)- translational entropy
The entropies will be listed as mutliplied by the temperature to get
units of energy

Electronic entropy                ...      0.00000000 Eh      0.00 kcal/mol
Vibrational entropy               ...      0.10174700 Eh     63.85 kcal/mol
Rotational entropy                ...      0.01874734 Eh     11.76 kcal/mol
Translational entropy             ...      0.02166895 Eh     13.60 kcal/mol
-----------------------------------------------------------------------
Final entropy term                ...      0.14216329 Eh     89.21 kcal/mol

In case the symmetry of your molecule has not been determined correctly
or in case you have a reason to use a different symmetry number we print 
out the resulting rotational entropy values for sn=1,12 :
 --------------------------------------------------------
|  sn= 1 | S(rot)=       0.01874734 Eh     11.76 kcal/mol|
|  sn= 2 | S(rot)=       0.01809288 Eh     11.35 kcal/mol|
|  sn= 3 | S(rot)=       0.01771005 Eh     11.11 kcal/mol|
|  sn= 4 | S(rot)=       0.01743842 Eh     10.94 kcal/mol|
|  sn= 5 | S(rot)=       0.01722773 Eh     10.81 kcal/mol|
|  sn= 6 | S(rot)=       0.01705559 Eh     10.70 kcal/mol|
|  sn= 7 | S(rot)=       0.01691004 Eh     10.61 kcal/mol|
|  sn= 8 | S(rot)=       0.01678397 Eh     10.53 kcal/mol|
|  sn= 9 | S(rot)=       0.01667276 Eh     10.46 kcal/mol|
|  sn=10 | S(rot)=       0.01657328 Eh     10.40 kcal/mol|
|  sn=11 | S(rot)=       0.01648329 Eh     10.34 kcal/mol|
|  sn=12 | S(rot)=       0.01640113 Eh     10.29 kcal/mol|
 --------------------------------------------------------


-------------------
GIBBS FREE ENERGY
-------------------

The Gibbs free energy is G = H - T*S

Total enthalpy                    ...  -2379.03667712 Eh 
Total entropy correction          ...     -0.14216329 Eh    -89.21 kcal/mol
-----------------------------------------------------------------------
Final Gibbs free energy         ...  -2379.17884041 Eh

For completeness - the Gibbs free energy minus the electronic energy
G-E(el)                           ...      0.89500660 Eh    561.62 kcal/mol

--------------------------------------------------------------------------
WARNING: No preset parameters were found for the device that Open MPI
detected:

  Local host:            eu-g1-015-2
  Device name:           mlx5_0
  Device vendor ID:      0x02c9
  Device vendor part ID: 4123

Default device parameters will be used, which may result in lower
performance.  You can edit any of the files specified by the
btl_openib_device_param_files MCA parameter to set values for your
device.

NOTE: You can turn off this warning by setting the MCA parameter
      btl_openib_warn_no_device_params_found to 0.
--------------------------------------------------------------------------
--------------------------------------------------------------------------
WARNING: There was an error initializing an OpenFabrics device.

  Local host:   eu-g1-015-2
  Local device: mlx5_0
--------------------------------------------------------------------------

Timings for individual modules:

Sum of individual times         ...    40498.473 sec (= 674.975 min)
GTO integral calculation        ...      136.951 sec (=   2.283 min)   0.3 %
SCF iterations                  ...     3506.801 sec (=  58.447 min)   8.7 %
SCF Gradient evaluation         ...     1233.763 sec (=  20.563 min)   3.0 %
Geometry relaxation             ...       56.150 sec (=   0.936 min)   0.1 %
Analytical frequency calculation...    35564.807 sec (= 592.747 min)  87.8 %
                             ****ORCA TERMINATED NORMALLY****
TOTAL RUN TIME: 0 days 11 hours 16 minutes 15 seconds 586 msec
