
                                 *****************
                                 * O   R   C   A *
                                 *****************

           --- An Ab Initio, DFT and Semiempirical electronic structure package ---

                  #######################################################
                  #                        -***-                        #
                  #          Department of theory and spectroscopy      #
                  #               Directorship: Frank Neese             #
                  #        Max Planck Institute fuer Kohlenforschung    #
                  #                Kaiser Wilhelm Platz 1               #
                  #                 D-45470 Muelheim/Ruhr               #
                  #                      Germany                        #
                  #                                                     #
                  #                  All rights reserved                #
                  #                        -***-                        #
                  #######################################################


                         Program Version 4.2.0 -  RELEASE  -


 With contributions from (in alphabetic order):
   Daniel Aravena         : Magnetic Suceptibility
   Michael Atanasov       : Ab Initio Ligand Field Theory (pilot matlab implementation)
   Alexander A. Auer      : GIAO ZORA, VPT2
   Ute Becker             : Parallelization
   Giovanni Bistoni       : ED, misc. LED, open-shell LED, HFLED
   Martin Brehm           : Molecular dynamics
   Dmytro Bykov           : SCF Hessian
   Vijay G. Chilkuri      : MRCI spin determinant printing, contributions to CSF-ICE
   Dipayan Datta          : RHF DLPNO-CCSD density
   Achintya Kumar Dutta   : EOM-CC, STEOM-CC
   Dmitry Ganyushin       : Spin-Orbit,Spin-Spin,Magnetic field MRCI
   Miquel Garcia          : C-PCM Hessian, Gaussian charge scheme
   Yang Guo               : DLPNO-NEVPT2, CIM, IAO-localization
   Andreas Hansen         : Spin unrestricted coupled pair/coupled cluster methods
   Benjamin Helmich-Paris : CASSCF linear response (MC-RPA)
   Lee Huntington         : MR-EOM, pCC
   Robert Izsak           : Overlap fitted RIJCOSX, COSX-SCS-MP3, EOM
   Christian Kollmar      : KDIIS, OOCD, Brueckner-CCSD(T), CCSD density
   Simone Kossmann        : Meta GGA functionals, TD-DFT gradient, OOMP2, MP2 Hessian
   Martin Krupicka        : AUTO-CI
   Lucas Lang             : DCDCAS
   Dagmar Lenk            : GEPOL surface, SMD
   Dimitrios Liakos       : Extrapolation schemes; Compound Job, initial MDCI parallelization
   Dimitrios Manganas     : Further ROCIS development; embedding schemes
   Dimitrios Pantazis     : SARC Basis sets
   Taras Petrenko         : DFT Hessian,TD-DFT gradient, ASA, ECA, R-Raman, ABS, FL, XAS/XES, NRVS
   Peter Pinski           : DLPNO-MP2, DLPNO-MP2 Gradient
   Christoph Reimann      : Effective Core Potentials
   Marius Retegan         : Local ZFS, SOC
   Christoph Riplinger    : Optimizer, TS searches, QM/MM, DLPNO-CCSD(T), (RO)-DLPNO pert. Triples
   Tobias Risthaus        : Range-separated hybrids, TD-DFT gradient, RPA, STAB
   Michael Roemelt        : Original ROCIS implementation
   Masaaki Saitow         : Open-shell DLPNO-CCSD energy and density
   Barbara Sandhoefer     : DKH picture change effects
   Avijit Sen             : IP-ROCIS
   Kantharuban Sivalingam : CASSCF convergence, NEVPT2, FIC-MRCI
   Bernardo de Souza      : ESD, SOC TD-DFT
   Georgi Stoychev        : AutoAux, RI-MP2 NMR
   Willem Van den Heuvel  : Paramagnetic NMR
   Boris Wezisla          : Elementary symmetry handling
   Frank Wennmohs         : Technical directorship


 We gratefully acknowledge several colleagues who have allowed us to
 interface, adapt or use parts of their codes:
   Stefan Grimme, W. Hujo, H. Kruse,             : VdW corrections, initial TS optimization,
                  C. Bannwarth                     DFT functionals, gCP, sTDA/sTD-DF
   Ed Valeev, F. Pavosevic, A. Kumar             : LibInt (2-el integral package), F12 methods
   Garnet Chan, S. Sharma, J. Yang, R. Olivares  : DMRG
   Ulf Ekstrom                                   : XCFun DFT Library
   Mihaly Kallay                                 : mrcc  (arbitrary order and MRCC methods)
   Andreas Klamt, Michael Diedenhofen            : otool_cosmo (COSMO solvation model)
   Jiri Pittner, Ondrej Demel                    : Mk-CCSD
   Frank Weinhold                                : gennbo (NPA and NBO analysis)
   Christopher J. Cramer and Donald G. Truhlar   : smd solvation model
   Lars Goerigk                                  : TD-DFT with DH, B97 family of functionals
   V. Asgeirsson, H. Jonsson                     : NEB implementation
   FAccTs GmbH                                   : IRC, NEB, NEB-TS, Multilevel, MM, QM/MM, CI optimization
   S Lehtola, MJT Oliveira, MAL Marques          : LibXC Library


 Your calculation uses the libint2 library for the computation of 2-el integrals
 For citations please refer to: http://libint.valeyev.net

 Your ORCA version has been built with support for libXC version: 4.2.3
 For citations please refer to: https://tddft.org/programs/libxc/

 This ORCA versions uses:
   CBLAS   interface :  Fast vector & matrix operations
   LAPACKE interface :  Fast linear algebra routines
   SCALAPACK package :  Parallel linear algebra routines




***************************************
The coordinates will be read from file: 26.xyz
***************************************


Your calculation utilizes the atom-pairwise dispersion correction
with the Becke-Johnson damping scheme (D3BJ)
Cite in your paper:
S.Grimme, S.Ehrlich, L.Goerigk, J Comput Chem, (2011), 32, 1456–1465 
S.Grimme, J.Antony, S.Ehrlich and H.Krieg, J.Chem.Phys., 132, (2010), 154104 
   

----- Orbital basis set information -----
Your calculation utilizes the basis: def2-TZVP
   F. Weigend and R. Ahlrichs, Phys. Chem. Chem. Phys. 7, 3297 (2005).

----- AuxJ basis set information -----
Your calculation utilizes the auxiliary basis: def2/J
   F. Weigend, Phys. Chem. Chem. Phys. 8, 1057 (2006).

================================================================================
                                        WARNINGS
                       Please study these warnings very carefully!
================================================================================


WARNING: Geometry Optimization
  ===> : Switching off AutoStart
         For restart on a previous wavefunction, please use MOREAD

INFO   : the flag for use of LIBINT has been found!

================================================================================
                                       INPUT FILE
================================================================================
NAME = 26.inp
|  1> !RI BP86 def2-tzvp def2/J D3BJ VeryTightSCF VeryTightOpt Grid5 FinalGrid6 freq
|  2> %maxcore 4000
|  3> %pal nprocs 24
|  4> end
|  5> * xyzfile 0 1 26.xyz 
|  6> 
|  7>                          ****END OF INPUT****
================================================================================

                       *****************************
                       * Geometry Optimization Run *
                       *****************************

Geometry optimization settings:
Update method            Update   .... BFGS
Choice of coordinates    CoordSys .... Z-matrix Internals
Initial Hessian          InHess   .... Almoef's Model

Convergence Tolerances:
Energy Change            TolE     ....  2.0000e-07 Eh
Max. Gradient            TolMAXG  ....  3.0000e-05 Eh/bohr
RMS Gradient             TolRMSG  ....  8.0000e-06 Eh/bohr
Max. Displacement        TolMAXD  ....  2.0000e-04 bohr
RMS Displacement         TolRMSD  ....  1.0000e-04 bohr
Strict Convergence                ....  False
------------------------------------------------------------------------------
                        ORCA OPTIMIZATION COORDINATE SETUP
------------------------------------------------------------------------------

The optimization will be done in new redundant internal coordinates
Making redundant internal coordinates   ...  (new redundants) done
Evaluating the initial hessian          ...  (Almloef) done
Evaluating the coordinates              ...  done
Calculating the B-matrix                .... done
Calculating the G-matrix                .... done
Diagonalizing the G-matrix              .... done
Small eigenvalue found = 3.325e-04
Small eigenvalue found = 2.198e-03
Small eigenvalue found = 2.985e-03
Small eigenvalue found = 3.207e-03
Small eigenvalue found = 4.530e-03
Small eigenvalue found = 5.629e-03
Small eigenvalue found = 7.008e-03
Small eigenvalue found = 8.616e-03
Small eigenvalue found = 8.967e-03
Small eigenvalue found = 1.036e-02
Small eigenvalue found = 1.217e-02
Small eigenvalue found = 1.367e-02
Small eigenvalue found = 1.620e-02
Small eigenvalue found = 1.750e-02
Small eigenvalue found = 1.988e-02
Small eigenvalue found = 2.179e-02
Small eigenvalue found = 2.683e-02
Small eigenvalue found = 2.853e-02
Small eigenvalue found = 2.998e-02
The first mode is                       ....  327
The number of degrees of freedom        ....  339

    -----------------------------------------------------------------
                    Redundant Internal Coordinates


    -----------------------------------------------------------------
         Definition                    Initial Value    Approx d2E/dq
    -----------------------------------------------------------------
      1. B(C   1,O   0)                  1.2229         1.033910   
      2. B(C   2,C   1)                  1.5397         0.360433   
      3. B(C   3,C   2)                  1.5408         0.358995   
      4. B(C   4,C   3)                  1.5343         0.367760   
      5. B(C   5,C   4)                  1.5321         0.370720   
      6. B(N   6,C   5)                  1.4767         0.407026   
      7. B(N   6,C   2)                  1.4760         0.408050   
      8. B(C   7,N   6)                  1.3633         0.617337   
      9. B(O   8,C   7)                  1.2352         0.988077   
     10. B(N   9,C   1)                  1.3795         0.581581   
     11. B(C  10,N   9)                  1.4718         0.414306   
     12. B(C  11,C  10)                  1.5350         0.366729   
     13. B(N  12,C  11)                  1.3525         0.642230   
     14. B(C  13,N  12)                  1.4495         0.449691   
     15. B(C  14,C  13)                  1.5384         0.362188   
     16. B(N  15,C  14)                  1.3562         0.633599   
     17. B(C  16,N  15)                  1.4531         0.443841   
     18. B(C  17,C  16)                  1.5258         0.379375   
     19. B(C  18,C  17)                  1.5452         0.353271   
     20. B(C  19,C  18)                  1.5325         0.370151   
     21. B(N  20,C  19)                  1.3599         0.624916   
     22. B(C  21,N  20)                  1.4559         0.439243   
     23. B(C  22,C  21)                  1.5427         0.356579   
     24. B(N  23,C  22)                  1.3557         0.634714   
     25. B(C  24,C   7)                  1.5376         0.363305   
     26. B(C  24,N  23)                  1.4642         0.426137   
     27. B(C  25,C  24)                  1.5250         0.380447   
     28. B(O  26,C  22)                  1.2344         0.991219   
     29. B(C  27,C  21)                  1.5336         0.368642   
     30. B(C  28,C  27)                  1.5386         0.361967   
     31. B(C  29,C  28)                  1.5331         0.369345   
     32. B(C  30,C  28)                  1.5308         0.372518   
     33. B(O  31,C  19)                  1.2346         0.990256   
     34. B(C  32,C  18)                  1.5418         0.357708   
     35. B(C  33,C  32)                  1.5124         0.398484   
     36. B(C  34,C  33)                  1.5252         0.380163   
     37. B(C  35,C  34)                  1.5294         0.374384   
     38. B(C  36,C  35)                  1.5294         0.374346   
     39. B(C  37,C  36)                  1.5297         0.373946   
     40. B(C  38,C  37)                  1.5301         0.373409   
     41. B(C  39,C  38)                  1.5301         0.373471   
     42. B(C  40,C  39)                  1.5310         0.372252   
     43. B(C  41,C  40)                  1.5298         0.373811   
     44. B(O  42,C  32)                  1.2178         1.053335   
     45. B(O  43,C  17)                  1.4449         0.457449   
     46. B(O  44,C  14)                  1.2313         1.002603   
     47. B(C  45,C  13)                  1.5419         0.357652   
     48. B(C  46,C  45)                  1.5272         0.377397   
     49. B(O  47,C  11)                  1.2428         0.961154   
     50. B(C  48,C  10)                  1.5492         0.348135   
     51. B(C  49,C  48)                  1.5312         0.371918   
     52. B(C  50,C  48)                  1.5315         0.371582   
     53. B(H  51,C   2)                  1.0999         0.347280   
     54. B(H  52,C   3)                  1.0961         0.352127   
     55. B(H  53,C   3)                  1.1003         0.346734   
     56. B(H  54,C   4)                  1.0967         0.351408   
     57. B(H  55,C   4)                  1.1006         0.346370   
     58. B(H  56,C   5)                  1.1017         0.344917   
     59. B(H  56,O  44)                  4.6151         0.000001   
     60. B(H  57,C   5)                  1.0973         0.350527   
     61. B(H  58,N   9)                  1.0206         0.416195   
     62. B(H  58,O  31)                  3.1840         0.000147   
     63. B(H  59,C  10)                  1.1029         0.343394   
     64. B(H  60,N  12)                  1.0231         0.412371   
     65. B(H  61,C  13)                  1.0998         0.347344   
     66. B(H  62,N  15)                  1.0163         0.422799   
     67. B(H  63,C  16)                  1.0970         0.351014   
     68. B(H  64,C  16)                  1.1015         0.345265   
     69. B(H  65,C  17)                  1.1023         0.344235   
     70. B(H  66,C  18)                  1.1053         0.340394   
     71. B(H  67,N  20)                  1.0145         0.425653   
     72. B(H  68,C  21)                  1.1004         0.346579   
     73. B(H  69,H  60)                  4.4724         0.000000   
     74. B(H  69,N  23)                  1.0250         0.409509   
     75. B(H  70,C  24)                  1.0986         0.348840   
     76. B(H  71,C  25)                  1.0979         0.349758   
     77. B(H  72,C  25)                  1.0984         0.349185   
     78. B(H  73,C  25)                  1.0970         0.350941   
     79. B(H  74,C  27)                  1.1019         0.344678   
     80. B(H  75,C  27)                  1.1032         0.343016   
     81. B(H  76,C  28)                  1.1059         0.339695   
     82. B(H  77,C  29)                  1.1000         0.347108   
     83. B(H  78,C  29)                  1.1011         0.345666   
     84. B(H  79,C  29)                  1.0994         0.347930   
     85. B(H  80,H  61)                  2.0702         0.001882   
     86. B(H  80,C  30)                  1.0980         0.349729   
     87. B(H  81,C  30)                  1.0994         0.347862   
     88. B(H  82,C  30)                  1.1003         0.346714   
     89. B(H  83,C  33)                  1.1076         0.337572   
     90. B(H  84,C  33)                  1.1042         0.341806   
     91. B(H  85,H  54)                  2.1435         0.001438   
     92. B(H  85,C  34)                  1.1008         0.346134   
     93. B(H  86,C  34)                  1.1006         0.346386   
     94. B(H  87,C  35)                  1.1043         0.341705   
     95. B(H  88,C  35)                  1.1040         0.342101   
     96. B(H  89,C  36)                  1.1041         0.341950   
     97. B(H  90,C  36)                  1.1040         0.342032   
     98. B(H  91,C  37)                  1.1042         0.341766   
     99. B(H  92,H  70)                  4.3397         0.000000   
    100. B(H  92,C  37)                  1.1045         0.341360   
    101. B(H  93,C  38)                  1.1045         0.341406   
    102. B(H  94,C  38)                  1.1043         0.341637   
    103. B(H  95,C  39)                  1.1045         0.341358   
    104. B(H  96,C  39)                  1.1046         0.341334   
    105. B(H  97,C  40)                  1.1034         0.342805   
    106. B(H  98,C  40)                  1.1034         0.342774   
    107. B(H  99,C  41)                  1.0994         0.347866   
    108. B(H 100,C  41)                  1.1007         0.346209   
    109. B(H 101,C  41)                  1.1008         0.346146   
    110. B(H 102,O  43)                  0.9717         0.498140   
    111. B(H 103,C  45)                  1.1019         0.344730   
    112. B(H 104,C  45)                  1.1019         0.344754   
    113. B(H 105,C  46)                  1.0987         0.348737   
    114. B(H 106,C  46)                  1.0987         0.348737   
    115. B(H 107,C  46)                  1.0983         0.349335   
    116. B(H 108,C  48)                  1.0993         0.347980   
    117. B(H 109,C  49)                  1.0990         0.348406   
    118. B(H 110,C  49)                  1.1001         0.347024   
    119. B(H 111,C  49)                  1.0990         0.348448   
    120. B(H 112,C  50)                  1.0997         0.347524   
    121. B(H 113,C  50)                  1.0989         0.348540   
    122. B(H 114,C  50)                  1.1014         0.345378   
    123. A(O   0,C   1,N   9)          124.8305         0.464582   
    124. A(C   2,C   1,N   9)          113.0719         0.387338   
    125. A(O   0,C   1,C   2)          122.0348         0.428832   
    126. A(C   1,C   2,H  51)          105.4611         0.320512   
    127. A(N   6,C   2,H  51)          110.4199         0.325147   
    128. A(C   1,C   2,N   6)          111.8394         0.364344   
    129. A(C   1,C   2,C   3)          113.9922         0.358696   
    130. A(C   3,C   2,H  51)          112.1604         0.320302   
    131. A(C   3,C   2,N   6)          103.1095         0.364095   
    132. A(C   4,C   3,H  53)          109.8404         0.321486   
    133. A(C   4,C   3,H  52)          113.8021         0.322300   
    134. A(C   2,C   3,C   4)          103.6088         0.359927   
    135. A(C   2,C   3,H  53)          109.9016         0.320220   
    136. A(C   2,C   3,H  52)          111.6551         0.321029   
    137. A(H  52,C   3,H  53)          107.9769         0.288107   
    138. A(H  54,C   4,H  55)          108.1448         0.287968   
    139. A(C   3,C   4,H  55)          110.4079         0.321431   
    140. A(C   3,C   4,C   5)          103.2625         0.361905   
    141. A(C   3,C   4,H  54)          112.6580         0.322192   
    142. A(C   5,C   4,H  55)          110.0899         0.321853   
    143. A(C   5,C   4,H  54)          112.2397         0.322615   
    144. A(H  56,C   5,H  57)          108.1154         0.287666   
    145. A(C   4,C   5,N   6)          102.4928         0.365946   
    146. A(C   4,C   5,H  56)          111.4862         0.321631   
    147. A(N   6,C   5,H  57)          110.8777         0.325510   
    148. A(N   6,C   5,H  56)          110.9119         0.324648   
    149. A(C   4,C   5,H  57)          112.9316         0.322482   
    150. A(C   5,N   6,C   7)          128.3471         0.397273   
    151. A(C   2,N   6,C   7)          118.9649         0.397448   
    152. A(C   2,N   6,C   5)          112.6422         0.369697   
    153. A(O   8,C   7,C  24)          120.9392         0.425967   
    154. A(N   6,C   7,O   8)          121.4902         0.465802   
    155. A(N   6,C   7,C  24)          117.4037         0.391938   
    156. A(C   1,N   9,C  10)          122.1807         0.394360   
    157. A(C  10,N   9,H  58)          112.7634         0.332995   
    158. A(C   1,N   9,H  58)          113.1016         0.352462   
    159. A(C  48,C  10,H  59)          107.0476         0.318116   
    160. A(C  11,C  10,H  59)          105.0442         0.320830   
    161. A(N   9,C  10,C  11)          105.5510         0.366379   
    162. A(N   9,C  10,C  48)          114.2689         0.363131   
    163. A(N   9,C  10,H  59)          108.7314         0.325359   
    164. A(C  11,C  10,C  48)          115.6802         0.357879   
    165. A(N  12,C  11,O  47)          123.7334         0.466818   
    166. A(C  10,C  11,O  47)          121.5199         0.424578   
    167. A(C  10,C  11,N  12)          114.7110         0.395310   
    168. A(C  13,N  12,H  60)          113.3555         0.337044   
    169. A(C  11,N  12,C  13)          124.3205         0.407141   
    170. A(C  11,N  12,H  60)          118.2655         0.357882   
    171. A(C  14,C  13,C  45)          111.3444         0.358763   
    172. A(N  12,C  13,H  61)          107.5036         0.330408   
    173. A(C  14,C  13,H  61)          109.9410         0.320776   
    174. A(N  12,C  13,C  14)          106.3872         0.370776   
    175. A(C  45,C  13,H  61)          109.2881         0.320116   
    176. A(N  12,C  13,C  45)          112.2692         0.369974   
    177. A(C  13,C  14,N  15)          114.8430         0.393513   
    178. A(N  15,C  14,O  44)          123.9003         0.469280   
    179. A(C  13,C  14,O  44)          121.2517         0.426846   
    180. A(C  14,N  15,H  62)          119.4100         0.358579   
    181. A(C  16,N  15,H  62)          116.7864         0.337712   
    182. A(C  14,N  15,C  16)          122.4916         0.405229   
    183. A(H  63,C  16,H  64)          108.4167         0.287774   
    184. A(C  17,C  16,H  64)          108.2706         0.322903   
    185. A(N  15,C  16,H  63)          108.2021         0.330267   
    186. A(C  17,C  16,H  63)          110.6109         0.323779   
    187. A(N  15,C  16,C  17)          110.4984         0.372906   
    188. A(N  15,C  16,H  64)          110.8273         0.329367   
    189. A(O  43,C  17,H  65)          110.5311         0.330852   
    190. A(C  18,C  17,H  65)          107.0152         0.319004   
    191. A(C  16,C  17,H  65)          107.0507         0.322745   
    192. A(C  16,C  17,C  18)          116.0041         0.360850   
    193. A(C  18,C  17,O  43)          110.3342         0.370278   
    194. A(C  16,C  17,O  43)          105.8538         0.374853   
    195. A(C  19,C  18,H  66)          108.0909         0.320857   
    196. A(C  17,C  18,H  66)          106.8871         0.318420   
    197. A(C  17,C  18,C  32)          113.1268         0.357255   
    198. A(C  17,C  18,C  19)          115.3489         0.359339   
    199. A(C  19,C  18,C  32)          106.6916         0.360104   
    200. A(C  32,C  18,H  66)          106.2416         0.319069   
    201. A(C  18,C  19,N  20)          115.8807         0.394062   
    202. A(N  20,C  19,O  31)          122.3304         0.467032   
    203. A(C  18,C  19,O  31)          121.7708         0.427562   
    204. A(C  19,N  20,H  67)          117.9437         0.358148   
    205. A(C  19,N  20,C  21)          120.3639         0.403501   
    206. A(C  21,N  20,H  67)          117.6550         0.337505   
    207. A(C  27,C  21,H  68)          109.8778         0.321588   
    208. A(C  22,C  21,H  68)          108.6965         0.319844   
    209. A(N  20,C  21,H  68)          109.7014         0.329007   
    210. A(N  20,C  21,C  22)          109.1064         0.368293   
    211. A(C  22,C  21,C  27)          109.0531         0.359660   
    212. A(N  20,C  21,C  27)          110.3743         0.370404   
    213. A(C  21,C  22,N  23)          114.1695         0.392560   
    214. A(C  21,C  22,O  26)          121.5605         0.424785   
    215. A(N  23,C  22,O  26)          124.2062         0.468449   
    216. A(C  22,N  23,C  24)          121.7695         0.402454   
    217. A(C  24,N  23,H  69)          119.4697         0.333656   
    218. A(C  22,N  23,H  69)          118.7600         0.356744   
    219. A(C  25,C  24,H  70)          110.1995         0.323599   
    220. A(N  23,C  24,H  70)          104.8807         0.327718   
    221. A(C   7,C  24,H  70)          111.0037         0.321163   
    222. A(N  23,C  24,C  25)          111.8527         0.370482   
    223. A(C   7,C  24,N  23)          107.3787         0.367560   
    224. A(C   7,C  24,C  25)          111.3215         0.362753   
    225. A(H  71,C  25,H  73)          109.6619         0.288347   
    226. A(C  24,C  25,H  73)          110.5347         0.323918   
    227. A(H  71,C  25,H  72)          108.8659         0.288121   
    228. A(C  24,C  25,H  72)          110.4028         0.323651   
    229. A(C  24,C  25,H  71)          109.6211         0.323738   
    230. A(H  72,C  25,H  73)          107.7154         0.288273   
    231. A(C  28,C  27,H  75)          109.7996         0.320087   
    232. A(C  21,C  27,C  28)          115.6791         0.360580   
    233. A(H  74,C  27,H  75)          106.5812         0.286663   
    234. A(C  21,C  27,H  75)          108.3143         0.321045   
    235. A(C  28,C  27,H  74)          108.7624         0.320340   
    236. A(C  21,C  27,H  74)          107.3075         0.321299   
    237. A(C  29,C  28,C  30)          111.1452         0.362470   
    238. A(C  27,C  28,C  30)          112.1789         0.361224   
    239. A(C  27,C  28,C  29)          109.5128         0.360697   
    240. A(C  30,C  28,H  76)          107.7610         0.321083   
    241. A(C  29,C  28,H  76)          107.4833         0.320634   
    242. A(C  27,C  28,H  76)          108.6009         0.319579   
    243. A(C  28,C  29,H  79)          111.1233         0.321894   
    244. A(H  78,C  29,H  79)          107.7078         0.287429   
    245. A(H  77,C  29,H  79)          108.0268         0.287616   
    246. A(H  77,C  29,H  78)          107.7384         0.287323   
    247. A(C  28,C  29,H  78)          110.5828         0.321550   
    248. A(C  28,C  29,H  77)          111.5057         0.321769   
    249. A(H  81,C  30,H  82)          108.1879         0.287556   
    250. A(H  80,C  30,H  82)          107.1504         0.287797   
    251. A(C  28,C  30,H  82)          111.0467         0.322160   
    252. A(H  80,C  30,H  81)          107.6812         0.287946   
    253. A(C  28,C  30,H  81)          110.8648         0.322335   
    254. A(C  28,C  30,H  80)          111.7343         0.322618   
    255. A(C  33,C  32,O  42)          123.9372         0.438107   
    256. A(C  18,C  32,O  42)          121.4840         0.429681   
    257. A(C  18,C  32,C  33)          114.5714         0.364668   
    258. A(C  32,C  33,C  34)          114.3661         0.368493   
    259. A(C  34,C  33,H  84)          110.8192         0.322480   
    260. A(H  83,C  33,H  84)          104.8675         0.285576   
    261. A(C  32,C  33,H  84)          109.0932         0.324981   
    262. A(C  34,C  33,H  83)          110.7153         0.321822   
    263. A(C  32,C  33,H  83)          106.4671         0.324316   
    264. A(C  33,C  34,C  35)          112.1745         0.364574   
    265. A(H  85,C  34,H  86)          105.6668         0.287290   
    266. A(C  35,C  34,H  86)          110.6695         0.322374   
    267. A(C  33,C  34,H  86)          110.2673         0.323185   
    268. A(C  35,C  34,H  85)          109.5170         0.322336   
    269. A(C  33,C  34,H  85)          108.3077         0.323146   
    270. A(C  34,C  35,C  36)          113.2022         0.363614   
    271. A(H  87,C  35,H  88)          105.6117         0.286157   
    272. A(C  36,C  35,H  88)          109.4332         0.321712   
    273. A(C  34,C  35,H  88)          108.9627         0.321718   
    274. A(C  36,C  35,H  87)          109.5632         0.321651   
    275. A(C  34,C  35,H  87)          109.7855         0.321656   
    276. A(C  35,C  36,C  37)          113.4508         0.363541   
    277. A(H  89,C  36,H  90)          105.7712         0.286180   
    278. A(C  37,C  36,H  90)          109.5295         0.321645   
    279. A(C  35,C  36,H  90)          109.5755         0.321702   
    280. A(C  37,C  36,H  89)          109.1386         0.321633   
    281. A(C  35,C  36,H  89)          109.0871         0.321689   
    282. A(C  36,C  37,C  38)          113.4952         0.363386   
    283. A(H  91,C  37,H  92)          105.8253         0.286068   
    284. A(C  38,C  37,H  92)          109.2637         0.321466   
    285. A(C  36,C  37,H  92)          109.1738         0.321542   
    286. A(C  38,C  37,H  91)          109.3847         0.321529   
    287. A(C  36,C  37,H  91)          109.4126         0.321604   
    288. A(C  37,C  38,C  39)          113.5630         0.363307   
    289. A(H  93,C  38,H  94)          105.8638         0.286057   
    290. A(C  39,C  38,H  94)          109.3267         0.321518   
    291. A(C  37,C  38,H  94)          109.3063         0.321509   
    292. A(C  39,C  38,H  93)          109.2625         0.321482   
    293. A(C  37,C  38,H  93)          109.2316         0.321473   
    294. A(C  38,C  39,C  40)          113.5871         0.363114   
    295. A(H  95,C  39,H  96)          105.8593         0.286011   
    296. A(C  40,C  39,H  96)          109.2352         0.321299   
    297. A(C  38,C  39,H  96)          109.3038         0.321471   
    298. A(C  40,C  39,H  95)          109.2538         0.321303   
    299. A(C  38,C  39,H  95)          109.3126         0.321474   
    300. A(C  39,C  40,C  41)          113.1301         0.363171   
    301. A(H  97,C  40,H  98)          105.9384         0.286388   
    302. A(C  41,C  40,H  98)          109.6445         0.321740   
    303. A(C  39,C  40,H  98)          109.1266         0.321520   
    304. A(C  41,C  40,H  97)          109.6258         0.321745   
    305. A(C  39,C  40,H  97)          109.1208         0.321525   
    306. A(H 100,C  41,H 101)          107.4500         0.287269   
    307. A(H  99,C  41,H 101)          107.6933         0.287483   
    308. A(C  40,C  41,H 101)          111.0905         0.322257   
    309. A(H  99,C  41,H 100)          107.6837         0.287491   
    310. A(C  40,C  41,H 100)          111.0851         0.322266   
    311. A(C  40,C  41,H  99)          111.6467         0.322518   
    312. A(C  17,O  43,H 102)          108.4092         0.348887   
    313. A(C  13,C  45,C  46)          112.8145         0.361287   
    314. A(C  46,C  45,H 104)          110.5346         0.322548   
    315. A(C  13,C  45,H 104)          108.2074         0.319725   
    316. A(C  46,C  45,H 103)          110.2677         0.322545   
    317. A(C  13,C  45,H 103)          108.2954         0.319721   
    318. A(H 103,C  45,H 104)          106.4862         0.286896   
    319. A(H 106,C  46,H 107)          107.4260         0.288008   
    320. A(H 105,C  46,H 107)          107.8997         0.288008   
    321. A(C  45,C  46,H 107)          110.9663         0.323247   
    322. A(H 105,C  46,H 106)          108.2865         0.287931   
    323. A(C  45,C  46,H 106)          111.3151         0.323156   
    324. A(C  45,C  46,H 105)          110.8014         0.323156   
    325. A(C  50,C  48,H 108)          108.7657         0.322220   
    326. A(C  49,C  48,H 108)          107.0157         0.322267   
    327. A(C  10,C  48,H 108)          103.8218         0.318805   
    328. A(C  49,C  48,C  50)          111.8609         0.362744   
    329. A(C  10,C  48,C  50)          109.6016         0.358680   
    330. A(C  10,C  48,C  49)          115.2657         0.358735   
    331. A(H 110,C  49,H 111)          107.0515         0.287672   
    332. A(H 109,C  49,H 111)          107.5009         0.287851   
    333. A(C  48,C  49,H 111)          109.5877         0.322339   
    334. A(H 109,C  49,H 110)          108.8763         0.287667   
    335. A(C  48,C  49,H 110)          112.2310         0.322122   
    336. A(C  48,C  49,H 109)          111.3914         0.322332   
    337. A(H 113,C  50,H 114)          107.5433         0.287470   
    338. A(H 112,C  50,H 114)          107.7830         0.287339   
    339. A(C  48,C  50,H 114)          111.2925         0.321824   
    340. A(H 112,C  50,H 113)          107.9829         0.287749   
    341. A(C  48,C  50,H 113)          110.4670         0.322305   
    342. A(C  48,C  50,H 112)          111.6070         0.322151   
    343. D(H  51,C   2,C   1,N   9)   -163.4498         0.009767   
    344. D(C   3,C   2,C   1,N   9)     73.0819         0.009767   
    345. D(N   6,C   2,C   1,N   9)    -43.3944         0.009767   
    346. D(N   6,C   2,C   1,O   0)    139.3568         0.009767   
    347. D(C   3,C   2,C   1,O   0)   -104.1669         0.009767   
    348. D(H  51,C   2,C   1,O   0)     19.3014         0.009767   
    349. D(C   4,C   3,C   2,N   6)    -27.9844         0.010344   
    350. D(H  53,C   3,C   2,H  51)   -151.8665         0.010344   
    351. D(H  53,C   3,C   2,C   1)    -32.1085         0.010344   
    352. D(C   4,C   3,C   2,H  51)     90.8092         0.010344   
    353. D(H  53,C   3,C   2,N   6)     89.3399         0.010344   
    354. D(H  52,C   3,C   2,H  51)    -32.0713         0.010344   
    355. D(C   4,C   3,C   2,C   1)   -149.4329         0.010344   
    356. D(H  52,C   3,C   2,C   1)     87.6867         0.010344   
    357. D(H  52,C   3,C   2,N   6)   -150.8649         0.010344   
    358. D(H  55,C   4,C   3,H  53)    163.7035         0.010820   
    359. D(H  55,C   4,C   3,H  52)     42.5209         0.010820   
    360. D(H  54,C   4,C   3,H  52)    -78.5017         0.010820   
    361. D(H  55,C   4,C   3,C   2)    -78.9293         0.010820   
    362. D(H  54,C   4,C   3,H  53)     42.6809         0.010820   
    363. D(C   5,C   4,C   3,C   2)     38.7313         0.010820   
    364. D(H  54,C   4,C   3,C   2)    160.0480         0.010820   
    365. D(C   5,C   4,C   3,H  53)    -78.6358         0.010820   
    366. D(C   5,C   4,C   3,H  52)    160.1816         0.010820   
    367. D(N   6,C   5,C   4,C   3)    -33.7640         0.010984   
    368. D(H  57,C   5,C   4,C   3)   -153.1094         0.010984   
    369. D(H  56,C   5,C   4,H  55)   -157.1883         0.010984   
    370. D(H  56,C   5,C   4,C   3)     84.9284         0.010984   
    371. D(H  57,C   5,C   4,H  54)     85.2914         0.010984   
    372. D(H  56,C   5,C   4,H  54)    -36.6708         0.010984   
    373. D(H  57,C   5,C   4,H  55)    -35.2261         0.010984   
    374. D(N   6,C   5,C   4,H  54)   -155.3632         0.010984   
    375. D(N   6,C   5,C   4,H  55)     84.1194         0.010984   
    376. D(C   5,N   6,C   2,C   3)      6.9338         0.014206   
    377. D(C   7,N   6,C   5,H  57)    -44.8424         0.014136   
    378. D(C   7,N   6,C   5,H  56)     75.2891         0.014136   
    379. D(C   7,N   6,C   5,C   4)   -165.6150         0.014136   
    380. D(C   2,N   6,C   5,H  57)    137.6764         0.014136   
    381. D(C   2,N   6,C   5,H  56)   -102.1921         0.014136   
    382. D(C   7,N   6,C   2,H  51)     69.1939         0.014206   
    383. D(C   2,N   6,C   5,C   4)     16.9038         0.014136   
    384. D(C   7,N   6,C   2,C   3)   -170.8085         0.014206   
    385. D(C   5,N   6,C   2,C   1)    129.8290         0.014206   
    386. D(C   7,N   6,C   2,C   1)    -47.9133         0.014206   
    387. D(C   5,N   6,C   2,H  51)   -113.0638         0.014206   
    388. D(C  24,C   7,N   6,C   5)     -6.3326         0.030839   
    389. D(C  24,C   7,N   6,C   2)    171.0103         0.030839   
    390. D(O   8,C   7,N   6,C   5)    178.3208         0.030839   
    391. D(O   8,C   7,N   6,C   2)     -4.3363         0.030839   
    392. D(H  58,N   9,C   1,O   0)   -176.1381         0.027138   
    393. D(C  10,N   9,C   1,C   2)    146.6493         0.027138   
    394. D(H  58,N   9,C   1,C   2)      6.7032         0.027138   
    395. D(C  10,N   9,C   1,O   0)    -36.1921         0.027138   
    396. D(H  59,C  10,N   9,C   1)    -55.0391         0.014640   
    397. D(C  48,C  10,N   9,H  58)   -155.4709         0.014640   
    398. D(C  48,C  10,N   9,C   1)     64.4630         0.014640   
    399. D(C  11,C  10,N   9,C   1)   -167.3021         0.014640   
    400. D(H  59,C  10,N   9,H  58)     85.0270         0.014640   
    401. D(C  11,C  10,N   9,H  58)    -27.2360         0.014640   
    402. D(O  47,C  11,C  10,N   9)    111.1942         0.010084   
    403. D(N  12,C  11,C  10,H  59)    178.4621         0.010084   
    404. D(N  12,C  11,C  10,C  48)     60.6820         0.010084   
    405. D(N  12,C  11,C  10,N   9)    -66.7057         0.010084   
    406. D(O  47,C  11,C  10,H  59)     -3.6379         0.010084   
    407. D(O  47,C  11,C  10,C  48)   -121.4180         0.010084   
    408. D(H  60,N  12,C  11,O  47)   -164.0651         0.033591   
    409. D(H  60,N  12,C  11,C  10)     13.7822         0.033591   
    410. D(C  13,N  12,C  11,O  47)     -8.2759         0.033591   
    411. D(C  13,N  12,C  11,C  10)    169.5715         0.033591   
    412. D(H  61,C  13,N  12,C  11)    -11.5862         0.017251   
    413. D(H  61,C  13,N  12,H  60)    145.2456         0.017251   
    414. D(C  45,C  13,N  12,H  60)    -94.5281         0.017251   
    415. D(C  45,C  13,N  12,C  11)    108.6401         0.017251   
    416. D(C  14,C  13,N  12,C  11)   -129.3283         0.017251   
    417. D(C  14,C  13,N  12,H  60)     27.5034         0.017251   
    418. D(O  44,C  14,C  13,C  45)    101.7593         0.009855   
    419. D(O  44,C  14,C  13,N  12)    -20.8571         0.009855   
    420. D(N  15,C  14,C  13,H  61)     43.8170         0.009855   
    421. D(N  15,C  14,C  13,C  45)    -77.4508         0.009855   
    422. D(O  44,C  14,C  13,H  61)   -136.9729         0.009855   
    423. D(N  15,C  14,C  13,N  12)    159.9328         0.009855   
    424. D(H  62,N  15,C  14,O  44)    178.5548         0.032621   
    425. D(H  62,N  15,C  14,C  13)     -2.2588         0.032621   
    426. D(C  16,N  15,C  14,O  44)     12.0613         0.032621   
    427. D(C  16,N  15,C  14,C  13)   -168.7523         0.032621   
    428. D(H  64,C  16,N  15,H  62)     88.4981         0.016800   
    429. D(H  64,C  16,N  15,C  14)   -104.6762         0.016800   
    430. D(H  63,C  16,N  15,H  62)   -152.7573         0.016800   
    431. D(H  63,C  16,N  15,C  14)     14.0684         0.016800   
    432. D(C  17,C  16,N  15,C  14)    135.3030         0.016800   
    433. D(C  17,C  16,N  15,H  62)    -31.5227         0.016800   
    434. D(H  65,C  17,C  16,H  64)     48.5971         0.011473   
    435. D(H  65,C  17,C  16,H  63)    -70.0633         0.011473   
    436. D(H  65,C  17,C  16,N  15)    170.1420         0.011473   
    437. D(O  43,C  17,C  16,H  64)    -69.3361         0.011473   
    438. D(O  43,C  17,C  16,H  63)    172.0035         0.011473   
    439. D(O  43,C  17,C  16,N  15)     52.2088         0.011473   
    440. D(C  18,C  17,C  16,H  64)    167.9488         0.011473   
    441. D(C  18,C  17,C  16,H  63)     49.2885         0.011473   
    442. D(C  18,C  17,C  16,N  15)    -70.5062         0.011473   
    443. D(H  66,C  18,C  17,H  65)    -78.4582         0.010040   
    444. D(H  66,C  18,C  17,O  43)     41.8436         0.010040   
    445. D(H  66,C  18,C  17,C  16)    162.1708         0.010040   
    446. D(C  32,C  18,C  17,O  43)    158.4262         0.010040   
    447. D(C  32,C  18,C  17,C  16)    -81.2466         0.010040   
    448. D(C  32,C  18,C  17,H  65)     38.1245         0.010040   
    449. D(C  19,C  18,C  17,H  65)    161.3491         0.010040   
    450. D(C  19,C  18,C  17,O  43)    -78.3492         0.010040   
    451. D(C  19,C  18,C  17,C  16)     41.9780         0.010040   
    452. D(O  31,C  19,C  18,H  66)    152.6484         0.010259   
    453. D(O  31,C  19,C  18,C  32)     38.7491         0.010259   
    454. D(O  31,C  19,C  18,C  17)    -87.8195         0.010259   
    455. D(N  20,C  19,C  18,H  66)    -25.8375         0.010259   
    456. D(N  20,C  19,C  18,C  17)     93.6946         0.010259   
    457. D(N  20,C  19,C  18,C  32)   -139.7368         0.010259   
    458. D(H  67,N  20,C  19,O  31)   -169.7200         0.031662   
    459. D(H  67,N  20,C  19,C  18)      8.7566         0.031662   
    460. D(C  21,N  20,C  19,O  31)    -12.8389         0.031662   
    461. D(C  21,N  20,C  19,C  18)    165.6377         0.031662   
    462. D(H  68,C  21,N  20,H  67)   -133.5215         0.016451   
    463. D(H  68,C  21,N  20,C  19)     69.5324         0.016451   
    464. D(C  27,C  21,N  20,H  67)    -12.3070         0.016451   
    465. D(C  27,C  21,N  20,C  19)   -169.2530         0.016451   
    466. D(C  22,C  21,N  20,H  67)    107.5068         0.016451   
    467. D(C  22,C  21,N  20,C  19)    -49.4393         0.016451   
    468. D(N  23,C  22,C  21,C  27)    -96.8668         0.009576   
    469. D(N  23,C  22,C  21,N  20)    142.5067         0.009576   
    470. D(O  26,C  22,C  21,H  68)   -159.8780         0.009576   
    471. D(O  26,C  22,C  21,C  27)     80.3441         0.009576   
    472. D(O  26,C  22,C  21,N  20)    -40.2824         0.009576   
    473. D(N  23,C  22,C  21,H  68)     22.9110         0.009576   
    474. D(H  69,N  23,C  22,O  26)    178.2920         0.032745   
    475. D(H  69,N  23,C  22,C  21)     -4.5817         0.032745   
    476. D(C  24,N  23,C  22,O  26)     -2.0282         0.032745   
    477. D(C  24,N  23,C  22,C  21)    175.0981         0.032745   
    478. D(H  70,C  24,N  23,H  69)   -169.5492         0.015482   
    479. D(H  70,C  24,N  23,C  22)     10.7732         0.015482   
    480. D(C  25,C  24,N  23,H  69)     71.0119         0.015482   
    481. D(C  25,C  24,N  23,C  22)   -108.6657         0.015482   
    482. D(C   7,C  24,N  23,H  69)    -51.4002         0.015482   
    483. D(C   7,C  24,N  23,C  22)    128.9223         0.015482   
    484. D(H  70,C  24,C   7,O   8)   -149.2394         0.009911   
    485. D(H  70,C  24,C   7,N   6)     35.3870         0.009911   
    486. D(C  25,C  24,C   7,O   8)    -26.0850         0.009911   
    487. D(C  25,C  24,C   7,N   6)    158.5413         0.009911   
    488. D(N  23,C  24,C   7,O   8)     96.6560         0.009911   
    489. D(N  23,C  24,C   7,N   6)    -78.7177         0.009911   
    490. D(H  73,C  25,C  24,H  70)   -179.2664         0.011534   
    491. D(H  73,C  25,C  24,N  23)    -63.0112         0.011534   
    492. D(H  73,C  25,C  24,C   7)     57.1204         0.011534   
    493. D(H  72,C  25,C  24,H  70)     61.6550         0.011534   
    494. D(H  72,C  25,C  24,N  23)    177.9102         0.011534   
    495. D(H  72,C  25,C  24,C   7)    -61.9582         0.011534   
    496. D(H  71,C  25,C  24,H  70)    -58.2701         0.011534   
    497. D(H  71,C  25,C  24,N  23)     57.9852         0.011534   
    498. D(H  71,C  25,C  24,C   7)    178.1168         0.011534   
    499. D(H  75,C  27,C  21,H  68)   -172.8981         0.010869   
    500. D(H  75,C  27,C  21,C  22)    -53.8536         0.010869   
    501. D(H  75,C  27,C  21,N  20)     65.9923         0.010869   
    502. D(H  74,C  27,C  21,H  68)    -58.1899         0.010869   
    503. D(H  74,C  27,C  21,C  22)     60.8546         0.010869   
    504. D(H  74,C  27,C  21,N  20)   -179.2995         0.010869   
    505. D(C  28,C  27,C  21,H  68)     63.3874         0.010869   
    506. D(C  28,C  27,C  21,C  22)   -177.5681         0.010869   
    507. D(C  28,C  27,C  21,N  20)    -57.7222         0.010869   
    508. D(H  76,C  28,C  27,H  75)    -60.1328         0.010504   
    509. D(H  76,C  28,C  27,H  74)   -176.4040         0.010504   
    510. D(H  76,C  28,C  27,C  21)     62.8013         0.010504   
    511. D(C  30,C  28,C  27,H  75)   -179.1307         0.010504   
    512. D(C  30,C  28,C  27,H  74)     64.5980         0.010504   
    513. D(C  30,C  28,C  27,C  21)    -56.1966         0.010504   
    514. D(C  29,C  28,C  27,H  75)     56.9685         0.010504   
    515. D(C  29,C  28,C  27,H  74)    -59.3027         0.010504   
    516. D(C  29,C  28,C  27,C  21)    179.9027         0.010504   
    517. D(H  79,C  29,C  28,C  30)     58.8106         0.010907   
    518. D(H  79,C  29,C  28,C  27)   -176.6846         0.010907   
    519. D(H  78,C  29,C  28,H  76)   -178.4458         0.010907   
    520. D(H  78,C  29,C  28,C  30)    -60.7528         0.010907   
    521. D(H  78,C  29,C  28,C  27)     63.7520         0.010907   
    522. D(H  77,C  29,C  28,H  76)     61.7017         0.010907   
    523. D(H  77,C  29,C  28,C  30)    179.3948         0.010907   
    524. D(H  79,C  29,C  28,H  76)    -58.8824         0.010907   
    525. D(H  77,C  29,C  28,C  27)    -56.1004         0.010907   
    526. D(H  82,C  30,C  28,H  76)   -175.8216         0.011084   
    527. D(H  82,C  30,C  28,C  29)     66.6540         0.011084   
    528. D(H  82,C  30,C  28,C  27)    -56.3310         0.011084   
    529. D(H  81,C  30,C  28,H  76)     63.8745         0.011084   
    530. D(H  81,C  30,C  28,C  29)    -53.6499         0.011084   
    531. D(H  81,C  30,C  28,C  27)   -176.6349         0.011084   
    532. D(H  80,C  30,C  28,H  76)    -56.2483         0.011084   
    533. D(H  80,C  30,C  28,C  29)   -173.7727         0.011084   
    534. D(H  80,C  30,C  28,C  27)     63.2423         0.011084   
    535. D(O  42,C  32,C  18,H  66)    128.2916         0.009632   
    536. D(O  42,C  32,C  18,C  19)   -116.5569         0.009632   
    537. D(O  42,C  32,C  18,C  17)     11.3284         0.009632   
    538. D(C  33,C  32,C  18,H  66)    -50.7521         0.009632   
    539. D(C  33,C  32,C  18,C  19)     64.3993         0.009632   
    540. D(C  33,C  32,C  18,C  17)   -167.7153         0.009632   
    541. D(H  84,C  33,C  32,O  42)    145.1887         0.011788   
    542. D(H  84,C  33,C  32,C  18)    -35.7942         0.011788   
    543. D(H  83,C  33,C  32,O  42)   -102.1395         0.011788   
    544. D(H  83,C  33,C  32,C  18)     76.8776         0.011788   
    545. D(C  34,C  33,C  32,O  42)     20.4621         0.011788   
    546. D(C  34,C  33,C  32,C  18)   -160.5208         0.011788   
    547. D(H  86,C  34,C  33,H  84)    171.6959         0.011518   
    548. D(H  86,C  34,C  33,H  83)     55.7654         0.011518   
    549. D(H  86,C  34,C  33,C  32)    -64.4975         0.011518   
    550. D(H  85,C  34,C  33,H  84)    -73.1287         0.011518   
    551. D(H  85,C  34,C  33,H  83)    170.9408         0.011518   
    552. D(H  85,C  34,C  33,C  32)     50.6780         0.011518   
    553. D(C  35,C  34,C  33,H  84)     47.8592         0.011518   
    554. D(C  35,C  34,C  33,H  83)    -68.0713         0.011518   
    555. D(C  35,C  34,C  33,C  32)    171.6658         0.011518   
    556. D(H  88,C  35,C  34,H  86)   -175.4815         0.011189   
    557. D(H  88,C  35,C  34,H  85)     68.4187         0.011189   
    558. D(H  88,C  35,C  34,C  33)    -51.8696         0.011189   
    559. D(H  87,C  35,C  34,H  86)    -60.2664         0.011189   
    560. D(H  87,C  35,C  34,H  85)   -176.3663         0.011189   
    561. D(H  87,C  35,C  34,C  33)     63.3454         0.011189   
    562. D(C  36,C  35,C  34,H  86)     62.5104         0.011189   
    563. D(C  36,C  35,C  34,H  85)    -53.5895         0.011189   
    564. D(C  36,C  35,C  34,C  33)   -173.8778         0.011189   
    565. D(H  90,C  36,C  35,H  87)     62.3434         0.011187   
    566. D(H  90,C  36,C  35,C  34)    -60.5565         0.011187   
    567. D(H  89,C  36,C  35,H  88)    -66.9415         0.011187   
    568. D(H  89,C  36,C  35,H  87)    177.7031         0.011187   
    569. D(H  89,C  36,C  35,C  34)     54.8031         0.011187   
    570. D(C  37,C  36,C  35,H  88)     54.9470         0.011187   
    571. D(C  37,C  36,C  35,H  87)    -60.4084         0.011187   
    572. D(H  90,C  36,C  35,H  88)    177.6988         0.011187   
    573. D(C  37,C  36,C  35,C  34)    176.6917         0.011187   
    574. D(H  92,C  37,C  36,H  90)   -179.3530         0.011164   
    575. D(H  92,C  37,C  36,H  89)     65.2840         0.011164   
    576. D(H  92,C  37,C  36,C  35)    -56.5758         0.011164   
    577. D(H  91,C  37,C  36,H  90)    -63.9701         0.011164   
    578. D(H  91,C  37,C  36,H  89)   -179.3332         0.011164   
    579. D(H  91,C  37,C  36,C  35)     58.8070         0.011164   
    580. D(C  38,C  37,C  36,H  90)     58.5044         0.011164   
    581. D(C  38,C  37,C  36,H  89)    -56.8587         0.011164   
    582. D(C  38,C  37,C  36,C  35)   -178.7185         0.011164   
    583. D(H  94,C  38,C  37,H  92)    179.8247         0.011134   
    584. D(H  94,C  38,C  37,H  91)     64.4074         0.011134   
    585. D(H  94,C  38,C  37,C  36)    -58.0825         0.011134   
    586. D(H  93,C  38,C  37,H  92)    -64.7732         0.011134   
    587. D(H  93,C  38,C  37,H  91)    179.8095         0.011134   
    588. D(H  93,C  38,C  37,C  36)     57.3196         0.011134   
    589. D(C  39,C  38,C  37,H  92)     57.4568         0.011134   
    590. D(C  39,C  38,C  37,H  91)    -57.9605         0.011134   
    591. D(C  39,C  38,C  37,C  36)    179.5496         0.011134   
    592. D(H  95,C  39,C  38,H  94)    -64.5063         0.011138   
    593. D(H  95,C  39,C  38,H  93)   -179.9368         0.011138   
    594. D(H  95,C  39,C  38,C  37)     57.8504         0.011138   
    595. D(C  40,C  39,C  38,H  94)     57.7888         0.011138   
    596. D(C  40,C  39,C  38,H  93)    -57.6417         0.011138   
    597. D(C  40,C  39,C  38,C  37)   -179.8546         0.011138   
    598. D(H  96,C  39,C  38,H  94)   -179.9466         0.011138   
    599. D(H  96,C  39,C  38,H  93)     64.6229         0.011138   
    600. D(H  96,C  39,C  38,C  37)    -57.5899         0.011138   
    601. D(H  98,C  40,C  39,H  95)     64.6467         0.011069   
    602. D(H  98,C  40,C  39,C  38)    -57.6809         0.011069   
    603. D(H  97,C  40,C  39,H  96)    -64.6522         0.011069   
    604. D(H  97,C  40,C  39,H  95)    179.9781         0.011069   
    605. D(H  97,C  40,C  39,C  38)     57.6504         0.011069   
    606. D(C  41,C  40,C  39,H  96)     57.6680         0.011069   
    607. D(C  41,C  40,C  39,H  95)    -57.7017         0.011069   
    608. D(H  98,C  40,C  39,H  96)   -179.9835         0.011069   
    609. D(C  41,C  40,C  39,C  38)    179.9706         0.011069   
    610. D(H 101,C  41,C  40,H  98)    -62.2877         0.011157   
    611. D(H 101,C  41,C  40,H  97)   -178.1906         0.011157   
    612. D(H 101,C  41,C  40,C  39)     59.7714         0.011157   
    613. D(H 100,C  41,C  40,H  98)    178.1630         0.011157   
    614. D(H 100,C  41,C  40,H  97)     62.2602         0.011157   
    615. D(H 100,C  41,C  40,C  39)    -59.7779         0.011157   
    616. D(H  99,C  41,C  40,H  98)     57.9456         0.011157   
    617. D(H  99,C  41,C  40,H  97)    -57.9572         0.011157   
    618. D(H  99,C  41,C  40,C  39)   -179.9953         0.011157   
    619. D(H 102,O  43,C  17,H  65)     46.8721         0.016484   
    620. D(H 102,O  43,C  17,C  18)    -71.2939         0.016484   
    621. D(H 102,O  43,C  17,C  16)    162.4564         0.016484   
    622. D(H 104,C  45,C  13,H  61)   -179.2721         0.010272   
    623. D(H 104,C  45,C  13,C  14)    -57.6240         0.010272   
    624. D(H 104,C  45,C  13,N  12)     61.5420         0.010272   
    625. D(H 103,C  45,C  13,H  61)    -64.2226         0.010272   
    626. D(H 103,C  45,C  13,C  14)     57.4255         0.010272   
    627. D(H 103,C  45,C  13,N  12)    176.5914         0.010272   
    628. D(C  46,C  45,C  13,H  61)     58.1144         0.010272   
    629. D(C  46,C  45,C  13,C  14)    179.7625         0.010272   
    630. D(C  46,C  45,C  13,N  12)    -61.0715         0.010272   
    631. D(H 107,C  46,C  45,H 104)    -61.5853         0.011360   
    632. D(H 107,C  46,C  45,H 103)   -179.0602         0.011360   
    633. D(H 107,C  46,C  45,C  13)     59.7165         0.011360   
    634. D(H 106,C  46,C  45,H 104)    178.8258         0.011360   
    635. D(H 106,C  46,C  45,H 103)     61.3509         0.011360   
    636. D(H 106,C  46,C  45,C  13)    -59.8724         0.011360   
    637. D(H 105,C  46,C  45,H 104)     58.2604         0.011360   
    638. D(H 105,C  46,C  45,H 103)    -59.2145         0.011360   
    639. D(H 105,C  46,C  45,C  13)    179.5622         0.011360   
    640. D(H 108,C  48,C  10,H  59)     54.7529         0.009773   
    641. D(H 108,C  48,C  10,C  11)    171.4127         0.009773   
    642. D(H 108,C  48,C  10,N   9)    -65.6917         0.009773   
    643. D(C  50,C  48,C  10,H  59)    -61.3055         0.009773   
    644. D(C  50,C  48,C  10,C  11)     55.3543         0.009773   
    645. D(C  50,C  48,C  10,N   9)    178.2499         0.009773   
    646. D(C  49,C  48,C  10,H  59)    171.4552         0.009773   
    647. D(C  49,C  48,C  10,C  11)    -71.8850         0.009773   
    648. D(C  49,C  48,C  10,N   9)     51.0106         0.009773   
    649. D(H 111,C  49,C  48,C  50)     69.1618         0.011051   
    650. D(H 111,C  49,C  48,C  10)   -164.7477         0.011051   
    651. D(H 110,C  49,C  48,H 108)   -168.6637         0.011051   
    652. D(H 110,C  49,C  48,C  50)    -49.6332         0.011051   
    653. D(H 110,C  49,C  48,C  10)     76.4573         0.011051   
    654. D(H 109,C  49,C  48,H 108)     68.9605         0.011051   
    655. D(H 109,C  49,C  48,C  50)   -172.0091         0.011051   
    656. D(H 111,C  49,C  48,H 108)    -49.8686         0.011051   
    657. D(H 109,C  49,C  48,C  10)    -45.9186         0.011051   
    658. D(H 114,C  50,C  48,H 108)    179.1030         0.011032   
    659. D(H 114,C  50,C  48,C  49)     61.1126         0.011032   
    660. D(H 114,C  50,C  48,C  10)    -68.0152         0.011032   
    661. D(H 113,C  50,C  48,H 108)     59.7120         0.011032   
    662. D(H 113,C  50,C  48,C  49)    -58.2783         0.011032   
    663. D(H 113,C  50,C  48,C  10)    172.5939         0.011032   
    664. D(H 112,C  50,C  48,H 108)    -60.4380         0.011032   
    665. D(H 112,C  50,C  48,C  49)   -178.4283         0.011032   
    666. D(H 112,C  50,C  48,C  10)     52.4439         0.011032   
    -----------------------------------------------------------------

Number of atoms                         .... 115
Number of degrees of freedom            .... 666

         *************************************************************
         *                GEOMETRY OPTIMIZATION CYCLE   1            *
         *************************************************************
---------------------------------
CARTESIAN COORDINATES (ANGSTROEM)
---------------------------------
  O      0.003241    4.515754   -2.478356
  C      0.072924    3.491606   -1.813725
  C     -0.811969    3.259971   -0.575123
  C     -0.071942    3.434477    0.765059
  C     -0.796463    2.463620    1.706595
  C     -1.075204    1.250235    0.813681
  N     -1.306915    1.871186   -0.505879
  C     -1.855842    1.309614   -1.620249
  O     -2.018944    1.960571   -2.657293
  N      0.967225    2.465621   -2.038736
  C      1.374452    2.064015   -3.394892
  C      2.096045    0.719635   -3.226732
  N      3.266136    0.786530   -2.551682
  C      4.008141   -0.368293   -2.085933
  C      4.311621   -0.118241   -0.598610
  N      4.611748   -1.230773    0.116549
  C      4.691129   -1.228198    1.567462
  C      3.974205   -2.445473    2.143955
  C      2.433128   -2.440475    2.031108
  C      1.874912   -1.946558    0.692072
  N      1.613265   -2.908423   -0.233031
  C      0.802605   -2.603015   -1.403184
  C     -0.489149   -1.891287   -0.950791
  N     -0.903126   -0.907883   -1.787150
  C     -2.164843   -0.195928   -1.575091
  C     -3.213837   -0.578099   -2.613985
  O     -1.101195   -2.244970    0.061130
  C      0.430149   -3.892051   -2.145914
  C      1.613145   -4.756166   -2.616115
  C      1.083204   -6.002455   -3.334671
  C      2.581293   -3.974502   -3.507716
  O      1.651270   -0.750574    0.482466
  C      1.748060   -1.605579    3.131481
  C      0.252835   -1.807954    3.235346
  C     -0.484724   -0.688193    3.962329
  C     -2.003549   -0.837493    3.862453
  C     -2.765860    0.349136    4.454040
  C     -4.282598    0.243428    4.285498
  C     -5.044224    1.444788    4.849348
  C     -6.560734    1.345730    4.671822
  C     -7.323076    2.549127    5.232647
  C     -8.837890    2.439607    5.049021
  O      2.385836   -0.864155    3.857176
  O      4.524349   -3.590367    1.455337
  O      4.291135    1.017993   -0.124730
  C      5.302541   -0.595255   -2.892367
  C      5.039353   -0.852838   -4.374531
  O      1.603344   -0.339669   -3.650480
  C      2.155066    3.152129   -4.173780
  C      3.343925    3.763919   -3.427502
  C      2.561911    2.608997   -5.546675
  H     -1.652156    3.962027   -0.679586
  H     -0.090314    4.476507    1.104559
  H      0.980117    3.131955    0.654146
  H     -0.196895    2.202209    2.586838
  H     -1.743843    2.902125    2.055112
  H     -0.211738    0.566769    0.780495
  H     -1.953066    0.675570    1.135025
  H      0.827699    1.669041   -1.416160
  H      0.470138    1.832051   -3.982145
  H      3.476257    1.641095   -2.029849
  H      3.354742   -1.246482   -2.192950
  H      4.586732   -2.138832   -0.339170
  H      4.233540   -0.301073    1.934021
  H      5.740112   -1.254581    1.902328
  H      4.218845   -2.486034    3.217964
  H      2.096934   -3.482907    2.179570
  H      1.670766   -3.877970    0.059940
  H      1.358628   -1.931594   -2.074712
  H     -0.315270   -0.663824   -2.590571
  H     -2.495427   -0.500174   -0.572507
  H     -3.388311   -1.661561   -2.580454
  H     -4.160532   -0.059457   -2.410973
  H     -2.883366   -0.288381   -3.619117
  H     -0.168737   -3.602805   -3.024485
  H     -0.232515   -4.487803   -1.495472
  H      2.174924   -5.098795   -1.727308
  H      0.394934   -6.574564   -2.695155
  H      0.536172   -5.719732   -4.247537
  H      1.905857   -6.668932   -3.630711
  H      3.050740   -3.142468   -2.966566
  H      3.384594   -4.626610   -3.879430
  H      2.059348   -3.543860   -4.375361
  H      0.102175   -2.776121    3.751776
  H     -0.162359   -1.959009    2.223399
  H     -0.179602    0.271853    3.518593
  H     -0.167188   -0.643265    5.015137
  H     -2.321434   -1.768425    4.364183
  H     -2.282839   -0.961449    2.801626
  H     -2.412542    1.279656    3.976247
  H     -2.519721    0.449827    5.525543
  H     -4.642489   -0.680029    4.772342
  H     -4.521476    0.131253    3.212940
  H     -4.679940    2.367255    4.363242
  H     -4.808340    1.555693    5.922473
  H     -6.926086    0.424027    5.158659
  H     -6.796187    1.233849    3.598455
  H     -6.956184    3.468523    4.745217
  H     -7.086378    2.659402    6.304727
  H     -9.360560    3.315304    5.459716
  H     -9.102985    2.361294    3.983586
  H     -9.234561    1.545806    5.554431
  H      4.313094   -4.387874    1.968652
  H      5.842766   -1.446158   -2.447116
  H      5.948525    0.287848   -2.762295
  H      5.982455   -1.002092   -4.918115
  H      4.412891   -1.743674   -4.520001
  H      4.515627   -0.003853   -4.834004
  H      1.416832    3.954288   -4.315396
  H      3.077832    4.022334   -2.393003
  H      4.216232    3.093812   -3.413823
  H      3.656902    4.690099   -3.929434
  H      1.699962    2.195764   -6.090338
  H      2.999660    3.407663   -6.161533
  H      3.315139    1.810856   -5.453838

----------------------------
CARTESIAN COORDINATES (A.U.)
----------------------------
  NO LB      ZA    FRAG     MASS         X           Y           Z
   0 O     8.0000    0    15.999    0.006125    8.533539   -4.683414
   1 C     6.0000    0    12.011    0.137806    6.598180   -3.427443
   2 C     6.0000    0    12.011   -1.534398    6.160453   -1.086824
   3 C     6.0000    0    12.011   -0.135951    6.490222    1.445753
   4 C     6.0000    0    12.011   -1.505097    4.655566    3.224997
   5 C     6.0000    0    12.011   -2.031842    2.362601    1.537635
   6 N     7.0000    0    14.007   -2.469712    3.536029   -0.955974
   7 C     6.0000    0    12.011   -3.507032    2.474811   -3.061827
   8 O     8.0000    0    15.999   -3.815251    3.704943   -5.021557
   9 N     7.0000    0    14.007    1.827790    4.659348   -3.852652
  10 C     6.0000    0    12.011    2.597338    3.900424   -6.415417
  11 C     6.0000    0    12.011    3.960951    1.359914   -6.097639
  12 N     7.0000    0    14.007    6.172102    1.486326   -4.821980
  13 C     6.0000    0    12.011    7.574288   -0.695973   -3.941841
  14 C     6.0000    0    12.011    8.147783   -0.223444   -1.131209
  15 N     7.0000    0    14.007    8.714941   -2.325824    0.220247
  16 C     6.0000    0    12.011    8.864950   -2.320957    2.962074
  17 C     6.0000    0    12.011    7.510160   -4.621275    4.051488
  18 C     6.0000    0    12.011    4.597945   -4.611830    3.838238
  19 C     6.0000    0    12.011    3.543071   -3.678461    1.307826
  20 N     7.0000    0    14.007    3.048629   -5.496123   -0.440364
  21 C     6.0000    0    12.011    1.516704   -4.918985   -2.651633
  22 C     6.0000    0    12.011   -0.924358   -3.574014   -1.796734
  23 N     7.0000    0    14.007   -1.706661   -1.715650   -3.377224
  24 C     6.0000    0    12.011   -4.090961   -0.370250   -2.976491
  25 C     6.0000    0    12.011   -6.073271   -1.092449   -4.939715
  26 O     8.0000    0    15.999   -2.080957   -4.242379    0.115519
  27 C     6.0000    0    12.011    0.812863   -7.354910   -4.055189
  28 C     6.0000    0    12.011    3.048403   -8.987851   -4.943742
  29 C     6.0000    0    12.011    2.046959  -11.342995   -6.301615
  30 C     6.0000    0    12.011    4.877937   -7.510721   -6.628623
  31 O     8.0000    0    15.999    3.120449   -1.418379    0.911728
  32 C     6.0000    0    12.011    3.303355   -3.034105    5.917641
  33 C     6.0000    0    12.011    0.477789   -3.416538    6.113919
  34 C     6.0000    0    12.011   -0.915995   -1.300496    7.487716
  35 C     6.0000    0    12.011   -3.786160   -1.582632    7.298978
  36 C     6.0000    0    12.011   -5.226719    0.659772    8.416915
  37 C     6.0000    0    12.011   -8.092936    0.460011    8.098417
  38 C     6.0000    0    12.011   -9.532201    2.730254    9.163940
  39 C     6.0000    0    12.011  -12.397991    2.543061    8.828464
  40 C     6.0000    0    12.011  -13.838609    4.817152    9.888270
  41 C     6.0000    0    12.011  -16.701192    4.610189    9.541266
  42 O     8.0000    0    15.999    4.508578   -1.633016    7.289007
  43 O     8.0000    0    15.999    8.549780   -6.784810    2.750189
  44 O     8.0000    0    15.999    8.109069    1.923728   -0.235706
  45 C     6.0000    0    12.011   10.020351   -1.124869   -5.465782
  46 C     6.0000    0    12.011    9.522996   -1.611631   -8.266666
  47 O     8.0000    0    15.999    3.029880   -0.641882   -6.898407
  48 C     6.0000    0    12.011    4.072485    5.956660   -7.887301
  49 C     6.0000    0    12.011    6.319102    7.112776   -6.477040
  50 C     6.0000    0    12.011    4.841311    4.930290  -10.481698
  51 H     1.0000    0     1.008   -3.122122    7.487147   -1.284231
  52 H     1.0000    0     1.008   -0.170668    8.459372    2.087314
  53 H     1.0000    0     1.008    1.852153    5.918536    1.236157
  54 H     1.0000    0     1.008   -0.372078    4.161573    4.888415
  55 H     1.0000    0     1.008   -3.295386    5.484221    3.883600
  56 H     1.0000    0     1.008   -0.400127    1.071039    1.474922
  57 H     1.0000    0     1.008   -3.690759    1.276641    2.144887
  58 H     1.0000    0     1.008    1.564125    3.154030   -2.676155
  59 H     1.0000    0     1.008    0.888432    3.462074   -7.525163
  60 H     1.0000    0     1.008    6.569174    3.101220   -3.835859
  61 H     1.0000    0     1.008    6.339543   -2.355510   -4.144075
  62 H     1.0000    0     1.008    8.667668   -4.041807   -0.640938
  63 H     1.0000    0     1.008    8.000230   -0.568946    3.654769
  64 H     1.0000    0     1.008   10.847239   -2.370814    3.594879
  65 H     1.0000    0     1.008    7.972461   -4.697924    6.081070
  66 H     1.0000    0     1.008    3.962631   -6.581740    4.118790
  67 H     1.0000    0     1.008    3.157290   -7.328301    0.113270
  68 H     1.0000    0     1.008    2.567435   -3.650183   -3.920638
  69 H     1.0000    0     1.008   -0.595773   -1.254446   -4.895470
  70 H     1.0000    0     1.008   -4.715673   -0.945191   -1.081881
  71 H     1.0000    0     1.008   -6.402980   -3.139895   -4.876352
  72 H     1.0000    0     1.008   -7.862266   -0.112357   -4.556079
  73 H     1.0000    0     1.008   -5.448771   -0.544961   -6.839139
  74 H     1.0000    0     1.008   -0.318868   -6.808314   -5.715449
  75 H     1.0000    0     1.008   -0.439390   -8.480718   -2.826032
  76 H     1.0000    0     1.008    4.110010   -9.635327   -3.264138
  77 H     1.0000    0     1.008    0.746318  -12.424125   -5.093105
  78 H     1.0000    0     1.008    1.013217  -10.808728   -8.026681
  79 H     1.0000    0     1.008    3.601549  -12.602454   -6.861049
  80 H     1.0000    0     1.008    5.765064   -5.938404   -5.605997
  81 H     1.0000    0     1.008    6.395955   -8.743025   -7.331061
  82 H     1.0000    0     1.008    3.891604   -6.696926   -8.268234
  83 H     1.0000    0     1.008    0.193082   -5.246108    7.089829
  84 H     1.0000    0     1.008   -0.306814   -3.701991    4.201616
  85 H     1.0000    0     1.008   -0.339398    0.513727    6.649176
  86 H     1.0000    0     1.008   -0.315939   -1.215595    9.477236
  87 H     1.0000    0     1.008   -4.386875   -3.341840    8.247111
  88 H     1.0000    0     1.008   -4.313941   -1.816876    5.294305
  89 H     1.0000    0     1.008   -4.559043    2.418200    7.514017
  90 H     1.0000    0     1.008   -4.761582    0.850050   10.441764
  91 H     1.0000    0     1.008   -8.773034   -1.285068    9.018420
  92 H     1.0000    0     1.008   -8.544351    0.248032    6.071576
  93 H     1.0000    0     1.008   -8.843806    4.473463    8.245333
  94 H     1.0000    0     1.008   -9.086446    2.939835   11.191852
  95 H     1.0000    0     1.008  -13.088406    0.801294    9.748453
  96 H     1.0000    0     1.008  -12.842932    2.331636    6.800095
  97 H     1.0000    0     1.008  -13.145283    6.554558    8.967161
  98 H     1.0000    0     1.008  -13.391314    5.025542   11.914208
  99 H     1.0000    0     1.008  -17.688894    6.265017   10.317368
 100 H     1.0000    0     1.008  -17.202149    4.462199    7.527886
 101 H     1.0000    0     1.008  -17.450791    2.921149   10.496354
 102 H     1.0000    0     1.008    8.150566   -8.291880    3.720214
 103 H     1.0000    0     1.008   11.041227   -2.732842   -4.624380
 104 H     1.0000    0     1.008   11.241083    0.543954   -5.219982
 105 H     1.0000    0     1.008   11.305202   -1.893680   -9.293891
 106 H     1.0000    0     1.008    8.339156   -3.295066   -8.541564
 107 H     1.0000    0     1.008    8.533299   -0.007282   -9.134944
 108 H     1.0000    0     1.008    2.677425    7.472522   -8.154917
 109 H     1.0000    0     1.008    5.816260    7.601109   -4.522120
 110 H     1.0000    0     1.008    7.967523    5.846457   -6.451191
 111 H     1.0000    0     1.008    6.910543    8.863003   -7.425554
 112 H     1.0000    0     1.008    3.212462    4.149392  -11.509071
 113 H     1.0000    0     1.008    5.668535    6.439551  -11.643611
 114 H     1.0000    0     1.008    6.264705    3.422022  -10.306260

--------------------------------
INTERNAL COORDINATES (ANGSTROEM)
--------------------------------
 O      0   0   0     0.000000000000     0.00000000     0.00000000
 C      1   0   0     1.222893847205     0.00000000     0.00000000
 C      2   1   0     1.539748191958   122.03480164     0.00000000
 C      3   2   1     1.540836961759   113.99216692   255.83308456
 C      4   3   2     1.534269955220   103.60883565   210.56713205
 C      5   4   3     1.532088345886   103.26254256    38.73132620
 N      3   2   1     1.475971427309   111.83940096   139.35681823
 C      7   3   2     1.363269272296   118.96492667   312.08670654
 O      8   7   3     1.235236541952   121.49022544   355.66370909
 N      2   1   3     1.379510962086   124.83050929   183.08388650
 C     10   2   1     1.471829532418   122.18068729   323.80792043
 C     11  10   2     1.535034518267   105.55097768   192.69790146
 N     12  11  10     1.352508410727   114.71095136   293.29427357
 C     13  12  11     1.449520735114   124.32049982   169.57147866
 C     14  13  12     1.538426131705   106.38720117   230.67165607
 N     15  14  13     1.356191510353   114.84296838   159.93280079
 C     16  15  14     1.453084668000   122.49164184   191.24774211
 C     17  16  15     1.525806221857   110.49841906   135.30298422
 C     18  17  16     1.545211677305   116.00407959   289.49376875
 C     19  18  17     1.532506605112   115.34885818    41.97804038
 N     20  19  18     1.359947784679   115.88068234    93.69463240
 C     21  20  19     1.455919915064   120.36387434   165.63771872
 C     22  21  20     1.542675001641   109.10638486   310.56072910
 N     23  22  21     1.355713068011   114.16954554   142.50668434
 C     24  23  22     1.464165330588   121.76953516   175.09809068
 C     25  24  23     1.525038003227   111.85273631   251.33434784
 O     23  22  21     1.234372321583   121.56045622   319.71759783
 C     22  21  20     1.533618306828   110.37429502   190.74698857
 C     28  22  21     1.538592066932   115.67913398   302.27778255
 C     29  28  22     1.533099622964   109.51277765   179.90268400
 C     29  28  22     1.530771289866   112.17892186   303.80340516
 O     20  19  18     1.234636765949   121.77080738   272.18051244
 C     19  18  17     1.541814000694   113.12682431   278.75342984
 C     33  19  18     1.512428686288   114.57138321   192.28466788
 C     34  33  19     1.525241392268   114.36608171   199.47922278
 C     35  34  33     1.529410813480   112.17448802   171.66582379
 C     36  35  34     1.529438286526   113.20222706   186.12218308
 C     37  36  35     1.529729552024   113.45079341   176.69166541
 C     38  37  36     1.530120835320   113.49518028   181.28150688
 C     39  38  37     1.530075936956   113.56296688   179.54955701
 C     40  39  38     1.530965388959   113.58711750   180.14542766
 C     41  40  39     1.529827984812   113.13006152   179.97062925
 O     33  19  18     1.217826976560   121.48395418    11.32843341
 O     18  17  16     1.444864767061   105.85379991    52.20878155
 O     15  14  13     1.231263842844   121.25167773   339.14292972
 C     14  13  12     1.541856626727   112.26923555   108.64008991
 C     46  14  13     1.527228693836   112.81449535   298.92846919
 O     12  11  10     1.242756582966   121.51985545   111.19422492
 C     11  10   2     1.549198072302   114.26889814    64.46304015
 C     49  11  10     1.531209947972   115.26566176    51.01061267
 C     49  11  10     1.531455704153   109.60163573   178.24990227
 H      3   2   1     1.099868049699   105.46111881    19.30142777
 H      4   3   2     1.096094482706   111.65509737    87.68667319
 H      4   3   2     1.100295864654   109.90160545   327.89150323
 H      5   4   3     1.096651350603   112.65803521   160.04802349
 H      5   4   3     1.100581952952   110.40785548   281.07068279
 H      6   5   4     1.101726161267   111.48620354    84.92837919
 H      6   5   4     1.097334242690   112.93158718   206.89057228
 H     10   2   1     1.020591446892   113.10163302   183.86185721
 H     11  10   2     1.102931152372   108.73144266   304.96092542
 H     13  12  11     1.023104422344   118.26554770    13.78222841
 H     14  13  12     1.099817611893   107.50362507   348.41382525
 H     16  15  14     1.016305887989   119.41000511   357.74121002
 H     17  16  15     1.096956166125   108.20211045    14.06838874
 H     17  16  15     1.101451587453   110.82732000   255.32377178
 H     18  17  16     1.102264738262   107.05065861   170.14202685
 H     19  18  17     1.105319350596   106.88710184   162.17079400
 H     21  20  19     1.014474738569   117.94368925     8.75655609
 H     22  21  20     1.100417625854   109.70137271    69.53242765
 H     24  23  22     1.025000111441   118.76004738   355.41831994
 H     25  24  23     1.098647938541   104.88068445    10.77320375
 H     26  25  24     1.097932434151   109.62105865    57.98519555
 H     26  25  24     1.098378429547   110.40281128   177.91020695
 H     26  25  24     1.097013128263   110.53469797   296.98880705
 H     28  22  21     1.101914706625   107.30754662   180.70052668
 H     28  22  21     1.103230796912   108.31432681    65.99231284
 H     29  28  22     1.105879414767   108.60092452    62.80134796
 H     30  29  28     1.100002343454   111.50565832   303.89960474
 H     30  29  28     1.101136114625   110.58275912    63.75202996
 H     30  29  28     1.099358681368   111.12325177   183.31543320
 H     31  29  28     1.097955029038   111.73432265    63.24229175
 H     31  29  28     1.099411982550   110.86480515   183.36511441
 H     31  29  28     1.100312128578   111.04670753   303.66900147
 H     34  33  19     1.107585567000   106.46705940    76.87758030
 H     34  33  19     1.104192373319   109.09324456   324.20577311
 H     35  34  33     1.100767504827   108.30771172    50.67795304
 H     35  34  33     1.100569243079   110.26732330   295.50253369
 H     36  35  34     1.104273426735   109.78552755    63.34540731
 H     36  35  34     1.103957596146   108.96267418   308.13035158
 H     37  36  35     1.104077777711   109.08710019    54.80314638
 H     37  36  35     1.104012458502   109.57548132   299.44345445
 H     38  37  36     1.104224164922   109.41260334    58.80702928
 H     38  37  36     1.104548130034   109.17383746   303.42418544
 H     39  38  37     1.104511283959   109.23157362    57.31958453
 H     39  38  37     1.104326902716   109.30632401   301.91745559
 H     40  39  38     1.104549951735   109.31264346    57.85036010
 H     40  39  38     1.104568414100   109.30384303   302.41007996
 H     41  40  39     1.103397832036   109.12080067    57.65041031
 H     41  40  39     1.103423024137   109.12657159   302.31910142
 H     42  41  40     1.099408655007   111.64672647   180.00472825
 H     42  41  40     1.100708703846   111.08513288   300.22212093
 H     42  41  40     1.100758346925   111.09053212    59.77135808
 H     44  18  17     0.971668062102   108.40917726   162.45639842
 H     46  14  13     1.101873781162   108.29543837   176.59143366
 H     46  14  13     1.101855017150   108.20744106    61.54197372
 H     47  46  14     1.098728024538   110.80144116   179.56218579
 H     47  46  14     1.098727880644   111.31513802   300.12761322
 H     47  46  14     1.098262054740   110.96629848    59.71646231
 H     49  11  10     1.099319916855   103.82183806   294.30832518
 H     50  49  11     1.098986933016   111.39143359   314.08144663
 H     50  49  11     1.100068174768   112.23100795    76.45728751
 H     50  49  11     1.098953764996   109.58766799   195.25231540
 H     51  49  11     1.099676442586   111.60699133    52.44391034
 H     51  49  11     1.098882013053   110.46695252   172.59389127
 H     51  49  11     1.101362772520   111.29252408   291.98485000

---------------------------
INTERNAL COORDINATES (A.U.)
---------------------------
 O      0   0   0     0.000000000000     0.00000000     0.00000000
 C      1   0   0     2.310934462075     0.00000000     0.00000000
 C      2   1   0     2.909702398001   122.03480164     0.00000000
 C      3   2   1     2.911759874749   113.99216692   255.83308456
 C      4   3   2     2.899350030870   103.60883565   210.56713205
 C      5   4   3     2.895227386697   103.26254256    38.73132620
 N      3   2   1     2.789181779107   111.83940096   139.35681823
 C      7   3   2     2.576205571430   118.96492667   312.08670654
 O      8   7   3     2.334258774901   121.49022544   355.66370909
 N      2   1   3     2.606897917084   124.83050929   183.08388650
 C     10   2   1     2.781354732087   122.18068729   323.80792043
 C     11  10   2     2.900794845641   105.55097768   192.69790146
 N     12  11  10     2.555870490099   114.71095136   293.29427357
 C     13  12  11     2.739197214806   124.32049982   169.57147866
 C     14  13  12     2.907204066190   106.38720117   230.67165607
 N     15  14  13     2.562830539716   114.84296838   159.93280079
 C     16  15  14     2.745932071919   122.49164184   191.24774211
 C     17  16  15     2.883355892742   110.49841906   135.30298422
 C     18  17  16     2.920026889043   116.00407959   289.49376875
 C     19  18  17     2.896017782086   115.34885818    41.97804038
 N     20  19  18     2.569928869476   115.88068234    93.69463240
 C     21  20  19     2.751289912393   120.36387434   165.63771872
 C     22  21  20     2.915233266748   109.10638486   310.56072910
 N     23  22  21     2.561926414719   114.16954554   142.50668434
 C     24  23  22     2.766871489594   121.76953516   175.09809068
 C     25  24  23     2.881904169921   111.85273631   251.33434784
 O     23  22  21     2.332625635085   121.56045622   319.71759783
 C     22  21  20     2.898118593872   110.37429502   190.74698857
 C     28  22  21     2.907517638325   115.67913398   302.27778255
 C     29  28  22     2.897138423419   109.51277765   179.90268400
 C     29  28  22     2.892738511516   112.17892186   303.80340516
 O     20  19  18     2.333125362514   121.77080738   272.18051244
 C     19  18  17     2.913606210757   113.12682431   278.75342984
 C     33  19  18     2.858076014171   114.57138321   192.28466788
 C     34  33  19     2.882288519508   114.36608171   199.47922278
 C     35  34  33     2.890167583735   112.17448802   171.66582379
 C     36  35  34     2.890219500268   113.20222706   186.12218308
 C     37  36  35     2.890769912291   113.45079341   176.69166541
 C     38  37  36     2.891509330561   113.49518028   181.28150688
 C     39  38  37     2.891424484949   113.56296688   179.54955701
 C     40  39  38     2.893105305645   113.58711750   180.14542766
 C     41  40  39     2.890955923304   113.13006152   179.97062925
 O     33  19  18     2.301359464200   121.48395418    11.32843341
 O     18  17  16     2.730398710297   105.85379991    52.20878155
 O     15  14  13     2.326751461574   121.25167773   339.14292972
 C     14  13  12     2.913686762285   112.26923555   108.64008991
 C     46  14  13     2.886043975216   112.81449535   298.92846919
 O     12  11  10     2.348469592934   121.51985545   111.19422492
 C     11  10   2     2.927560083849   114.26889814    64.46304015
 C     49  11  10     2.893567455203   115.26566176    51.01061267
 C     49  11  10     2.894031867080   109.60163573   178.24990227
 H      3   2   1     2.078449397382   105.46111881    19.30142777
 H      4   3   2     2.071318389216   111.65509737    87.68667319
 H      4   3   2     2.079257850481   109.90160545   327.89150323
 H      5   4   3     2.072370717035   112.65803521   160.04802349
 H      5   4   3     2.079798479016   110.40785548   281.07068279
 H      6   5   4     2.081960719371   111.48620354    84.92837919
[...]
freq.      87.49  E(vib)   ...       0.48 
freq.      88.48  E(vib)   ...       0.47 
freq.      93.96  E(vib)   ...       0.47 
freq.      97.54  E(vib)   ...       0.46 
freq.     101.30  E(vib)   ...       0.46 
freq.     103.27  E(vib)   ...       0.46 
freq.     111.06  E(vib)   ...       0.45 
freq.     118.22  E(vib)   ...       0.44 
freq.     119.06  E(vib)   ...       0.44 
freq.     122.70  E(vib)   ...       0.43 
freq.     126.00  E(vib)   ...       0.43 
freq.     128.48  E(vib)   ...       0.43 
freq.     137.98  E(vib)   ...       0.42 
freq.     146.76  E(vib)   ...       0.41 
freq.     148.78  E(vib)   ...       0.41 
freq.     153.68  E(vib)   ...       0.40 
freq.     157.00  E(vib)   ...       0.40 
freq.     159.45  E(vib)   ...       0.39 
freq.     165.54  E(vib)   ...       0.39 
freq.     170.81  E(vib)   ...       0.38 
freq.     179.75  E(vib)   ...       0.37 
freq.     185.08  E(vib)   ...       0.37 
freq.     189.73  E(vib)   ...       0.36 
freq.     202.00  E(vib)   ...       0.35 
freq.     205.59  E(vib)   ...       0.35 
freq.     207.63  E(vib)   ...       0.34 
freq.     209.17  E(vib)   ...       0.34 
freq.     213.34  E(vib)   ...       0.34 
freq.     216.47  E(vib)   ...       0.34 
freq.     222.84  E(vib)   ...       0.33 
freq.     224.73  E(vib)   ...       0.33 
freq.     229.05  E(vib)   ...       0.32 
freq.     234.04  E(vib)   ...       0.32 
freq.     237.21  E(vib)   ...       0.32 
freq.     239.80  E(vib)   ...       0.31 
freq.     246.74  E(vib)   ...       0.31 
freq.     251.39  E(vib)   ...       0.30 
freq.     257.85  E(vib)   ...       0.30 
freq.     272.74  E(vib)   ...       0.29 
freq.     278.51  E(vib)   ...       0.28 
freq.     286.10  E(vib)   ...       0.27 
freq.     292.83  E(vib)   ...       0.27 
freq.     313.23  E(vib)   ...       0.25 
freq.     314.99  E(vib)   ...       0.25 
freq.     319.08  E(vib)   ...       0.25 
freq.     321.74  E(vib)   ...       0.25 
freq.     323.20  E(vib)   ...       0.25 
freq.     335.11  E(vib)   ...       0.24 
freq.     336.53  E(vib)   ...       0.24 
freq.     343.75  E(vib)   ...       0.23 
freq.     352.90  E(vib)   ...       0.22 
freq.     366.26  E(vib)   ...       0.22 
freq.     371.62  E(vib)   ...       0.21 
freq.     381.81  E(vib)   ...       0.21 
freq.     385.90  E(vib)   ...       0.20 
freq.     405.41  E(vib)   ...       0.19 
freq.     407.26  E(vib)   ...       0.19 
freq.     421.40  E(vib)   ...       0.18 
freq.     432.29  E(vib)   ...       0.18 
freq.     451.52  E(vib)   ...       0.16 
freq.     458.50  E(vib)   ...       0.16 
freq.     464.34  E(vib)   ...       0.16 
freq.     472.57  E(vib)   ...       0.15 
freq.     482.06  E(vib)   ...       0.15 
freq.     487.43  E(vib)   ...       0.15 
freq.     498.37  E(vib)   ...       0.14 
freq.     507.51  E(vib)   ...       0.14 
freq.     530.02  E(vib)   ...       0.13 
freq.     533.50  E(vib)   ...       0.13 
freq.     546.75  E(vib)   ...       0.12 
freq.     582.47  E(vib)   ...       0.11 
freq.     590.07  E(vib)   ...       0.10 
freq.     620.50  E(vib)   ...       0.09 
freq.     642.60  E(vib)   ...       0.09 
freq.     647.07  E(vib)   ...       0.09 
freq.     658.51  E(vib)   ...       0.08 
freq.     663.84  E(vib)   ...       0.08 
freq.     670.16  E(vib)   ...       0.08 
freq.     685.05  E(vib)   ...       0.07 
freq.     689.13  E(vib)   ...       0.07 
freq.     698.35  E(vib)   ...       0.07 
freq.     705.88  E(vib)   ...       0.07 
freq.     710.71  E(vib)   ...       0.07 
freq.     713.41  E(vib)   ...       0.07 
freq.     718.36  E(vib)   ...       0.07 
freq.     726.07  E(vib)   ...       0.06 
freq.     727.28  E(vib)   ...       0.06 
freq.     744.35  E(vib)   ...       0.06 
freq.     754.48  E(vib)   ...       0.06 
freq.     756.76  E(vib)   ...       0.06 
freq.     767.31  E(vib)   ...       0.06 
freq.     769.96  E(vib)   ...       0.05 
freq.     791.47  E(vib)   ...       0.05 
freq.     795.17  E(vib)   ...       0.05 
freq.     807.18  E(vib)   ...       0.05 
freq.     816.52  E(vib)   ...       0.05 
freq.     826.17  E(vib)   ...       0.04 
freq.     835.34  E(vib)   ...       0.04 
freq.     846.70  E(vib)   ...       0.04 
freq.     858.40  E(vib)   ...       0.04 
freq.     863.48  E(vib)   ...       0.04 
freq.     872.80  E(vib)   ...       0.04 
freq.     877.73  E(vib)   ...       0.04 
freq.     881.26  E(vib)   ...       0.04 
freq.     889.51  E(vib)   ...       0.04 
freq.     894.78  E(vib)   ...       0.03 
freq.     898.50  E(vib)   ...       0.03 
freq.     902.80  E(vib)   ...       0.03 
freq.     905.16  E(vib)   ...       0.03 
freq.     908.88  E(vib)   ...       0.03 
freq.     915.37  E(vib)   ...       0.03 
freq.     919.69  E(vib)   ...       0.03 
freq.     928.64  E(vib)   ...       0.03 
freq.     932.00  E(vib)   ...       0.03 
freq.     934.90  E(vib)   ...       0.03 
freq.     938.42  E(vib)   ...       0.03 
freq.     944.31  E(vib)   ...       0.03 
freq.     946.69  E(vib)   ...       0.03 
freq.     949.76  E(vib)   ...       0.03 
freq.     956.70  E(vib)   ...       0.03 
freq.     977.21  E(vib)   ...       0.03 
freq.     978.77  E(vib)   ...       0.03 
freq.     981.91  E(vib)   ...       0.02 
freq.     983.73  E(vib)   ...       0.02 
freq.     996.82  E(vib)   ...       0.02 
freq.    1001.01  E(vib)   ...       0.02 
freq.    1007.65  E(vib)   ...       0.02 
freq.    1011.04  E(vib)   ...       0.02 
freq.    1015.35  E(vib)   ...       0.02 
freq.    1023.06  E(vib)   ...       0.02 
freq.    1035.73  E(vib)   ...       0.02 
freq.    1036.34  E(vib)   ...       0.02 
freq.    1044.82  E(vib)   ...       0.02 
freq.    1049.56  E(vib)   ...       0.02 
freq.    1051.28  E(vib)   ...       0.02 
freq.    1051.91  E(vib)   ...       0.02 
freq.    1062.60  E(vib)   ...       0.02 
freq.    1067.38  E(vib)   ...       0.02 
freq.    1069.45  E(vib)   ...       0.02 
freq.    1071.98  E(vib)   ...       0.02 
freq.    1076.16  E(vib)   ...       0.02 
freq.    1086.80  E(vib)   ...       0.02 
freq.    1091.27  E(vib)   ...       0.02 
freq.    1092.48  E(vib)   ...       0.02 
freq.    1094.76  E(vib)   ...       0.02 
freq.    1099.98  E(vib)   ...       0.02 
freq.    1111.64  E(vib)   ...       0.01 
freq.    1115.47  E(vib)   ...       0.01 
freq.    1120.41  E(vib)   ...       0.01 
freq.    1125.18  E(vib)   ...       0.01 
freq.    1136.44  E(vib)   ...       0.01 
freq.    1141.40  E(vib)   ...       0.01 
freq.    1143.94  E(vib)   ...       0.01 
freq.    1157.17  E(vib)   ...       0.01 
freq.    1163.41  E(vib)   ...       0.01 
freq.    1165.81  E(vib)   ...       0.01 
freq.    1168.81  E(vib)   ...       0.01 
freq.    1172.93  E(vib)   ...       0.01 
freq.    1174.39  E(vib)   ...       0.01 
freq.    1185.78  E(vib)   ...       0.01 
freq.    1191.47  E(vib)   ...       0.01 
freq.    1194.34  E(vib)   ...       0.01 
freq.    1200.21  E(vib)   ...       0.01 
freq.    1203.01  E(vib)   ...       0.01 
freq.    1209.25  E(vib)   ...       0.01 
freq.    1216.49  E(vib)   ...       0.01 
freq.    1225.52  E(vib)   ...       0.01 
freq.    1232.76  E(vib)   ...       0.01 
freq.    1234.37  E(vib)   ...       0.01 
freq.    1235.31  E(vib)   ...       0.01 
freq.    1240.67  E(vib)   ...       0.01 
freq.    1244.40  E(vib)   ...       0.01 
freq.    1248.29  E(vib)   ...       0.01 
freq.    1254.34  E(vib)   ...       0.01 
freq.    1257.00  E(vib)   ...       0.01 
freq.    1263.06  E(vib)   ...       0.01 
freq.    1264.20  E(vib)   ...       0.01 
freq.    1267.37  E(vib)   ...       0.01 
freq.    1275.87  E(vib)   ...       0.01 
freq.    1277.63  E(vib)   ...       0.01 
freq.    1278.38  E(vib)   ...       0.01 
freq.    1282.18  E(vib)   ...       0.01 
freq.    1282.78  E(vib)   ...       0.01 
freq.    1286.64  E(vib)   ...       0.01 
freq.    1287.22  E(vib)   ...       0.01 
freq.    1293.87  E(vib)   ...       0.01 
freq.    1295.69  E(vib)   ...       0.01 
freq.    1296.99  E(vib)   ...       0.01 
freq.    1299.37  E(vib)   ...       0.01 
freq.    1306.43  E(vib)   ...       0.01 
freq.    1311.18  E(vib)   ...       0.01 
freq.    1314.17  E(vib)   ...       0.01 
freq.    1314.61  E(vib)   ...       0.01 
freq.    1317.64  E(vib)   ...       0.01 
freq.    1321.20  E(vib)   ...       0.01 
freq.    1323.75  E(vib)   ...       0.01 
freq.    1329.86  E(vib)   ...       0.01 
freq.    1334.59  E(vib)   ...       0.01 
freq.    1337.91  E(vib)   ...       0.01 
freq.    1342.11  E(vib)   ...       0.01 
freq.    1347.07  E(vib)   ...       0.01 
freq.    1348.68  E(vib)   ...       0.01 
freq.    1348.87  E(vib)   ...       0.01 
freq.    1352.26  E(vib)   ...       0.01 
freq.    1353.49  E(vib)   ...       0.01 
freq.    1358.33  E(vib)   ...       0.01 
freq.    1358.49  E(vib)   ...       0.01 
freq.    1363.42  E(vib)   ...       0.01 
freq.    1364.08  E(vib)   ...       0.01 
freq.    1365.12  E(vib)   ...       0.01 
freq.    1369.45  E(vib)   ...       0.01 
freq.    1371.47  E(vib)   ...       0.01 
freq.    1373.65  E(vib)   ...       0.01 
freq.    1376.00  E(vib)   ...       0.01 
freq.    1389.58  E(vib)   ...       0.00 
freq.    1402.38  E(vib)   ...       0.00 
freq.    1427.42  E(vib)   ...       0.00 
freq.    1431.62  E(vib)   ...       0.00 
freq.    1433.50  E(vib)   ...       0.00 
freq.    1433.75  E(vib)   ...       0.00 
freq.    1434.92  E(vib)   ...       0.00 
freq.    1436.53  E(vib)   ...       0.00 
freq.    1437.46  E(vib)   ...       0.00 
freq.    1438.41  E(vib)   ...       0.00 
freq.    1438.98  E(vib)   ...       0.00 
freq.    1442.62  E(vib)   ...       0.00 
freq.    1444.29  E(vib)   ...       0.00 
freq.    1445.44  E(vib)   ...       0.00 
freq.    1446.07  E(vib)   ...       0.00 
freq.    1446.38  E(vib)   ...       0.00 
freq.    1447.50  E(vib)   ...       0.00 
freq.    1448.27  E(vib)   ...       0.00 
freq.    1451.06  E(vib)   ...       0.00 
freq.    1453.55  E(vib)   ...       0.00 
freq.    1453.66  E(vib)   ...       0.00 
freq.    1454.55  E(vib)   ...       0.00 
freq.    1455.40  E(vib)   ...       0.00 
freq.    1455.80  E(vib)   ...       0.00 
freq.    1458.86  E(vib)   ...       0.00 
freq.    1460.77  E(vib)   ...       0.00 
freq.    1465.04  E(vib)   ...       0.00 
freq.    1466.51  E(vib)   ...       0.00 
freq.    1467.31  E(vib)   ...       0.00 
freq.    1476.94  E(vib)   ...       0.00 
freq.    1487.72  E(vib)   ...       0.00 
freq.    1498.25  E(vib)   ...       0.00 
freq.    1501.32  E(vib)   ...       0.00 
freq.    1506.61  E(vib)   ...       0.00 
freq.    1639.40  E(vib)   ...       0.00 
freq.    1647.67  E(vib)   ...       0.00 
freq.    1656.15  E(vib)   ...       0.00 
freq.    1675.61  E(vib)   ...       0.00 
freq.    1690.33  E(vib)   ...       0.00 
freq.    1717.42  E(vib)   ...       0.00 
freq.    1724.97  E(vib)   ...       0.00 
freq.    2914.67  E(vib)   ...       0.00 
freq.    2918.73  E(vib)   ...       0.00 
freq.    2924.77  E(vib)   ...       0.00 
freq.    2925.97  E(vib)   ...       0.00 
freq.    2929.88  E(vib)   ...       0.00 
freq.    2933.43  E(vib)   ...       0.00 
freq.    2934.26  E(vib)   ...       0.00 
freq.    2941.06  E(vib)   ...       0.00 
freq.    2942.18  E(vib)   ...       0.00 
freq.    2944.84  E(vib)   ...       0.00 
freq.    2947.99  E(vib)   ...       0.00 
freq.    2949.46  E(vib)   ...       0.00 
freq.    2955.19  E(vib)   ...       0.00 
freq.    2955.73  E(vib)   ...       0.00 
freq.    2956.66  E(vib)   ...       0.00 
freq.    2956.95  E(vib)   ...       0.00 
freq.    2957.61  E(vib)   ...       0.00 
freq.    2957.94  E(vib)   ...       0.00 
freq.    2960.28  E(vib)   ...       0.00 
freq.    2960.80  E(vib)   ...       0.00 
freq.    2964.64  E(vib)   ...       0.00 
freq.    2965.04  E(vib)   ...       0.00 
freq.    2966.59  E(vib)   ...       0.00 
freq.    2967.76  E(vib)   ...       0.00 
freq.    2971.81  E(vib)   ...       0.00 
freq.    2974.56  E(vib)   ...       0.00 
freq.    2976.16  E(vib)   ...       0.00 
freq.    2976.66  E(vib)   ...       0.00 
freq.    2979.57  E(vib)   ...       0.00 
freq.    2980.47  E(vib)   ...       0.00 
freq.    2981.80  E(vib)   ...       0.00 
freq.    2985.52  E(vib)   ...       0.00 
freq.    2987.94  E(vib)   ...       0.00 
freq.    2988.06  E(vib)   ...       0.00 
freq.    2995.37  E(vib)   ...       0.00 
freq.    2995.45  E(vib)   ...       0.00 
freq.    2999.32  E(vib)   ...       0.00 
freq.    3006.19  E(vib)   ...       0.00 
freq.    3011.79  E(vib)   ...       0.00 
freq.    3013.11  E(vib)   ...       0.00 
freq.    3020.29  E(vib)   ...       0.00 
freq.    3021.85  E(vib)   ...       0.00 
freq.    3021.93  E(vib)   ...       0.00 
freq.    3027.69  E(vib)   ...       0.00 
freq.    3027.92  E(vib)   ...       0.00 
freq.    3030.16  E(vib)   ...       0.00 
freq.    3032.06  E(vib)   ...       0.00 
freq.    3033.02  E(vib)   ...       0.00 
freq.    3035.78  E(vib)   ...       0.00 
freq.    3040.39  E(vib)   ...       0.00 
freq.    3042.24  E(vib)   ...       0.00 
freq.    3043.44  E(vib)   ...       0.00 
freq.    3045.61  E(vib)   ...       0.00 
freq.    3047.78  E(vib)   ...       0.00 
freq.    3052.83  E(vib)   ...       0.00 
freq.    3055.02  E(vib)   ...       0.00 
freq.    3055.09  E(vib)   ...       0.00 
freq.    3065.56  E(vib)   ...       0.00 
freq.    3370.85  E(vib)   ...       0.00 
freq.    3413.61  E(vib)   ...       0.00 
freq.    3433.46  E(vib)   ...       0.00 
freq.    3505.85  E(vib)   ...       0.00 
freq.    3522.48  E(vib)   ...       0.00 
freq.    3697.10  E(vib)   ...       0.00 

------------
INNER ENERGY
------------

The inner energy is: U= E(el) + E(ZPE) + E(vib) + E(rot) + E(trans)
    E(el)   - is the total energy from the electronic structure calculation
              = E(kin-el) + E(nuc-el) + E(el-el) + E(nuc-nuc)
    E(ZPE)  - the the zero temperature vibrational energy from the frequency calculation
    E(vib)  - the the finite temperature correction to E(ZPE) due to population
              of excited vibrational states
    E(rot)  - is the rotational thermal energy
    E(trans)- is the translational thermal energy

Summary of contributions to the inner energy U:
Electronic energy                ...  -2380.07297565 Eh
Zero point energy                ...      0.97621948 Eh     612.59 kcal/mol
Thermal vibrational correction   ...      0.05482117 Eh      34.40 kcal/mol
Thermal rotational correction    ...      0.00141627 Eh       0.89 kcal/mol
Thermal translational correction ...      0.00141627 Eh       0.89 kcal/mol
-----------------------------------------------------------------------
Total thermal energy                  -2379.03910245 Eh


Summary of corrections to the electronic energy:
(perhaps to be used in another calculation)
Total thermal correction                  0.05765371 Eh      36.18 kcal/mol
Non-thermal (ZPE) correction              0.97621948 Eh     612.59 kcal/mol
-----------------------------------------------------------------------
Total correction                          1.03387320 Eh     648.76 kcal/mol


--------
ENTHALPY
--------

The enthalpy is H = U + kB*T
                kB is Boltzmann's constant
Total free energy                 ...  -2379.03910245 Eh 
Thermal Enthalpy correction       ...      0.00094421 Eh       0.59 kcal/mol
-----------------------------------------------------------------------
Total Enthalpy                    ...  -2379.03815825 Eh


Note: Only C1 symmetry has been detected, increase convergence thresholds 
      if your molecule has a higher symmetry. Symmetry factor of 1.0 is   
      used for the rotational entropy correction. 
 

Note: Rotational entropy computed according to Herzberg 
Infrared and Raman Spectra, Chapter V,1, Van Nostrand Reinhold, 1945 
Point Group:  C1, Symmetry Number:   1  
Rotational constants in cm-1:     0.002323     0.001296     0.001102 

Vibrational entropy computed according to the QRRHO of S. Grimme
Chem.Eur.J. 2012 18 9955


-------
ENTROPY
-------

The entropy contributions are T*S = T*(S(el)+S(vib)+S(rot)+S(trans))
     S(el)   - electronic entropy
     S(vib)  - vibrational entropy
     S(rot)  - rotational entropy
     S(trans)- translational entropy
The entropies will be listed as mutliplied by the temperature to get
units of energy

Electronic entropy                ...      0.00000000 Eh      0.00 kcal/mol
Vibrational entropy               ...      0.10007219 Eh     62.80 kcal/mol
Rotational entropy                ...      0.01872796 Eh     11.75 kcal/mol
Translational entropy             ...      0.02166895 Eh     13.60 kcal/mol
-----------------------------------------------------------------------
Final entropy term                ...      0.14046911 Eh     88.15 kcal/mol

In case the symmetry of your molecule has not been determined correctly
or in case you have a reason to use a different symmetry number we print 
out the resulting rotational entropy values for sn=1,12 :
 --------------------------------------------------------
|  sn= 1 | S(rot)=       0.01872796 Eh     11.75 kcal/mol|
|  sn= 2 | S(rot)=       0.01807351 Eh     11.34 kcal/mol|
|  sn= 3 | S(rot)=       0.01769068 Eh     11.10 kcal/mol|
|  sn= 4 | S(rot)=       0.01741905 Eh     10.93 kcal/mol|
|  sn= 5 | S(rot)=       0.01720836 Eh     10.80 kcal/mol|
|  sn= 6 | S(rot)=       0.01703622 Eh     10.69 kcal/mol|
|  sn= 7 | S(rot)=       0.01689067 Eh     10.60 kcal/mol|
|  sn= 8 | S(rot)=       0.01676460 Eh     10.52 kcal/mol|
|  sn= 9 | S(rot)=       0.01665339 Eh     10.45 kcal/mol|
|  sn=10 | S(rot)=       0.01655391 Eh     10.39 kcal/mol|
|  sn=11 | S(rot)=       0.01646392 Eh     10.33 kcal/mol|
|  sn=12 | S(rot)=       0.01638176 Eh     10.28 kcal/mol|
 --------------------------------------------------------


-------------------
GIBBS FREE ENERGY
-------------------

The Gibbs free energy is G = H - T*S

Total enthalpy                    ...  -2379.03815825 Eh 
Total entropy correction          ...     -0.14046911 Eh    -88.15 kcal/mol
-----------------------------------------------------------------------
Final Gibbs free energy         ...  -2379.17862735 Eh

For completeness - the Gibbs free energy minus the electronic energy
G-E(el)                           ...      0.89434830 Eh    561.21 kcal/mol

--------------------------------------------------------------------------
WARNING: No preset parameters were found for the device that Open MPI
detected:

  Local host:            eu-g1-029-4
  Device name:           mlx5_0
  Device vendor ID:      0x02c9
  Device vendor part ID: 4123

Default device parameters will be used, which may result in lower
performance.  You can edit any of the files specified by the
btl_openib_device_param_files MCA parameter to set values for your
device.

NOTE: You can turn off this warning by setting the MCA parameter
      btl_openib_warn_no_device_params_found to 0.
--------------------------------------------------------------------------
--------------------------------------------------------------------------
WARNING: There was an error initializing an OpenFabrics device.

  Local host:   eu-g1-029-4
  Local device: mlx5_0
--------------------------------------------------------------------------

Timings for individual modules:

Sum of individual times         ...    41062.022 sec (= 684.367 min)
GTO integral calculation        ...       52.874 sec (=   0.881 min)   0.1 %
SCF iterations                  ...     1321.670 sec (=  22.028 min)   3.2 %
SCF Gradient evaluation         ...      563.029 sec (=   9.384 min)   1.4 %
Geometry relaxation             ...       21.456 sec (=   0.358 min)   0.1 %
Analytical frequency calculation...    39102.994 sec (= 651.717 min)  95.2 %
                             ****ORCA TERMINATED NORMALLY****
TOTAL RUN TIME: 0 days 11 hours 24 minutes 52 seconds 832 msec
