
                                 *****************
                                 * O   R   C   A *
                                 *****************

           --- An Ab Initio, DFT and Semiempirical electronic structure package ---

                  #######################################################
                  #                        -***-                        #
                  #          Department of theory and spectroscopy      #
                  #               Directorship: Frank Neese             #
                  #        Max Planck Institute fuer Kohlenforschung    #
                  #                Kaiser Wilhelm Platz 1               #
                  #                 D-45470 Muelheim/Ruhr               #
                  #                      Germany                        #
                  #                                                     #
                  #                  All rights reserved                #
                  #                        -***-                        #
                  #######################################################


                         Program Version 4.2.0 -  RELEASE  -


 With contributions from (in alphabetic order):
   Daniel Aravena         : Magnetic Suceptibility
   Michael Atanasov       : Ab Initio Ligand Field Theory (pilot matlab implementation)
   Alexander A. Auer      : GIAO ZORA, VPT2
   Ute Becker             : Parallelization
   Giovanni Bistoni       : ED, misc. LED, open-shell LED, HFLED
   Martin Brehm           : Molecular dynamics
   Dmytro Bykov           : SCF Hessian
   Vijay G. Chilkuri      : MRCI spin determinant printing, contributions to CSF-ICE
   Dipayan Datta          : RHF DLPNO-CCSD density
   Achintya Kumar Dutta   : EOM-CC, STEOM-CC
   Dmitry Ganyushin       : Spin-Orbit,Spin-Spin,Magnetic field MRCI
   Miquel Garcia          : C-PCM Hessian, Gaussian charge scheme
   Yang Guo               : DLPNO-NEVPT2, CIM, IAO-localization
   Andreas Hansen         : Spin unrestricted coupled pair/coupled cluster methods
   Benjamin Helmich-Paris : CASSCF linear response (MC-RPA)
   Lee Huntington         : MR-EOM, pCC
   Robert Izsak           : Overlap fitted RIJCOSX, COSX-SCS-MP3, EOM
   Christian Kollmar      : KDIIS, OOCD, Brueckner-CCSD(T), CCSD density
   Simone Kossmann        : Meta GGA functionals, TD-DFT gradient, OOMP2, MP2 Hessian
   Martin Krupicka        : AUTO-CI
   Lucas Lang             : DCDCAS
   Dagmar Lenk            : GEPOL surface, SMD
   Dimitrios Liakos       : Extrapolation schemes; Compound Job, initial MDCI parallelization
   Dimitrios Manganas     : Further ROCIS development; embedding schemes
   Dimitrios Pantazis     : SARC Basis sets
   Taras Petrenko         : DFT Hessian,TD-DFT gradient, ASA, ECA, R-Raman, ABS, FL, XAS/XES, NRVS
   Peter Pinski           : DLPNO-MP2, DLPNO-MP2 Gradient
   Christoph Reimann      : Effective Core Potentials
   Marius Retegan         : Local ZFS, SOC
   Christoph Riplinger    : Optimizer, TS searches, QM/MM, DLPNO-CCSD(T), (RO)-DLPNO pert. Triples
   Tobias Risthaus        : Range-separated hybrids, TD-DFT gradient, RPA, STAB
   Michael Roemelt        : Original ROCIS implementation
   Masaaki Saitow         : Open-shell DLPNO-CCSD energy and density
   Barbara Sandhoefer     : DKH picture change effects
   Avijit Sen             : IP-ROCIS
   Kantharuban Sivalingam : CASSCF convergence, NEVPT2, FIC-MRCI
   Bernardo de Souza      : ESD, SOC TD-DFT
   Georgi Stoychev        : AutoAux, RI-MP2 NMR
   Willem Van den Heuvel  : Paramagnetic NMR
   Boris Wezisla          : Elementary symmetry handling
   Frank Wennmohs         : Technical directorship


 We gratefully acknowledge several colleagues who have allowed us to
 interface, adapt or use parts of their codes:
   Stefan Grimme, W. Hujo, H. Kruse,             : VdW corrections, initial TS optimization,
                  C. Bannwarth                     DFT functionals, gCP, sTDA/sTD-DF
   Ed Valeev, F. Pavosevic, A. Kumar             : LibInt (2-el integral package), F12 methods
   Garnet Chan, S. Sharma, J. Yang, R. Olivares  : DMRG
   Ulf Ekstrom                                   : XCFun DFT Library
   Mihaly Kallay                                 : mrcc  (arbitrary order and MRCC methods)
   Andreas Klamt, Michael Diedenhofen            : otool_cosmo (COSMO solvation model)
   Jiri Pittner, Ondrej Demel                    : Mk-CCSD
   Frank Weinhold                                : gennbo (NPA and NBO analysis)
   Christopher J. Cramer and Donald G. Truhlar   : smd solvation model
   Lars Goerigk                                  : TD-DFT with DH, B97 family of functionals
   V. Asgeirsson, H. Jonsson                     : NEB implementation
   FAccTs GmbH                                   : IRC, NEB, NEB-TS, Multilevel, MM, QM/MM, CI optimization
   S Lehtola, MJT Oliveira, MAL Marques          : LibXC Library


 Your calculation uses the libint2 library for the computation of 2-el integrals
 For citations please refer to: http://libint.valeyev.net

 Your ORCA version has been built with support for libXC version: 4.2.3
 For citations please refer to: https://tddft.org/programs/libxc/

 This ORCA versions uses:
   CBLAS   interface :  Fast vector & matrix operations
   LAPACKE interface :  Fast linear algebra routines
   SCALAPACK package :  Parallel linear algebra routines




***************************************
The coordinates will be read from file: 28.xyz
***************************************


Your calculation utilizes the atom-pairwise dispersion correction
with the Becke-Johnson damping scheme (D3BJ)
Cite in your paper:
S.Grimme, S.Ehrlich, L.Goerigk, J Comput Chem, (2011), 32, 1456–1465 
S.Grimme, J.Antony, S.Ehrlich and H.Krieg, J.Chem.Phys., 132, (2010), 154104 
   

----- Orbital basis set information -----
Your calculation utilizes the basis: def2-TZVP
   F. Weigend and R. Ahlrichs, Phys. Chem. Chem. Phys. 7, 3297 (2005).

----- AuxJ basis set information -----
Your calculation utilizes the auxiliary basis: def2/J
   F. Weigend, Phys. Chem. Chem. Phys. 8, 1057 (2006).

================================================================================
                                        WARNINGS
                       Please study these warnings very carefully!
================================================================================


WARNING: Geometry Optimization
  ===> : Switching off AutoStart
         For restart on a previous wavefunction, please use MOREAD

INFO   : the flag for use of LIBINT has been found!

================================================================================
                                       INPUT FILE
================================================================================
NAME = 28.inp
|  1> !RI BP86 def2-tzvp def2/J D3BJ TIGHTSCF TightOpt Grid5 FinalGrid6 freq
|  2> %maxcore 4000
|  3> %pal nprocs 24
|  4> end
|  5> * xyzfile 0 1 28.xyz 
|  6> 
|  7>                          ****END OF INPUT****
================================================================================

                       *****************************
                       * Geometry Optimization Run *
                       *****************************

Geometry optimization settings:
Update method            Update   .... BFGS
Choice of coordinates    CoordSys .... Z-matrix Internals
Initial Hessian          InHess   .... Almoef's Model

Convergence Tolerances:
Energy Change            TolE     ....  1.0000e-06 Eh
Max. Gradient            TolMAXG  ....  1.0000e-04 Eh/bohr
RMS Gradient             TolRMSG  ....  3.0000e-05 Eh/bohr
Max. Displacement        TolMAXD  ....  1.0000e-03 bohr
RMS Displacement         TolRMSD  ....  6.0000e-04 bohr
Strict Convergence                ....  False
------------------------------------------------------------------------------
                        ORCA OPTIMIZATION COORDINATE SETUP
------------------------------------------------------------------------------

The optimization will be done in new redundant internal coordinates
Making redundant internal coordinates   ...  (new redundants) done
Evaluating the initial hessian          ...  (Almloef) done
Evaluating the coordinates              ...  done
Calculating the B-matrix                .... done
Calculating the G-matrix                .... done
Diagonalizing the G-matrix              .... done
Small eigenvalue found = 3.291e-04
Small eigenvalue found = 5.760e-04
Small eigenvalue found = 1.815e-03
Small eigenvalue found = 3.162e-03
Small eigenvalue found = 4.330e-03
Small eigenvalue found = 4.856e-03
Small eigenvalue found = 6.289e-03
Small eigenvalue found = 7.161e-03
Small eigenvalue found = 8.321e-03
Small eigenvalue found = 9.323e-03
Small eigenvalue found = 1.098e-02
Small eigenvalue found = 1.102e-02
Small eigenvalue found = 1.434e-02
Small eigenvalue found = 1.619e-02
Small eigenvalue found = 1.707e-02
Small eigenvalue found = 2.014e-02
Small eigenvalue found = 2.383e-02
Small eigenvalue found = 2.652e-02
Small eigenvalue found = 2.871e-02
The first mode is                       ....  326
The number of degrees of freedom        ....  339

    -----------------------------------------------------------------
                    Redundant Internal Coordinates


    -----------------------------------------------------------------
         Definition                    Initial Value    Approx d2E/dq
    -----------------------------------------------------------------
      1. B(C   1,O   0)                  1.2290         1.010840   
      2. B(C   2,C   1)                  1.5371         0.363934   
      3. B(C   3,C   2)                  1.5425         0.356826   
      4. B(C   4,C   3)                  1.5354         0.366268   
      5. B(C   5,C   4)                  1.5288         0.375258   
      6. B(N   6,C   2)                  1.4726         0.413081   
      7. B(N   6,C   5)                  1.4773         0.406068   
      8. B(C   7,N   6)                  1.3584         0.628537   
      9. B(O   8,C   7)                  1.2431         0.959824   
     10. B(N   9,C   1)                  1.3627         0.618559   
     11. B(C  10,N   9)                  1.4550         0.440752   
     12. B(C  11,C  10)                  1.5461         0.352114   
     13. B(N  12,C  11)                  1.3610         0.622426   
     14. B(C  13,N  12)                  1.4499         0.449016   
     15. B(C  14,C  13)                  1.5502         0.346841   
     16. B(N  15,C  14)                  1.3489         0.650918   
     17. B(C  16,N  15)                  1.4668         0.421983   
     18. B(C  17,C  16)                  1.5352         0.366440   
     19. B(C  18,C  17)                  1.5440         0.354802   
     20. B(C  19,C  18)                  1.5327         0.369886   
     21. B(N  20,C  19)                  1.3692         0.603976   
     22. B(C  21,N  20)                  1.4557         0.439551   
     23. B(C  22,C  21)                  1.5409         0.358967   
     24. B(N  23,C  22)                  1.3690         0.604534   
     25. B(C  24,N  23)                  1.4623         0.429131   
     26. B(C  24,C   7)                  1.5364         0.364913   
     27. B(C  25,C  24)                  1.5250         0.380537   
     28. B(O  26,C  22)                  1.2311         1.003340   
     29. B(C  27,C  21)                  1.5392         0.361197   
     30. B(C  28,C  27)                  1.5348         0.366999   
     31. B(C  29,C  28)                  1.5324         0.370248   
     32. B(C  30,C  28)                  1.5319         0.370928   
     33. B(O  31,C  19)                  1.2304         1.005890   
     34. B(C  32,C  18)                  1.5426         0.356706   
     35. B(C  33,C  32)                  1.5109         0.400789   
     36. B(C  34,C  33)                  1.5382         0.362500   
     37. B(C  35,C  34)                  1.5289         0.375142   
     38. B(C  36,C  35)                  1.5303         0.373109   
     39. B(C  37,C  36)                  1.5303         0.373119   
     40. B(C  38,C  37)                  1.5304         0.373090   
     41. B(C  39,C  38)                  1.5302         0.373297   
     42. B(C  40,C  39)                  1.5310         0.372198   
     43. B(C  41,C  40)                  1.5299         0.373683   
     44. B(O  42,C  32)                  1.2234         1.032178   
     45. B(O  43,C  17)                  1.4375         0.470057   
     46. B(O  44,C  14)                  1.2432         0.959649   
     47. B(C  45,C  13)                  1.5400         0.360132   
     48. B(C  46,C  45)                  1.5290         0.374883   
     49. B(O  47,C  11)                  1.2337         0.993813   
     50. B(C  48,C  10)                  1.5492         0.348196   
     51. B(C  49,C  48)                  1.5338         0.368395   
     52. B(C  50,C  48)                  1.5326         0.369978   
     53. B(H  51,C   2)                  1.0985         0.348999   
     54. B(H  52,C   3)                  1.0996         0.347573   
     55. B(H  53,C   3)                  1.0959         0.352348   
     56. B(H  54,C   4)                  1.1009         0.345919   
     57. B(H  55,C   4)                  1.0968         0.351204   
     58. B(H  56,C   5)                  1.0949         0.353619   
     59. B(H  57,C   5)                  1.1032         0.343011   
     60. B(H  58,N   9)                  1.0176         0.420797   
     61. B(H  59,C  10)                  1.1044         0.341534   
     62. B(H  60,N  12)                  1.0230         0.412528   
     63. B(H  61,C  13)                  1.1039         0.342165   
     64. B(H  62,N  15)                  1.0153         0.424315   
     65. B(H  63,C  16)                  1.1044         0.341494   
     66. B(H  64,C  16)                  1.0997         0.347519   
     67. B(H  65,C  17)                  1.0958         0.352527   
     68. B(H  66,C  18)                  1.1012         0.345591   
     69. B(H  67,H  58)                  4.1720         0.000001   
     70. B(H  67,N  20)                  1.0215         0.414880   
     71. B(H  68,C  21)                  1.0967         0.351336   
     72. B(H  69,O  44)                  1.9808         0.012227   
     73. B(H  69,N  23)                  1.0269         0.406643   
     74. B(H  70,C  24)                  1.1002         0.346817   
     75. B(H  71,C  25)                  1.0974         0.350476   
     76. B(H  72,C  25)                  1.0979         0.349786   
     77. B(H  73,C  25)                  1.0980         0.349729   
     78. B(H  74,C  27)                  1.1050         0.340752   
     79. B(H  75,C  27)                  1.1032         0.343050   
     80. B(H  76,H  54)                  2.8645         0.000102   
     81. B(H  76,C  28)                  1.1039         0.342219   
     82. B(H  77,C  29)                  1.1000         0.347069   
     83. B(H  78,C  29)                  1.0994         0.347872   
     84. B(H  79,C  29)                  1.1015         0.345211   
     85. B(H  80,C  30)                  1.0976         0.350213   
     86. B(H  81,C  30)                  1.1020         0.344625   
     87. B(H  82,C  30)                  1.0996         0.347648   
     88. B(H  83,C  33)                  1.0965         0.351621   
     89. B(H  84,C  33)                  1.1024         0.344008   
     90. B(H  85,C  34)                  1.1015         0.345180   
     91. B(H  86,H  71)                  4.6748         0.000000   
     92. B(H  86,C  34)                  1.1003         0.346723   
     93. B(H  87,C  35)                  1.1040         0.342095   
     94. B(H  88,C  35)                  1.1046         0.341245   
     95. B(H  89,C  36)                  1.1043         0.341719   
     96. B(H  90,C  36)                  1.1039         0.342132   
     97. B(H  91,C  37)                  1.1044         0.341589   
     98. B(H  92,C  37)                  1.1045         0.341429   
     99. B(H  93,C  38)                  1.1044         0.341507   
    100. B(H  94,C  38)                  1.1043         0.341621   
    101. B(H  95,C  39)                  1.1046         0.341299   
    102. B(H  96,C  39)                  1.1046         0.341242   
    103. B(H  97,C  40)                  1.1034         0.342750   
    104. B(H  98,C  40)                  1.1034         0.342787   
    105. B(H  99,C  41)                  1.0995         0.347700   
    106. B(H 100,C  41)                  1.1008         0.346093   
    107. B(H 101,C  41)                  1.1008         0.346109   
    108. B(H 102,O  43)                  0.9720         0.497446   
    109. B(H 103,C  45)                  1.1041         0.341975   
    110. B(H 104,C  45)                  1.0996         0.347642   
    111. B(H 105,C  46)                  1.0983         0.349258   
    112. B(H 106,C  46)                  1.1001         0.346967   
    113. B(H 107,C  46)                  1.0976         0.350215   
    114. B(H 108,C  48)                  1.1042         0.341764   
    115. B(H 109,C  49)                  1.0951         0.353420   
    116. B(H 110,C  49)                  1.1018         0.344784   
    117. B(H 111,C  49)                  1.0997         0.347554   
    118. B(H 112,H  77)                  2.3507         0.000672   
    119. B(H 112,C  50)                  1.0982         0.349450   
    120. B(H 113,C  50)                  1.0991         0.348267   
    121. B(H 114,C  50)                  1.1007         0.346270   
    122. A(O   0,C   1,N   9)          123.9184         0.467919   
    123. A(C   2,C   1,N   9)          116.3680         0.392192   
    124. A(O   0,C   1,C   2)          119.7107         0.427841   
    125. A(C   1,C   2,H  51)          104.7750         0.321278   
    126. A(N   6,C   2,H  51)          110.1261         0.326067   
    127. A(C   1,C   2,N   6)          114.6195         0.365713   
    128. A(C   1,C   2,C   3)          111.5612         0.358916   
    129. A(C   3,C   2,H  51)          112.5100         0.320244   
    130. A(C   3,C   2,N   6)          103.4813         0.364481   
    131. A(C   4,C   3,H  53)          114.2347         0.322118   
    132. A(C   4,C   3,H  52)          110.2297         0.321399   
    133. A(C   2,C   3,C   4)          103.4528         0.359307   
    134. A(C   2,C   3,H  53)          111.2592         0.320744   
    135. A(C   2,C   3,H  52)          109.5844         0.320030   
    136. A(H  52,C   3,H  53)          107.9998         0.288245   
    137. A(H  54,C   4,H  55)          107.9326         0.287883   
    138. A(C   3,C   4,H  55)          113.3532         0.321946   
    139. A(C   3,C   4,C   5)          102.8986         0.362406   
    140. A(C   3,C   4,H  54)          110.3897         0.321148   
    141. A(C   5,C   4,H  55)          112.2700         0.323228   
    142. A(C   5,C   4,H  54)          109.9499         0.322426   
    143. A(H  56,C   5,H  57)          107.5602         0.287812   
    144. A(C   4,C   5,N   6)          102.5955         0.366561   
    145. A(C   4,C   5,H  56)          114.1368         0.323592   
    146. A(N   6,C   5,H  57)          109.9304         0.324227   
    147. A(N   6,C   5,H  56)          111.6339         0.325854   
    148. A(C   4,C   5,H  57)          110.9487         0.321980   
    149. A(C   5,N   6,C   7)          127.0435         0.398364   
    150. A(C   2,N   6,C   7)          120.5410         0.399566   
    151. A(C   2,N   6,C   5)          112.1572         0.370326   
    152. A(O   8,C   7,C  24)          121.6826         0.424096   
    153. A(N   6,C   7,O   8)          121.3749         0.464862   
    154. A(N   6,C   7,C  24)          116.8198         0.393477   
    155. A(C   1,N   9,C  10)          122.2491         0.403018   
    156. A(C  10,N   9,H  58)          118.8855         0.337053   
    157. A(C   1,N   9,H  58)          118.0130         0.356829   
    158. A(C  48,C  10,H  59)          108.3118         0.317843   
    159. A(C  11,C  10,H  59)          107.8092         0.318423   
    160. A(N   9,C  10,C  11)          109.8067         0.367714   
    161. A(N   9,C  10,C  48)          113.2180         0.367009   
    162. A(N   9,C  10,H  59)          104.5092         0.328398   
    163. A(C  11,C  10,C  48)          112.7096         0.355426   
    164. A(N  12,C  11,O  47)          121.9873         0.466997   
    165. A(C  10,C  11,O  47)          122.9891         0.424027   
    166. A(C  10,C  11,N  12)          115.0234         0.390359   
    167. A(C  13,N  12,H  60)          116.0185         0.336981   
    168. A(C  11,N  12,C  13)          120.2336         0.404786   
    169. A(C  11,N  12,H  60)          120.7444         0.356005   
    170. A(C  14,C  13,C  45)          115.9766         0.356551   
    171. A(N  12,C  13,H  61)          105.1177         0.329507   
    172. A(C  14,C  13,H  61)          105.3561         0.317737   
    173. A(N  12,C  13,C  14)          108.2149         0.367934   
    174. A(C  45,C  13,H  61)          108.4141         0.319692   
    175. A(N  12,C  13,C  45)          112.9461         0.370318   
    176. A(C  13,C  14,N  15)          115.9523         0.392390   
    177. A(N  15,C  14,O  44)          124.0701         0.467835   
    178. A(C  13,C  14,O  44)          119.7974         0.420252   
    179. A(C  14,N  15,H  62)          115.4171         0.360449   
    180. A(C  16,N  15,H  62)          114.5932         0.335085   
    181. A(C  14,N  15,C  16)          129.4333         0.403549   
    182. A(H  63,C  16,H  64)          108.1022         0.286832   
    183. A(C  17,C  16,H  64)          107.8038         0.321416   
    184. A(N  15,C  16,H  63)          108.6464         0.326045   
    185. A(C  17,C  16,H  63)          107.7980         0.320497   
    186. A(N  15,C  16,C  17)          116.6549         0.367484   
    187. A(N  15,C  16,H  64)          107.5629         0.326985   
    188. A(O  43,C  17,H  65)          109.2109         0.333659   
    189. A(C  18,C  17,H  65)          110.2850         0.320473   
    190. A(C  16,C  17,H  65)          108.8410         0.322170   
    191. A(C  16,C  17,C  18)          112.8245         0.358988   
    192. A(C  18,C  17,O  43)          107.4443         0.372291   
    193. A(C  16,C  17,O  43)          108.1547         0.374368   
    194. A(C  19,C  18,H  66)          104.0714         0.321615   
    195. A(C  17,C  18,H  66)          106.8908         0.319434   
    196. A(C  17,C  18,C  32)          109.1448         0.357347   
    197. A(C  17,C  18,C  19)          116.4522         0.359560   
    198. A(C  19,C  18,C  32)          114.6491         0.359888   
    199. A(C  32,C  18,H  66)          104.4947         0.319713   
    200. A(C  18,C  19,N  20)          115.0540         0.391668   
    201. A(N  20,C  19,O  31)          122.8536         0.465460   
    202. A(C  18,C  19,O  31)          121.8761         0.428710   
    203. A(C  19,N  20,H  67)          115.2154         0.354534   
    204. A(C  19,N  20,C  21)          121.0259         0.401134   
    205. A(C  21,N  20,H  67)          115.4185         0.336106   
    206. A(C  27,C  21,H  68)          111.2046         0.321232   
    207. A(C  22,C  21,H  68)          105.2228         0.320907   
    208. A(N  20,C  21,H  68)          108.7990         0.329787   
    209. A(N  20,C  21,C  22)          112.5983         0.368759   
    210. A(C  22,C  21,C  27)          110.9120         0.358820   
    211. A(N  20,C  21,C  27)          108.1057         0.369152   
    212. A(C  21,C  22,N  23)          115.1776         0.389685   
    213. A(C  21,C  22,O  26)          121.4720         0.426220   
    214. A(N  23,C  22,O  26)          123.2470         0.465322   
    215. A(C  22,N  23,C  24)          121.4810         0.399508   
    216. A(C  24,N  23,H  69)          116.7170         0.333655   
    217. A(C  22,N  23,H  69)          119.7486         0.353387   
    218. A(C  25,C  24,H  70)          110.1870         0.323303   
    219. A(N  23,C  24,H  70)          105.3186         0.327782   
    220. A(C   7,C  24,H  70)          110.1730         0.321090   
    221. A(N  23,C  24,C  25)          111.1357         0.370944   
    222. A(C   7,C  24,N  23)          107.9958         0.368281   
    223. A(C   7,C  24,C  25)          111.8130         0.363042   
    224. A(H  71,C  25,H  73)          109.0641         0.288283   
    225. A(C  24,C  25,H  73)          110.7043         0.323746   
    226. A(H  71,C  25,H  72)          109.1823         0.288291   
    227. A(C  24,C  25,H  72)          110.8788         0.323755   
    228. A(C  24,C  25,H  71)          109.3189         0.323860   
    229. A(H  72,C  25,H  73)          107.6501         0.288194   
    230. A(C  28,C  27,H  75)          109.2720         0.320816   
    231. A(C  21,C  27,C  28)          116.3079         0.360175   
    232. A(H  74,C  27,H  75)          106.4456         0.286156   
    233. A(C  21,C  27,H  75)          107.4772         0.319981   
    234. A(C  28,C  27,H  74)          108.8353         0.320463   
    235. A(C  21,C  27,H  74)          108.0649         0.319630   
    236. A(C  29,C  28,C  30)          111.3161         0.362356   
    237. A(C  27,C  28,C  30)          112.2240         0.361812   
    238. A(C  27,C  28,C  29)          109.4912         0.361698   
    239. A(C  30,C  28,H  76)          107.6793         0.321248   
    240. A(C  29,C  28,H  76)          107.9353         0.321151   
    241. A(C  27,C  28,H  76)          108.0322         0.320689   
    242. A(C  28,C  29,H  79)          110.7906         0.321609   
    243. A(H  78,C  29,H  79)          107.6212         0.287362   
    244. A(H  77,C  29,H  79)          107.6192         0.287259   
    245. A(H  77,C  29,H  78)          107.9471         0.287604   
    246. A(C  28,C  29,H  78)          111.0694         0.322014   
    247. A(C  28,C  29,H  77)          111.6219         0.321892   
    248. A(H  81,C  30,H  82)          107.6395         0.287257   
    249. A(H  80,C  30,H  82)          107.7102         0.287980   
    250. A(C  28,C  30,H  82)          110.6310         0.322076   
    251. A(H  80,C  30,H  81)          108.6740         0.287587   
    252. A(C  28,C  30,H  81)          110.6494         0.321616   
    253. A(C  28,C  30,H  80)          111.4053         0.322465   
    254. A(C  33,C  32,O  42)          121.6470         0.436961   
    255. A(C  18,C  32,O  42)          117.8459         0.427904   
    256. A(C  18,C  32,C  33)          120.4656         0.364853   
    257. A(C  32,C  33,C  34)          111.5811         0.365861   
    258. A(C  34,C  33,H  84)          109.5798         0.320316   
    259. A(H  83,C  33,H  84)          108.1164         0.287687   
    260. A(C  32,C  33,H  84)          106.0834         0.325633   
    261. A(C  34,C  33,H  83)          110.4329         0.321464   
    262. A(C  32,C  33,H  83)          110.8912         0.326808   
    263. A(C  33,C  34,C  35)          112.2700         0.361747   
    264. A(H  85,C  34,H  86)          107.3707         0.287210   
    265. A(C  35,C  34,H  86)          109.7391         0.322532   
    266. A(C  33,C  34,H  86)          108.4731         0.320727   
    267. A(C  35,C  34,H  85)          110.1514         0.322297   
    268. A(C  33,C  34,H  85)          108.6971         0.320494   
    269. A(C  34,C  35,C  36)          113.0162         0.363534   
    270. A(H  87,C  35,H  88)          106.1220         0.286096   
    271. A(C  36,C  35,H  88)          109.4044         0.321406   
    272. A(C  34,C  35,H  88)          109.5659         0.321692   
    273. A(C  36,C  35,H  87)          109.2315         0.321537   
    274. A(C  34,C  35,H  87)          109.2668         0.321823   
    275. A(C  35,C  36,C  37)          113.4481         0.363198   
    276. A(H  89,C  36,H  90)          105.9773         0.286163   
    277. A(C  37,C  36,H  90)          109.3286         0.321544   
    278. A(C  35,C  36,H  90)          109.1757         0.321543   
    279. A(C  37,C  36,H  89)          109.3323         0.321481   
    280. A(C  35,C  36,H  89)          109.3078         0.321479   
    281. A(C  36,C  37,C  38)          113.5298         0.363195   
    282. A(H  91,C  37,H  92)          105.9133         0.286054   
    283. A(C  38,C  37,H  92)          109.2777         0.321432   
    284. A(C  36,C  37,H  92)          109.3199         0.321436   
    285. A(C  38,C  37,H  91)          109.2710         0.321456   
    286. A(C  36,C  37,H  91)          109.2481         0.321460   
    287. A(C  37,C  38,C  39)          113.5611         0.363225   
    288. A(H  93,C  38,H  94)          105.8933         0.286068   
    289. A(C  39,C  38,H  94)          109.2863         0.321490   
    290. A(C  37,C  38,H  94)          109.2524         0.321461   
    291. A(C  39,C  38,H  93)          109.2873         0.321473   
    292. A(C  37,C  38,H  93)          109.2759         0.321444   
    293. A(C  38,C  39,C  40)          113.6134         0.363076   
    294. A(H  95,C  39,H  96)          105.8600         0.285992   
    295. A(C  40,C  39,H  96)          109.2302         0.321277   
    296. A(C  38,C  39,H  96)          109.3180         0.321432   
    297. A(C  40,C  39,H  95)          109.2271         0.321286   
    298. A(C  38,C  39,H  95)          109.3014         0.321441   
    299. A(C  39,C  40,C  41)          113.1513         0.363140   
    300. A(H  97,C  40,H  98)          105.9327         0.286382   
    301. A(C  41,C  40,H  98)          109.6291         0.321724   
    302. A(C  39,C  40,H  98)          109.1181         0.321515   
    303. A(C  41,C  40,H  97)          109.6305         0.321719   
    304. A(C  39,C  40,H  97)          109.1227         0.321509   
    305. A(H 100,C  41,H 101)          107.4318         0.287249   
    306. A(H  99,C  41,H 101)          107.6879         0.287457   
    307. A(C  40,C  41,H 101)          111.0787         0.322233   
    308. A(H  99,C  41,H 100)          107.6895         0.287455   
    309. A(C  40,C  41,H 100)          111.0837         0.322230   
    310. A(C  40,C  41,H  99)          111.6764         0.322475   
    311. A(C  17,O  43,H 102)          108.2477         0.350409   
    312. A(C  13,C  45,C  46)          112.2147         0.361301   
    313. A(C  46,C  45,H 104)          110.4223         0.322636   
    314. A(C  13,C  45,H 104)          108.6810         0.320523   
    315. A(C  46,C  45,H 103)          108.2194         0.321768   
    316. A(C  13,C  45,H 103)          109.1149         0.319663   
    317. A(H 103,C  45,H 104)          108.0968         0.286910   
    318. A(H 106,C  46,H 107)          107.7456         0.287892   
    319. A(H 105,C  46,H 107)          108.1395         0.288189   
    320. A(C  45,C  46,H 107)          110.8005         0.323026   
    321. A(H 105,C  46,H 106)          108.0259         0.287769   
    322. A(C  45,C  46,H 106)          111.3054         0.322533   
    323. A(C  45,C  46,H 105)          110.6946         0.322881   
    324. A(C  50,C  48,H 108)          109.1151         0.321043   
    325. A(C  49,C  48,H 108)          108.4225         0.320818   
    326. A(C  10,C  48,H 108)          107.7441         0.317878   
    327. A(C  49,C  48,C  50)          110.0671         0.361887   
    328. A(C  10,C  48,C  50)          110.7858         0.358427   
    329. A(C  10,C  48,C  49)          110.6323         0.358165   
    330. A(H 110,C  49,H 111)          107.6431         0.287266   
    331. A(H 109,C  49,H 111)          108.6853         0.288379   
    332. A(C  48,C  49,H 111)          110.2889         0.321701   
    333. A(H 109,C  49,H 110)          108.8052         0.288018   
    334. A(C  48,C  49,H 110)          110.0909         0.321280   
    335. A(C  48,C  49,H 109)          111.2365         0.322584   
    336. A(H 113,C  50,H 114)          107.9974         0.287551   
    337. A(H 112,C  50,H 114)          107.5654         0.287703   
    338. A(C  48,C  50,H 114)          110.7693         0.321732   
    339. A(H 112,C  50,H 113)          107.9430         0.287962   
    340. A(C  48,C  50,H 113)          110.0513         0.322035   
    341. A(C  48,C  50,H 112)          112.3599         0.322214   
    342. D(H  51,C   2,C   1,N   9)   -133.3232         0.009943   
    343. D(C   3,C   2,C   1,N   9)    104.6751         0.009943   
    344. D(N   6,C   2,C   1,N   9)    -12.5062         0.009943   
    345. D(N   6,C   2,C   1,O   0)    168.0955         0.009943   
    346. D(C   3,C   2,C   1,O   0)    -74.7232         0.009943   
    347. D(H  51,C   2,C   1,O   0)     47.2785         0.009943   
    348. D(C   4,C   3,C   2,N   6)     27.1071         0.010228   
    349. D(H  53,C   3,C   2,H  51)    -90.9639         0.010228   
    350. D(H  53,C   3,C   2,C   1)     26.4608         0.010228   
    351. D(C   4,C   3,C   2,H  51)    145.9472         0.010228   
    352. D(H  53,C   3,C   2,N   6)    150.1960         0.010228   
    353. D(H  52,C   3,C   2,H  51)     28.4002         0.010228   
    354. D(C   4,C   3,C   2,C   1)    -96.6281         0.010228   
    355. D(H  52,C   3,C   2,C   1)    145.8249         0.010228   
    356. D(H  52,C   3,C   2,N   6)    -90.4399         0.010228   
    357. D(H  55,C   4,C   3,H  53)     78.4484         0.010738   
    358. D(H  55,C   4,C   3,H  52)    -43.3575         0.010738   
    359. D(H  54,C   4,C   3,H  52)   -164.5741         0.010738   
    360. D(H  55,C   4,C   3,C   2)   -160.4521         0.010738   
    361. D(H  54,C   4,C   3,H  53)    -42.7683         0.010738   
    362. D(C   5,C   4,C   3,C   2)    -38.9621         0.010738   
    363. D(H  54,C   4,C   3,C   2)     78.3313         0.010738   
    364. D(C   5,C   4,C   3,H  53)   -160.0616         0.010738   
    365. D(C   5,C   4,C   3,H  52)     78.1325         0.010738   
    366. D(N   6,C   5,C   4,C   3)     35.2633         0.011238   
    367. D(H  57,C   5,C   4,C   3)    -82.0947         0.011238   
    368. D(H  56,C   5,C   4,H  55)    -81.5774         0.011238   
    369. D(H  56,C   5,C   4,C   3)    156.1994         0.011238   
    370. D(H  57,C   5,C   4,H  54)    160.3009         0.011238   
    371. D(H  56,C   5,C   4,H  54)     38.5950         0.011238   
    372. D(H  57,C   5,C   4,H  55)     40.1285         0.011238   
    373. D(N   6,C   5,C   4,H  54)    -82.3411         0.011238   
    374. D(N   6,C   5,C   4,H  55)    157.4865         0.011238   
    375. D(C   5,N   6,C   2,C   3)     -5.0464         0.014554   
    376. D(C   7,N   6,C   5,H  57)    -75.1406         0.014071   
    377. D(C   7,N   6,C   5,H  56)     44.1382         0.014071   
    378. D(C   7,N   6,C   5,C   4)    166.7792         0.014071   
    379. D(C   2,N   6,C   5,H  57)     98.9879         0.014071   
    380. D(C   2,N   6,C   5,H  56)   -141.7334         0.014071   
    381. D(C   7,N   6,C   2,H  51)     49.0394         0.014554   
    382. D(C   2,N   6,C   5,C   4)    -19.0924         0.014071   
    383. D(C   7,N   6,C   2,C   3)    169.5135         0.014554   
    384. D(C   5,N   6,C   2,C   1)    116.6592         0.014554   
    385. D(C   7,N   6,C   2,C   1)    -68.7809         0.014554   
    386. D(C   5,N   6,C   2,H  51)   -125.5205         0.014554   
    387. D(C  24,C   7,N   6,C   5)     -8.2501         0.032059   
    388. D(C  24,C   7,N   6,C   2)    178.0656         0.032059   
    389. D(O   8,C   7,N   6,C   5)    175.7137         0.032059   
    390. D(O   8,C   7,N   6,C   2)      2.0294         0.032059   
    391. D(H  58,N   9,C   1,O   0)   -178.2852         0.030971   
    392. D(C  10,N   9,C   1,C   2)    171.6487         0.030971   
    393. D(H  58,N   9,C   1,C   2)      2.3445         0.030971   
    394. D(C  10,N   9,C   1,O   0)     -8.9810         0.030971   
    395. D(H  59,C  10,N   9,C   1)      1.1364         0.016565   
    396. D(C  48,C  10,N   9,H  58)    -71.9937         0.016565   
    397. D(C  48,C  10,N   9,C   1)    118.7918         0.016565   
    398. D(C  11,C  10,N   9,C   1)   -114.2672         0.016565   
    399. D(H  59,C  10,N   9,H  58)    170.3509         0.016565   
    400. D(C  11,C  10,N   9,H  58)     54.9473         0.016565   
    401. D(O  47,C  11,C  10,N   9)   -151.5262         0.009358   
    402. D(N  12,C  11,C  10,H  59)    -85.0125         0.009358   
    403. D(N  12,C  11,C  10,C  48)    155.5037         0.009358   
    404. D(N  12,C  11,C  10,N   9)     28.2776         0.009358   
    405. D(O  47,C  11,C  10,H  59)     95.1837         0.009358   
    406. D(O  47,C  11,C  10,C  48)    -24.3001         0.009358   
    407. D(H  60,N  12,C  11,O  47)    171.7007         0.031390   
    408. D(H  60,N  12,C  11,C  10)     -8.1053         0.031390   
    409. D(C  13,N  12,C  11,O  47)     12.0813         0.031390   
    410. D(C  13,N  12,C  11,C  10)   -167.7247         0.031390   
    411. D(H  61,C  13,N  12,C  11)    162.5106         0.017198   
    412. D(H  61,C  13,N  12,H  60)      1.9655         0.017198   
    413. D(C  45,C  13,N  12,H  60)    119.9799         0.017198   
    414. D(C  45,C  13,N  12,C  11)    -79.4749         0.017198   
    415. D(C  14,C  13,N  12,C  11)     50.3205         0.017198   
    416. D(C  14,C  13,N  12,H  60)   -110.2246         0.017198   
    417. D(O  44,C  14,C  13,C  45)    158.9889         0.009105   
    418. D(O  44,C  14,C  13,N  12)     30.8997         0.009105   
    419. D(N  15,C  14,C  13,H  61)     94.1889         0.009105   
    420. D(N  15,C  14,C  13,C  45)    -25.6917         0.009105   
    421. D(O  44,C  14,C  13,H  61)    -81.1305         0.009105   
    422. D(N  15,C  14,C  13,N  12)   -153.7809         0.009105   
    423. D(H  62,N  15,C  14,O  44)   -178.3543         0.034586   
    424. D(H  62,N  15,C  14,C  13)      6.5497         0.034586   
    425. D(C  16,N  15,C  14,O  44)     -7.4697         0.034586   
    426. D(C  16,N  15,C  14,C  13)    177.4343         0.034586   
    427. D(H  64,C  16,N  15,H  62)    -45.4859         0.015183   
    428. D(H  64,C  16,N  15,C  14)    143.5680         0.015183   
    429. D(H  63,C  16,N  15,H  62)     71.3066         0.015183   
    430. D(H  63,C  16,N  15,C  14)    -99.6395         0.015183   
    431. D(C  17,C  16,N  15,C  14)     22.3888         0.015183   
    432. D(C  17,C  16,N  15,H  62)   -166.6652         0.015183   
    433. D(H  65,C  17,C  16,H  64)    175.7406         0.010747   
    434. D(H  65,C  17,C  16,H  63)     59.2636         0.010747   
    435. D(H  65,C  17,C  16,N  15)    -63.2074         0.010747   
    436. D(O  43,C  17,C  16,H  64)     57.2000         0.010747   
    437. D(O  43,C  17,C  16,H  63)    -59.2770         0.010747   
    438. D(O  43,C  17,C  16,N  15)    178.2520         0.010747   
    439. D(C  18,C  17,C  16,H  64)    -61.5043         0.010747   
    440. D(C  18,C  17,C  16,H  63)   -177.9814         0.010747   
    441. D(C  18,C  17,C  16,N  15)     59.5477         0.010747   
    442. D(H  66,C  18,C  17,H  65)     88.5404         0.010121   
    443. D(H  66,C  18,C  17,O  43)   -152.5219         0.010121   
    444. D(H  66,C  18,C  17,C  16)    -33.4045         0.010121   
    445. D(C  32,C  18,C  17,O  43)    -40.0455         0.010121   
    446. D(C  32,C  18,C  17,C  16)     79.0718         0.010121   
    447. D(C  32,C  18,C  17,H  65)   -158.9833         0.010121   
    448. D(C  19,C  18,C  17,H  65)    -27.2375         0.010121   
    449. D(C  19,C  18,C  17,O  43)     91.7003         0.010121   
    450. D(C  19,C  18,C  17,C  16)   -149.1824         0.010121   
    451. D(O  31,C  19,C  18,H  66)     90.7117         0.010246   
    452. D(O  31,C  19,C  18,C  32)    -22.7990         0.010246   
    453. D(O  31,C  19,C  18,C  17)   -151.9480         0.010246   
    454. D(N  20,C  19,C  18,H  66)    -84.0871         0.010246   
    455. D(N  20,C  19,C  18,C  17)     33.2532         0.010246   
    456. D(N  20,C  19,C  18,C  32)    162.4022         0.010246   
    457. D(H  67,N  20,C  19,O  31)   -161.6906         0.029422   
    458. D(H  67,N  20,C  19,C  18)     13.0515         0.029422   
    459. D(C  21,N  20,C  19,O  31)    -14.8792         0.029422   
    460. D(C  21,N  20,C  19,C  18)    159.8629         0.029422   
    461. D(H  68,C  21,N  20,H  67)   -159.9740         0.016475   
    462. D(H  68,C  21,N  20,C  19)     53.2775         0.016475   
    463. D(C  27,C  21,N  20,H  67)    -39.0910         0.016475   
    464. D(C  27,C  21,N  20,C  19)    174.1605         0.016475   
    465. D(C  22,C  21,N  20,H  67)     83.7866         0.016475   
    466. D(C  22,C  21,N  20,C  19)    -62.9619         0.016475   
    467. D(N  23,C  22,C  21,C  27)     84.1168         0.009694   
    468. D(N  23,C  22,C  21,N  20)    -37.1747         0.009694   
    469. D(O  26,C  22,C  21,H  68)     28.0474         0.009694   
    470. D(O  26,C  22,C  21,C  27)    -92.3014         0.009694   
    471. D(O  26,C  22,C  21,N  20)    146.4071         0.009694   
    472. D(N  23,C  22,C  21,H  68)   -155.5344         0.009694   
    473. D(H  69,N  23,C  22,O  26)   -175.6532         0.029480   
    474. D(H  69,N  23,C  22,C  21)      7.9997         0.029480   
    475. D(C  24,N  23,C  22,O  26)    -12.4843         0.029480   
    476. D(C  24,N  23,C  22,C  21)    171.1686         0.029480   
    477. D(H  70,C  24,N  23,H  69)    175.2042         0.015700   
    478. D(H  70,C  24,N  23,C  22)     11.5502         0.015700   
    479. D(C  25,C  24,N  23,H  69)     55.8968         0.015700   
    480. D(C  25,C  24,N  23,C  22)   -107.7572         0.015700   
    481. D(C   7,C  24,N  23,H  69)    -67.0901         0.015700   
    482. D(C   7,C  24,N  23,C  22)    129.2560         0.015700   
    483. D(H  70,C  24,C   7,O   8)   -143.6898         0.009992   
    484. D(H  70,C  24,C   7,N   6)     40.2871         0.009992   
    485. D(C  25,C  24,C   7,O   8)    -20.7994         0.009992   
    486. D(C  25,C  24,C   7,N   6)    163.1775         0.009992   
    487. D(N  23,C  24,C   7,O   8)    101.7738         0.009992   
    488. D(N  23,C  24,C   7,N   6)    -74.2494         0.009992   
    489. D(H  73,C  25,C  24,H  70)   -177.9082         0.011539   
    490. D(H  73,C  25,C  24,N  23)    -61.5543         0.011539   
    491. D(H  73,C  25,C  24,C   7)     59.2094         0.011539   
    492. D(H  72,C  25,C  24,H  70)     62.6800         0.011539   
    493. D(H  72,C  25,C  24,N  23)    179.0339         0.011539   
    494. D(H  72,C  25,C  24,C   7)    -60.2024         0.011539   
    495. D(H  71,C  25,C  24,H  70)    -57.7422         0.011539   
    496. D(H  71,C  25,C  24,N  23)     58.6117         0.011539   
    497. D(H  71,C  25,C  24,C   7)    179.3754         0.011539   
    498. D(H  75,C  27,C  21,H  68)     58.2439         0.010462   
    499. D(H  75,C  27,C  21,C  22)    174.9712         0.010462   
    500. D(H  75,C  27,C  21,N  20)    -61.1301         0.010462   
    501. D(H  74,C  27,C  21,H  68)    172.7566         0.010462   
    502. D(H  74,C  27,C  21,C  22)    -70.5161         0.010462   
    503. D(H  74,C  27,C  21,N  20)     53.3826         0.010462   
    504. D(C  28,C  27,C  21,H  68)    -64.5539         0.010462   
    505. D(C  28,C  27,C  21,C  22)     52.1734         0.010462   
    506. D(C  28,C  27,C  21,N  20)    176.0721         0.010462   
    507. D(H  76,C  28,C  27,H  75)    178.1997         0.010778   
    508. D(H  76,C  28,C  27,H  74)     62.3412         0.010778   
    509. D(H  76,C  28,C  27,C  21)    -59.9447         0.010778   
    510. D(C  30,C  28,C  27,H  75)    -63.2445         0.010778   
    511. D(C  30,C  28,C  27,H  74)   -179.1029         0.010778   
    512. D(C  30,C  28,C  27,C  21)     58.6112         0.010778   
    513. D(C  29,C  28,C  27,H  75)     60.8925         0.010778   
    514. D(C  29,C  28,C  27,H  74)    -54.9660         0.010778   
    515. D(C  29,C  28,C  27,C  21)   -177.2518         0.010778   
    516. D(H  79,C  29,C  28,C  30)     60.6726         0.010958   
    517. D(H  79,C  29,C  28,C  27)    -63.9938         0.010958   
    518. D(H  78,C  29,C  28,H  76)     59.0818         0.010958   
    519. D(H  78,C  29,C  28,C  30)    -58.8837         0.010958   
    520. D(H  78,C  29,C  28,C  27)    176.4498         0.010958   
    521. D(H  77,C  29,C  28,H  76)    -61.4432         0.010958   
    522. D(H  77,C  29,C  28,C  30)   -179.4087         0.010958   
    523. D(H  79,C  29,C  28,H  76)    178.6381         0.010958   
    524. D(H  77,C  29,C  28,C  27)     55.9249         0.010958   
    525. D(H  82,C  30,C  28,H  76)    -64.9330         0.010995   
    526. D(H  82,C  30,C  28,C  29)     53.1869         0.010995   
    527. D(H  82,C  30,C  28,C  27)    176.3031         0.010995   
    528. D(H  81,C  30,C  28,H  76)    175.8639         0.010995   
    529. D(H  81,C  30,C  28,C  29)    -66.0162         0.010995   
    530. D(H  81,C  30,C  28,C  27)     57.1000         0.010995   
    531. D(H  80,C  30,C  28,H  76)     54.8500         0.010995   
    532. D(H  80,C  30,C  28,C  29)    172.9699         0.010995   
    533. D(H  80,C  30,C  28,C  27)    -63.9139         0.010995   
    534. D(O  42,C  32,C  18,H  66)     29.6795         0.009582   
    535. D(O  42,C  32,C  18,C  19)    142.9410         0.009582   
    536. D(O  42,C  32,C  18,C  17)    -84.3632         0.009582   
    537. D(C  33,C  32,C  18,H  66)   -152.6254         0.009582   
    538. D(C  33,C  32,C  18,C  19)    -39.3639         0.009582   
    539. D(C  33,C  32,C  18,C  17)     93.3319         0.009582   
    540. D(H  84,C  33,C  32,O  42)     55.7556         0.011919   
    541. D(H  84,C  33,C  32,C  18)   -121.8503         0.011919   
    542. D(H  83,C  33,C  32,O  42)    172.9129         0.011919   
    543. D(H  83,C  33,C  32,C  18)     -4.6930         0.011919   
    544. D(C  34,C  33,C  32,O  42)    -63.5263         0.011919   
    545. D(C  34,C  33,C  32,C  18)    118.8677         0.011919   
    546. D(H  86,C  34,C  33,H  84)   -178.4641         0.010532   
    547. D(H  86,C  34,C  33,H  83)     62.5428         0.010532   
    548. D(H  86,C  34,C  33,C  32)    -61.2772         0.010532   
    549. D(H  85,C  34,C  33,H  84)    -62.0173         0.010532   
    550. D(H  85,C  34,C  33,H  83)    178.9897         0.010532   
    551. D(H  85,C  34,C  33,C  32)     55.1697         0.010532   
    552. D(C  35,C  34,C  33,H  84)     60.0965         0.010532   
    553. D(C  35,C  34,C  33,H  83)    -58.8966         0.010532   
    554. D(C  35,C  34,C  33,C  32)    177.2834         0.010532   
    555. D(H  88,C  35,C  34,H  86)   -178.9001         0.011232   
    556. D(H  88,C  35,C  34,H  85)     63.0949         0.011232   
    557. D(H  88,C  35,C  34,C  33)    -58.1884         0.011232   
    558. D(H  87,C  35,C  34,H  86)    -63.0244         0.011232   
    559. D(H  87,C  35,C  34,H  85)    178.9705         0.011232   
    560. D(H  87,C  35,C  34,C  33)     57.6872         0.011232   
    561. D(C  36,C  35,C  34,H  86)     58.8189         0.011232   
    562. D(C  36,C  35,C  34,H  85)    -59.1862         0.011232   
    563. D(C  36,C  35,C  34,C  33)    179.5305         0.011232   
    564. D(H  90,C  36,C  35,H  87)     64.4442         0.011117   
    565. D(H  90,C  36,C  35,C  34)    -57.4189         0.011117   
    566. D(H  89,C  36,C  35,H  88)    -64.2827         0.011117   
    567. D(H  89,C  36,C  35,H  87)    179.9518         0.011117   
    568. D(H  89,C  36,C  35,C  34)     58.0887         0.011117   
    569. D(C  37,C  36,C  35,H  88)     58.0142         0.011117   
    570. D(C  37,C  36,C  35,H  87)    -57.7513         0.011117   
    571. D(H  90,C  36,C  35,H  88)   -179.7903         0.011117   
    572. D(C  37,C  36,C  35,C  34)   -179.6144         0.011117   
    573. D(H  92,C  37,C  36,H  90)   -179.8650         0.011118   
    574. D(H  92,C  37,C  36,H  89)     64.5289         0.011118   
    575. D(H  92,C  37,C  36,C  35)    -57.7545         0.011118   
    576. D(H  91,C  37,C  36,H  90)    -64.3870         0.011118   
    577. D(H  91,C  37,C  36,H  89)   -179.9931         0.011118   
    578. D(H  91,C  37,C  36,C  35)     57.7235         0.011118   
    579. D(C  38,C  37,C  36,H  90)     57.8433         0.011118   
    580. D(C  38,C  37,C  36,H  89)    -57.7629         0.011118   
    581. D(C  38,C  37,C  36,C  35)    179.9538         0.011118   
    582. D(H  94,C  38,C  37,H  92)   -179.9277         0.011116   
    583. D(H  94,C  38,C  37,H  91)     64.6051         0.011116   
    584. D(H  94,C  38,C  37,C  36)    -57.6125         0.011116   
    585. D(H  93,C  38,C  37,H  92)    -64.4956         0.011116   
    586. D(H  93,C  38,C  37,H  91)   -179.9629         0.011116   
    587. D(H  93,C  38,C  37,C  36)     57.8195         0.011116   
    588. D(C  39,C  38,C  37,H  92)     57.7977         0.011116   
    589. D(C  39,C  38,C  37,H  91)    -57.6696         0.011116   
    590. D(C  39,C  38,C  37,C  36)   -179.8871         0.011116   
    591. D(H  95,C  39,C  38,H  94)    -64.5207         0.011128   
    592. D(H  95,C  39,C  38,H  93)   -179.9779         0.011128   
    593. D(H  95,C  39,C  38,C  37)     57.7351         0.011128   
    594. D(C  40,C  39,C  38,H  94)     57.7497         0.011128   
    595. D(C  40,C  39,C  38,H  93)    -57.7074         0.011128   
    596. D(C  40,C  39,C  38,C  37)   -179.9944         0.011128   
    597. D(H  96,C  39,C  38,H  94)   -179.9635         0.011128   
    598. D(H  96,C  39,C  38,H  93)     64.5794         0.011128   
    599. D(H  96,C  39,C  38,C  37)    -57.7076         0.011128   
    600. D(H  98,C  40,C  39,H  95)     64.6821         0.011066   
    601. D(H  98,C  40,C  39,C  38)    -57.6295         0.011066   
    602. D(H  97,C  40,C  39,H  96)    -64.6440         0.011066   
    603. D(H  97,C  40,C  39,H  95)   -179.9970         0.011066   
    604. D(H  97,C  40,C  39,C  38)     57.6914         0.011066   
    605. D(C  41,C  40,C  39,H  96)     57.6982         0.011066   
    606. D(C  41,C  40,C  39,H  95)    -57.6549         0.011066   
    607. D(H  98,C  40,C  39,H  96)   -179.9648         0.011066   
    608. D(C  41,C  40,C  39,C  38)   -179.9664         0.011066   
    609. D(H 101,C  41,C  40,H  98)    -62.2871         0.011150   
    610. D(H 101,C  41,C  40,H  97)   -178.1769         0.011150   
    611. D(H 101,C  41,C  40,C  39)     59.7645         0.011150   
    612. D(H 100,C  41,C  40,H  98)    178.1953         0.011150   
    613. D(H 100,C  41,C  40,H  97)     62.3055         0.011150   
    614. D(H 100,C  41,C  40,C  39)    -59.7531         0.011150   
    615. D(H  99,C  41,C  40,H  98)     57.9514         0.011150   
    616. D(H  99,C  41,C  40,H  97)    -57.9384         0.011150   
    617. D(H  99,C  41,C  40,C  39)   -179.9970         0.011150   
    618. D(H 102,O  43,C  17,H  65)    -44.5277         0.017417   
    619. D(H 102,O  43,C  17,C  18)   -164.1531         0.017417   
    620. D(H 102,O  43,C  17,C  16)     73.7773         0.017417   
    621. D(H 104,C  45,C  13,H  61)   -174.6240         0.010405   
    622. D(H 104,C  45,C  13,C  14)    -56.4151         0.010405   
    623. D(H 104,C  45,C  13,N  12)     69.3075         0.010405   
    624. D(H 103,C  45,C  13,H  61)    -56.9647         0.010405   
    625. D(H 103,C  45,C  13,C  14)     61.2442         0.010405   
    626. D(H 103,C  45,C  13,N  12)   -173.0332         0.010405   
    627. D(C  46,C  45,C  13,H  61)     62.9671         0.010405   
    628. D(C  46,C  45,C  13,C  14)   -178.8240         0.010405   
    629. D(C  46,C  45,C  13,N  12)    -53.1014         0.010405   
    630. D(H 107,C  46,C  45,H 104)    -60.2958         0.011217   
    631. D(H 107,C  46,C  45,H 103)   -178.4282         0.011217   
    632. D(H 107,C  46,C  45,C  13)     61.1200         0.011217   
    633. D(H 106,C  46,C  45,H 104)    179.8294         0.011217   
    634. D(H 106,C  46,C  45,H 103)     61.6970         0.011217   
    635. D(H 106,C  46,C  45,C  13)    -58.7548         0.011217   
    636. D(H 105,C  46,C  45,H 104)     59.6718         0.011217   
    637. D(H 105,C  46,C  45,H 103)    -58.4606         0.011217   
    638. D(H 105,C  46,C  45,C  13)   -178.9123         0.011217   
    639. D(H 108,C  48,C  10,H  59)   -164.2549         0.009776   
    640. D(H 108,C  48,C  10,C  11)    -45.0627         0.009776   
    641. D(H 108,C  48,C  10,N   9)     80.3333         0.009776   
    642. D(C  50,C  48,C  10,H  59)     76.4557         0.009776   
    643. D(C  50,C  48,C  10,C  11)   -164.3521         0.009776   
    644. D(C  50,C  48,C  10,N   9)    -38.9561         0.009776   
    645. D(C  49,C  48,C  10,H  59)    -45.8936         0.009776   
    646. D(C  49,C  48,C  10,C  11)     73.2986         0.009776   
    647. D(C  49,C  48,C  10,N   9)   -161.3054         0.009776   
    648. D(H 111,C  49,C  48,C  50)     58.7853         0.010855   
    649. D(H 111,C  49,C  48,C  10)   -178.4462         0.010855   
    650. D(H 110,C  49,C  48,H 108)   -179.1381         0.010855   
    651. D(H 110,C  49,C  48,C  50)    -59.8540         0.010855   
    652. D(H 110,C  49,C  48,C  10)     62.9145         0.010855   
    653. D(H 109,C  49,C  48,H 108)     60.1723         0.010855   
    654. D(H 109,C  49,C  48,C  50)    179.4564         0.010855   
    655. D(H 111,C  49,C  48,H 108)    -60.4988         0.010855   
    656. D(H 109,C  49,C  48,C  10)    -57.7750         0.010855   
    657. D(H 114,C  50,C  48,H 108)   -176.3354         0.010943   
    658. D(H 114,C  50,C  48,C  49)     64.8038         0.010943   
    659. D(H 114,C  50,C  48,C  10)    -57.8744         0.010943   
    660. D(H 113,C  50,C  48,H 108)     64.3115         0.010943   
    661. D(H 113,C  50,C  48,C  49)    -54.5493         0.010943   
    662. D(H 113,C  50,C  48,C  10)   -177.2275         0.010943   
    663. D(H 112,C  50,C  48,H 108)    -56.0031         0.010943   
    664. D(H 112,C  50,C  48,C  49)   -174.8639         0.010943   
    665. D(H 112,C  50,C  48,C  10)     62.4579         0.010943   
    -----------------------------------------------------------------

Number of atoms                         .... 115
Number of degrees of freedom            .... 665

         *************************************************************
         *                GEOMETRY OPTIMIZATION CYCLE   1            *
         *************************************************************
---------------------------------
CARTESIAN COORDINATES (ANGSTROEM)
---------------------------------
  O      4.196961    3.147616   -4.725379
  C      3.683688    2.920779   -3.631932
  C      3.117132    4.082877   -2.800504
  C      4.241203    4.917384   -2.152950
  C      4.344090    4.338455   -0.734628
  C      2.883269    4.082190   -0.363834
  N      2.291047    3.670734   -1.653169
  C      1.078438    3.090610   -1.848667
  O      0.649134    2.857730   -2.991841
  N      3.587913    1.678564   -3.079876
  C      3.917166    0.471452   -3.822478
  C      2.644184   -0.382127   -4.025850
  N      1.479673    0.321257   -4.065618
  C      0.206951   -0.368538   -3.984038
  C      0.251622   -1.325355   -2.765160
  N     -0.555715   -2.403877   -2.831459
  C     -0.710228   -3.511773   -1.882624
  C     -0.284634   -3.241144   -0.432583
  C     -1.068996   -2.079461    0.214960
  C     -0.323808   -1.258926    1.273539
  N      1.021772   -1.122461    1.060063
  C      1.777477   -0.052412    1.694926
  C      1.311448    1.346896    1.248834
  N      0.949656    1.448047   -0.067587
  C      0.308902    2.652856   -0.593014
  C     -1.166420    2.406156   -0.889847
  O      1.335831    2.307906    2.017848
  C      3.267832   -0.263494    1.373468
  C      4.232322    0.818921    1.877307
  C      5.656053    0.490354    1.415364
  C      4.166189    0.991587    3.398043
  O     -0.916106   -0.686277    2.187362
  C     -2.456528   -2.589516    0.655580
  C     -2.676056   -3.093288    2.062959
  C     -3.729092   -2.254050    2.806484
  C     -4.012148   -2.790587    4.209845
  C     -5.049726   -1.961030    4.969585
  C     -5.333743   -2.484091    6.379429
  C     -6.370304   -1.655196    7.141305
  C     -6.652831   -2.175989    8.552146
  C     -7.689802   -1.347671    9.315399
  C     -7.963541   -1.876994   10.724492
  O     -3.349453   -2.610761   -0.180374
  O     -0.549941   -4.423805    0.340222
  O      0.935718   -1.027569   -1.770755
  C     -0.220532   -1.000018   -5.321953
  C     -0.207212    0.011125   -6.468863
  O      2.670165   -1.610140   -4.140864
  C      5.082679   -0.333040   -3.194594
  C      5.686312   -1.300118   -4.220719
  C      6.166577    0.608503   -2.658284
  H      2.514787    4.667037   -3.509512
  H      3.938791    5.973805   -2.111424
  H      5.168558    4.853158   -2.733412
  H      4.900568    3.388598   -0.747481
  H      4.841066    5.011433   -0.025328
  H      2.744561    3.316710    0.406686
  H      2.399241    5.006593   -0.005614
  H      3.120995    1.590150   -2.180056
  H      4.241327    0.835924   -4.813335
  H      1.463972    1.319748   -3.843581
  H     -0.526745    0.411666   -3.716489
  H     -1.034482   -2.536068   -3.717014
  H     -0.127566   -4.375129   -2.249928
  H     -1.772661   -3.795424   -1.873850
  H      0.790654   -3.031130   -0.412710
  H     -1.283430   -1.353289   -0.584616
  H      1.344737   -1.395336    0.130226
  H      1.596363   -0.085160    2.776080
  H      0.883575    0.601012   -0.644400
  H      0.415527    3.408130    0.199892
  H     -1.673065    2.085873    0.029370
  H     -1.647279    3.317904   -1.267865
  H     -1.283536    1.626632   -1.654133
  H      3.372635   -0.352378    0.277012
  H      3.562857   -1.239141    1.795524
  H      3.938885    1.778775    1.417863
  H      5.711340    0.375579    0.322733
  H      6.359516    1.282645    1.708798
  H      6.006402   -0.450920    1.867636
  H      3.178554    1.347619    3.718195
  H      4.379473    0.037804    3.907078
  H      4.912208    1.724572    3.737550
  H     -1.733989   -3.109693    2.623783
  H     -3.033895   -4.131284    1.963464
  H     -4.655624   -2.241761    2.210891
  H     -3.366388   -1.217261    2.871182
  H     -3.071630   -2.814016    4.787436
  H     -4.357163   -3.837826    4.142889
  H     -5.990842   -1.936040    4.392463
  H     -4.703057   -0.914743    5.030988
  H     -4.391756   -2.508392    6.955357
  H     -5.678251   -3.531681    6.318007
  H     -7.312597   -1.631395    6.565730
  H     -6.026058   -0.607599    7.201339
  H     -5.710598   -2.199512    9.128148
  H     -6.996595   -3.224099    8.492755
  H     -8.630220   -1.325354    8.738598
  H     -7.344939   -0.301122    9.373075
  H     -8.710755   -1.265143   11.250130
  H     -8.340153   -2.910882   10.692898
  H     -7.045558   -1.878844   11.331976
  H      0.116332   -5.093292    0.110561
  H     -1.246192   -1.396528   -5.223233
  H      0.451079   -1.841694   -5.544669
  H     -0.534093   -0.460104   -7.405561
  H     -0.877357    0.858750   -6.262255
  H      0.802584    0.412791   -6.622651
  H      4.671030   -0.924383   -2.357830
  H      4.929148   -1.988994   -4.609810
  H      6.119904   -0.736640   -5.062457
  H      6.494455   -1.887707   -3.761503
  H      5.795316    1.258024   -1.854375
  H      7.009146    0.025446   -2.260626
  H      6.550634    1.258097   -3.459521

----------------------------
CARTESIAN COORDINATES (A.U.)
----------------------------
  NO LB      ZA    FRAG     MASS         X           Y           Z
   0 O     8.0000    0    15.999    7.931106    5.948133   -8.929673
   1 C     6.0000    0    12.011    6.961161    5.519472   -6.863357
   2 C     6.0000    0    12.011    5.890526    7.715519   -5.292186
   3 C     6.0000    0    12.011    8.014713    9.292510   -4.068486
   4 C     6.0000    0    12.011    8.209140    8.198492   -1.388246
   5 C     6.0000    0    12.011    5.448588    7.714221   -0.687548
   6 N     7.0000    0    14.007    4.329452    6.936681   -3.124036
   7 C     6.0000    0    12.011    2.037953    5.840407   -3.493475
   8 O     8.0000    0    15.999    1.226685    5.400327   -5.653760
   9 N     7.0000    0    14.007    6.780173    3.172027   -5.820122
  10 C     6.0000    0    12.011    7.402370    0.890915   -7.223436
  11 C     6.0000    0    12.011    4.996783   -0.722116   -7.607754
  12 N     7.0000    0    14.007    2.796177    0.607088   -7.682905
  13 C     6.0000    0    12.011    0.391080   -0.696437   -7.528740
  14 C     6.0000    0    12.011    0.475497   -2.504558   -5.225395
  15 N     7.0000    0    14.007   -1.050149   -4.542669   -5.350683
  16 C     6.0000    0    12.011   -1.342137   -6.636290   -3.557644
  17 C     6.0000    0    12.011   -0.537881   -6.124875   -0.817463
  18 C     6.0000    0    12.011   -2.020110   -3.929613    0.406216
  19 C     6.0000    0    12.011   -0.611908   -2.379025    2.406640
  20 N     7.0000    0    14.007    1.930869   -2.121143    2.003230
  21 C     6.0000    0    12.011    3.358944   -0.099044    3.202947
  22 C     6.0000    0    12.011    2.478277    2.545264    2.359955
  23 N     7.0000    0    14.007    1.794591    2.736411   -0.127722
  24 C     6.0000    0    12.011    0.583740    5.013171   -1.120634
  25 C     6.0000    0    12.011   -2.204214    4.546975   -1.681567
  26 O     8.0000    0    15.999    2.524356    4.361310    3.813181
  27 C     6.0000    0    12.011    6.175308   -0.497931    2.595478
  28 C     6.0000    0    12.011    7.997930    1.547536    3.547595
  29 C     6.0000    0    12.011   10.688391    0.926634    2.674651
  30 C     6.0000    0    12.011    7.872956    1.873828    6.421371
  31 O     8.0000    0    15.999   -1.731190   -1.296876    4.133515
  32 C     6.0000    0    12.011   -4.642165   -4.893475    1.238867
  33 C     6.0000    0    12.011   -5.057012   -5.845467    3.898428
  34 C     6.0000    0    12.011   -7.046962   -4.259538    5.303487
  35 C     6.0000    0    12.011   -7.581860   -5.273445    7.955454
  36 C     6.0000    0    12.011   -9.542599   -3.705810    9.391154
  37 C     6.0000    0    12.011  -10.079314   -4.694251   12.055373
  38 C     6.0000    0    12.011  -12.038130   -3.127867   13.495111
  39 C     6.0000    0    12.011  -12.572028   -4.112024   16.161214
  40 C     6.0000    0    12.011  -14.531619   -2.546728   17.603553
  41 C     6.0000    0    12.011  -15.048911   -3.547005   20.266352
  42 O     8.0000    0    15.999   -6.329549   -4.933623   -0.340857
  43 O     8.0000    0    15.999   -1.039238   -8.359780    0.642927
  44 O     8.0000    0    15.999    1.768250   -1.941823   -3.346243
  45 C     6.0000    0    12.011   -0.416746   -1.889759  -10.057035
  46 C     6.0000    0    12.011   -0.391574    0.021023  -12.224380
  47 O     8.0000    0    15.999    5.045881   -3.042724   -7.825099
  48 C     6.0000    0    12.011    9.604872   -0.629355   -6.036908
  49 C     6.0000    0    12.011   10.745572   -2.456868   -7.976003
  50 C     6.0000    0    12.011   11.653141    1.149904   -5.023428
  51 H     1.0000    0     1.008    4.752258    8.819421   -6.632016
  52 H     1.0000    0     1.008    7.443236   11.288856   -3.990012
  53 H     1.0000    0     1.008    9.767160    9.171140   -5.165401
  54 H     1.0000    0     1.008    9.260731    6.403522   -1.412535
  55 H     1.0000    0     1.008    9.148288    9.470236   -0.047863
  56 H     1.0000    0     1.008    5.186469    6.267674    0.768526
  57 H     1.0000    0     1.008    4.533908    9.461090   -0.010608
  58 H     1.0000    0     1.008    5.897826    3.004948   -4.119709
  59 H     1.0000    0     1.008    8.014947    1.579668   -9.095885
  60 H     1.0000    0     1.008    2.766506    2.493962   -7.263315
  61 H     1.0000    0     1.008   -0.995404    0.777936   -7.023147
  62 H     1.0000    0     1.008   -1.954888   -4.792473   -7.024138
  63 H     1.0000    0     1.008   -0.241065   -8.267795   -4.251748
  64 H     1.0000    0     1.008   -3.349843   -7.172311   -3.541063
  65 H     1.0000    0     1.008    1.494119   -5.728005   -0.779908
  66 H     1.0000    0     1.008   -2.425332   -2.557345   -1.104764
  67 H     1.0000    0     1.008    2.541185   -2.636802    0.246091
  68 H     1.0000    0     1.008    3.016689   -0.160930    5.246030
  69 H     1.0000    0     1.008    1.669715    1.135748   -1.217740
  70 H     1.0000    0     1.008    0.785231    6.440433    0.377740
  71 H     1.0000    0     1.008   -3.161635    3.941728    0.055501
  72 H     1.0000    0     1.008   -3.112906    6.269929   -2.395917
  73 H     1.0000    0     1.008   -2.425532    3.073890   -3.125858
  74 H     1.0000    0     1.008    6.373356   -0.665899    0.523478
  75 H     1.0000    0     1.008    6.732825   -2.341637    3.393048
  76 H     1.0000    0     1.008    7.443413    3.361398    2.679373
  77 H     1.0000    0     1.008   10.792869    0.709742    0.609877
  78 H     1.0000    0     1.008   12.017744    2.423848    3.229161
  79 H     1.0000    0     1.008   11.350456   -0.852116    3.529320
  80 H     1.0000    0     1.008    6.006596    2.546631    7.026370
  81 H     1.0000    0     1.008    8.276004    0.071439    7.383307
  82 H     1.0000    0     1.008    9.282727    3.258968    7.062946
  83 H     1.0000    0     1.008   -3.276764   -5.876468    4.958232
  84 H     1.0000    0     1.008   -5.733231   -7.806995    3.710409
  85 H     1.0000    0     1.008   -8.797854   -4.236314    4.177979
  86 H     1.0000    0     1.008   -6.361552   -2.300290    5.425748
  87 H     1.0000    0     1.008   -5.804540   -5.317720    9.046943
  88 H     1.0000    0     1.008   -8.233846   -7.252441    7.828925
  89 H     1.0000    0     1.008  -11.321052   -3.658585    8.300552
  90 H     1.0000    0     1.008   -8.887490   -1.728613    9.507189
  91 H     1.0000    0     1.008   -8.299216   -4.740174   13.143719
  92 H     1.0000    0     1.008  -10.730338   -6.673910   11.939303
  93 H     1.0000    0     1.008  -13.818805   -3.082890   12.407432
  94 H     1.0000    0     1.008  -11.387599   -1.148197   13.608559
  95 H     1.0000    0     1.008  -10.791467   -4.156476   17.249701
  96 H     1.0000    0     1.008  -13.221649   -6.092664   16.048981
  97 H     1.0000    0     1.008  -16.308752   -2.504556   16.513557
  98 H     1.0000    0     1.008  -13.879924   -0.569039   17.712545
  99 H     1.0000    0     1.008  -16.460942   -2.390774   21.259664
 100 H     1.0000    0     1.008  -15.760605   -5.500771   20.206649
 101 H     1.0000    0     1.008  -13.314176   -3.550501   21.414331
 102 H     1.0000    0     1.008    0.219835   -9.624927    0.208930
 103 H     1.0000    0     1.008   -2.354962   -2.639055   -9.870480
 104 H     1.0000    0     1.008    0.852417   -3.480298  -10.477906
 105 H     1.0000    0     1.008   -1.009289   -0.869470  -13.994482
 106 H     1.0000    0     1.008   -1.657965    1.622802  -11.833947
 107 H     1.0000    0     1.008    1.516664    0.780062  -12.514996
 108 H     1.0000    0     1.008    8.826967   -1.746830   -4.455653
 109 H     1.0000    0     1.008    9.314741   -3.758655   -8.711279
 110 H     1.0000    0     1.008   11.564942   -1.392047   -9.566657
 111 H     1.0000    0     1.008   12.272742   -3.567250   -7.108211
 112 H     1.0000    0     1.008   10.951560    2.377321   -3.504260
 113 H     1.0000    0     1.008   13.245366    0.048086   -4.271964
 114 H     1.0000    0     1.008   12.378904    2.377460   -6.537548

--------------------------------
INTERNAL COORDINATES (ANGSTROEM)
--------------------------------
 O      0   0   0     0.000000000000     0.00000000     0.00000000
 C      1   0   0     1.229036515917     0.00000000     0.00000000
 C      2   1   0     1.537117302531   119.71066399     0.00000000
 C      3   2   1     1.542486257964   111.56123870   285.27677481
 C      4   3   2     1.535376934826   103.45279904   263.37190205
 C      5   4   3     1.528776320137   102.89855823   321.03789863
 N      3   2   1     1.472636168784   114.61946872   168.09548108
 C      7   3   2     1.358375304021   120.54102609   291.21907724
 O      8   7   3     1.243133519880   121.37486074     2.02935314
 N      2   1   3     1.362731098959   123.91839588   180.64959396
 C     10   2   1     1.454986289636   122.24910584   351.01896890
 C     11  10   2     1.546104776039   109.80666475   245.73283522
 N     12  11  10     1.361034874619   115.02336287    28.27763785
 C     13  12  11     1.449929771127   120.23362775   192.27525577
 C     14  13  12     1.550211680938   108.21491003    50.32052211
 N     15  14  13     1.348851031917   115.95233179   206.21907992
 C     16  15  14     1.466832060689   129.43333888   177.43431653
 C     17  16  15     1.535249256116   116.65491094    22.38879054
 C     18  17  16     1.544034671903   112.82445785    59.54766107
 C     19  18  17     1.532701253851   116.45222025   210.81762471
 N     20  19  18     1.369225551952   115.05400126    33.25315514
 C     21  20  19     1.455728576751   121.02593619   159.86289450
 C     22  21  20     1.540857822737   112.59828069   297.03810600
 N     23  22  21     1.368974163520   115.17764180   322.82528453
 C     24  23  22     1.462259785066   121.48099331   171.16862964
 C     25  24  23     1.524973827539   111.13571898   252.24282236
 O     23  22  21     1.231063628173   121.47200271   146.40708319
 C     22  21  20     1.539172078323   108.10568898   174.16050508
 C     28  22  21     1.534834019670   116.30787105   176.07211386
 C     29  28  22     1.532434915484   109.49118741   182.74815366
 C     29  28  22     1.531935666303   112.22403852    58.61120889
 O     20  19  18     1.230372705214   121.87608881   208.05196748
 C     19  18  17     1.542577486369   109.14482332    79.07181215
 C     33  19  18     1.510859256652   120.46559227    93.33191673
 C     34  33  19     1.538191750851   111.58114876   118.86772569
 C     35  34  33     1.528860289914   112.26998413   177.28343396
 C     36  35  34     1.530339238102   113.01623426   179.53054294
 C     37  36  35     1.530332463962   113.44811562   180.38559335
 C     38  37  36     1.530353324544   113.52977166   179.95378564
 C     39  38  37     1.530202452534   113.56107649   180.11286643
 C     40  39  38     1.531004952818   113.61336196   180.00560254
 C     41  40  39     1.529921028636   113.15126299   180.03356187
 O     33  19  18     1.223350090302   117.84589895   275.63678390
 O     18  17  16     1.437463508650   108.15474549   178.25198630
 O     15  14  13     1.243183007437   119.79737895    30.89972452
 C     14  13  12     1.539976021318   112.94605024   280.52506758
 C     46  14  13     1.529048249819   112.21466564   306.89862091
 O     12  11  10     1.233660849734   122.98907900   208.47381505
 C     11  10   2     1.549150457209   113.21800263   118.79176054
 C     49  11  10     1.533801006931   110.63231286   198.69457871
 C     49  11  10     1.532633781111   110.78581629   321.04390162
 H      3   2   1     1.098523677563   104.77504389    47.27848810
 H      4   3   2     1.099637929146   109.58435667   145.82490431
 H      4   3   2     1.095923708175   111.25920329    26.46084360
 H      5   4   3     1.100936530132   110.38967889    78.33126699
 H      5   4   3     1.096809420805   113.35321418   199.54789701
 H      6   5   4     1.094943593945   114.13684846   156.19935617
 H      6   5   4     1.103234792042   110.94866734   277.90528623
 H     10   2   1     1.017597843418   118.01299554   181.71479280
 H     11  10   2     1.104409097107   104.50915500     1.13641857
 H     13  12  11     1.023000831373   120.74442736   351.89469002
 H     14  13  12     1.103906946201   105.11766650   162.51060097
 H     16  15  14     1.015331838345   115.41706419     6.54970747
 H     17  16  15     1.104441144823   108.64644478   260.36054184
 H     17  16  15     1.099680391980   107.56287455   143.56802135
 H     18  17  16     1.095785500070   108.84102252   296.79261427
 H     19  18  17     1.101195163243   106.89084426   326.59547318
 H     21  20  19     1.021452842987   115.21542545    13.05146079
 H     22  21  20     1.096707303096   108.79897993    53.27752868
 H     24  23  22     1.026911770047   119.74856130     7.99967821
 H     25  24  23     1.100230799230   105.31858048    11.55020866
 H     26  25  24     1.097374087683   109.31885833    58.61168016
 H     26  25  24     1.097910442509   110.87880081   179.03387712
 H     26  25  24     1.097955227450   110.70427867   298.44565900
 H     28  22  21     1.105033171347   108.06492140    53.38262174
 H     28  22  21     1.103203666119   107.47721454   298.86990128
 H     29  28  22     1.103863641843   108.03223695   300.05533775
 H     30  29  28     1.100033207583   111.62191188    55.92486300
 H     30  29  28     1.099404263566   111.06944027   176.44979523
 H     30  29  28     1.101494642950   110.79062978   296.00615669
 H     31  29  28     1.097578543958   111.40533606   296.08613851
 H     31  29  28     1.101956617575   110.64941689    57.10003313
 H     31  29  28     1.099579765919   110.63102274   176.30310270
 H     34  33  19     1.096486381876   110.89117493   355.30695668
 H     34  33  19     1.102444455065   106.08335759   238.14965137
 H     35  34  33     1.101518852146   108.69705517    55.16969601
 H     35  34  33     1.100304964474   108.47307157   298.72282197
 H     36  35  34     1.103962386478   109.26680410    57.68724070
 H     36  35  34     1.104639939958   109.56591942   301.81161534
 H     37  36  35     1.104261788278   109.30776316    58.08866013
 H     37  36  35     1.103932740430   109.17573236   302.58105590
 H     38  37  36     1.104365745095   109.24808733    57.72352579
 H     38  37  36     1.104492822925   109.31993006   302.24552237
 H     39  38  37     1.104431048608   109.27590731    57.81951058
 H     39  38  37     1.104340392548   109.25236208   302.38748848
 H     40  39  38     1.104596674631   109.30138636    57.73510944
 H     40  39  38     1.104642203402   109.31804775   302.29238054
 H     41  40  39     1.103442012482   109.12270081    57.69139088
 H     41  40  39     1.103412638179   109.11813600   302.37054045
 H     42  41  40     1.099538946561   111.67640316   180.00300051
 H     42  41  40     1.100799823753   111.08368355   300.24693400
 H     42  41  40     1.100786907197   111.07870503    59.76452861
 H     44  18  17     0.972047444212   108.24773384    73.77727520
 H     46  14  13     1.104058104390   109.11488307   186.96682392
 H     46  14  13     1.099583782203   108.68102250    69.30753078
 H     47  46  14     1.098321602520   110.69464466   181.08766098
 H     47  46  14     1.100113228244   111.30540989   301.24520527
 H     47  46  14     1.097576755117   110.80054944    61.12003558
 H     49  11  10     1.104226195500   107.74414097    80.33330004
 H     50  49  11     1.095097178050   111.23651860   302.22497984
 H     50  49  11     1.101831478418   110.09094417    62.91451753
 H     50  49  11     1.099652874028   110.28893253   181.55379300
 H     51  49  11     1.098171943360   112.35987068    62.45791285
 H     51  49  11     1.099094904644   110.05127601   182.77251836
 H     51  49  11     1.100660711896   110.76928268   302.12557668

---------------------------
INTERNAL COORDINATES (A.U.)
---------------------------
 O      0   0   0     0.000000000000     0.00000000     0.00000000
 C      1   0   0     2.322542423672     0.00000000     0.00000000
 C      2   1   0     2.904730737496   119.71066399     0.00000000
 C      3   2   1     2.914876592888   111.56123870   285.27677481
 C      4   3   2     2.901441919160   103.45279904   263.37190205
 C      5   4   3     2.888968565083   102.89855823   321.03789863
 N      3   2   1     2.782879053909   114.61946872   168.09548108
 C      7   3   2     2.566957311682   120.54102609   291.21907724
 O      8   7   3     2.349181900471   121.37486074     2.02935314
 N      2   1   3     2.575188571210   123.91839588   180.64959396
 C     10   2   1     2.749525616022   122.24910584   351.01896890
 C     11  10   2     2.921714601062   109.80666475   245.73283522
 N     12  11  10     2.571983171746   115.02336287    28.27763785
 C     13  12  11     2.739970180849   120.23362775   192.27525577
 C     14  13  12     2.929475526578   108.21491003    50.32052211
 N     15  14  13     2.548959045781   115.95233179   206.21907992
 C     16  15  14     2.771910879157   129.43333888   177.43431653
 C     17  16  15     2.901200641366   116.65491094    22.38879054
 C     18  17  16     2.917802671175   112.82445785    59.54766107
 C     19  18  17     2.896385614896   116.45222025   210.81762471
 N     20  19  18     2.587461308756   115.05400126    33.25315514
 C     21  20  19     2.750928335383   121.02593619   159.86289450
 C     22  21  20     2.911799296284   112.59828069   297.03810600
 N     23  22  21     2.586986253466   115.17764180   322.82528453
 C     24  23  22     2.763270530421   121.48099331   171.16862964
 C     25  24  23     2.881782895447   111.13571898   252.24282236
 O     23  22  21     2.326373110679   121.47200271   146.40708319
 C     22  21  20     2.908613701008   108.10568898   174.16050508
 C     28  22  21     2.900415958202   116.30787105   176.07211386
 C     29  28  22     2.895882308323   109.49118741   182.74815366
 C     29  28  22     2.894938864100   112.22403852    58.61120889
 O     20  19  18     2.325067455507   121.87608881   208.05196748
 C     19  18  17     2.915048989591   109.14482332    79.07181215
 C     33  19  18     2.855110221972   120.46559227    93.33191673
 C     34  33  19     2.906761150564   111.58114876   118.86772569
 C     35  34  33     2.889127244964   112.26998413   177.28343396
 C     36  35  34     2.891922052007   113.01623426   179.53054294
 C     37  36  35     2.891909250737   113.44811562   180.38559335
 C     38  37  36     2.891948671524   113.52977166   179.95378564
 C     39  38  37     2.891663564744   113.56107649   180.11286643
 C     40  39  38     2.893180070502   113.61336196   180.00560254
 C     41  40  39     2.891131750649   113.15126299   180.03356187
 O     33  19  18     2.311796636580   117.84589895   275.63678390
 O     18  17  16     2.716412358854   108.15474549   178.25198630
 O     15  14  13     2.349275418400   119.79737895    30.89972452
 C     14  13  12     2.910132933097   112.94605024   280.52506758
 C     46  14  13     2.889482437710   112.21466564   306.89862091
 O     12  11  10     2.331281148138   122.98907900   208.47381505
 C     11  10   2     2.927470104363   113.21800263   118.79176054
 C     49  11  10     2.898463847032   110.63231286   198.69457871
 C     49  11  10     2.896258109897   110.78581629   321.04390162
 H      3   2   1     2.075908902223   104.77504389    47.27848810
 H      4   3   2     2.078014532559   109.58435667   145.82490431
 H      4   3   2     2.070995672122   111.25920329    26.46084360
 H      5   4   3     2.080468532780   110.38967889    78.33126699
 H      5   4   3     2.072669426427   113.35321418   199.54789701
 H      6   5   4     2.069143524648   114.13684846   156.19935617
 H      6   5   4     2.084811618372   110.94866734   277.90528623
[...]
freq.      83.54  E(vib)   ...       0.48 
freq.      90.62  E(vib)   ...       0.47 
freq.      93.69  E(vib)   ...       0.47 
freq.     102.97  E(vib)   ...       0.46 
freq.     107.51  E(vib)   ...       0.45 
freq.     111.79  E(vib)   ...       0.45 
freq.     116.48  E(vib)   ...       0.44 
freq.     122.30  E(vib)   ...       0.43 
freq.     125.84  E(vib)   ...       0.43 
freq.     127.45  E(vib)   ...       0.43 
freq.     137.14  E(vib)   ...       0.42 
freq.     139.28  E(vib)   ...       0.42 
freq.     141.94  E(vib)   ...       0.41 
freq.     144.25  E(vib)   ...       0.41 
freq.     155.56  E(vib)   ...       0.40 
freq.     156.40  E(vib)   ...       0.40 
freq.     158.51  E(vib)   ...       0.39 
freq.     162.70  E(vib)   ...       0.39 
freq.     167.61  E(vib)   ...       0.38 
freq.     168.98  E(vib)   ...       0.38 
freq.     183.36  E(vib)   ...       0.37 
freq.     188.99  E(vib)   ...       0.36 
freq.     194.48  E(vib)   ...       0.36 
freq.     203.61  E(vib)   ...       0.35 
freq.     208.71  E(vib)   ...       0.34 
freq.     213.65  E(vib)   ...       0.34 
freq.     214.38  E(vib)   ...       0.34 
freq.     220.00  E(vib)   ...       0.33 
freq.     226.23  E(vib)   ...       0.33 
freq.     228.27  E(vib)   ...       0.32 
freq.     231.05  E(vib)   ...       0.32 
freq.     236.52  E(vib)   ...       0.32 
freq.     237.13  E(vib)   ...       0.32 
freq.     241.15  E(vib)   ...       0.31 
freq.     245.45  E(vib)   ...       0.31 
freq.     248.44  E(vib)   ...       0.31 
freq.     260.36  E(vib)   ...       0.30 
freq.     267.59  E(vib)   ...       0.29 
freq.     271.40  E(vib)   ...       0.29 
freq.     284.25  E(vib)   ...       0.28 
freq.     308.63  E(vib)   ...       0.26 
freq.     309.82  E(vib)   ...       0.26 
freq.     312.00  E(vib)   ...       0.25 
freq.     316.39  E(vib)   ...       0.25 
freq.     320.23  E(vib)   ...       0.25 
freq.     321.22  E(vib)   ...       0.25 
freq.     336.68  E(vib)   ...       0.24 
freq.     340.22  E(vib)   ...       0.23 
freq.     359.20  E(vib)   ...       0.22 
freq.     372.35  E(vib)   ...       0.21 
freq.     379.27  E(vib)   ...       0.21 
freq.     383.45  E(vib)   ...       0.20 
freq.     397.20  E(vib)   ...       0.20 
freq.     413.10  E(vib)   ...       0.19 
freq.     413.84  E(vib)   ...       0.19 
freq.     422.92  E(vib)   ...       0.18 
freq.     440.84  E(vib)   ...       0.17 
freq.     443.07  E(vib)   ...       0.17 
freq.     449.93  E(vib)   ...       0.17 
freq.     451.97  E(vib)   ...       0.16 
freq.     465.68  E(vib)   ...       0.16 
freq.     470.72  E(vib)   ...       0.15 
freq.     476.33  E(vib)   ...       0.15 
freq.     483.28  E(vib)   ...       0.15 
freq.     496.62  E(vib)   ...       0.14 
freq.     505.49  E(vib)   ...       0.14 
freq.     527.18  E(vib)   ...       0.13 
freq.     540.41  E(vib)   ...       0.12 
freq.     549.30  E(vib)   ...       0.12 
freq.     554.12  E(vib)   ...       0.12 
freq.     565.66  E(vib)   ...       0.11 
freq.     571.59  E(vib)   ...       0.11 
freq.     591.80  E(vib)   ...       0.10 
freq.     607.03  E(vib)   ...       0.10 
freq.     621.56  E(vib)   ...       0.09 
freq.     630.00  E(vib)   ...       0.09 
freq.     649.15  E(vib)   ...       0.08 
freq.     656.94  E(vib)   ...       0.08 
freq.     682.29  E(vib)   ...       0.08 
freq.     685.12  E(vib)   ...       0.07 
freq.     711.77  E(vib)   ...       0.07 
freq.     714.90  E(vib)   ...       0.07 
freq.     724.19  E(vib)   ...       0.06 
freq.     725.49  E(vib)   ...       0.06 
freq.     742.54  E(vib)   ...       0.06 
freq.     745.59  E(vib)   ...       0.06 
freq.     746.70  E(vib)   ...       0.06 
freq.     751.82  E(vib)   ...       0.06 
freq.     752.84  E(vib)   ...       0.06 
freq.     758.13  E(vib)   ...       0.06 
freq.     761.53  E(vib)   ...       0.06 
freq.     786.91  E(vib)   ...       0.05 
freq.     802.40  E(vib)   ...       0.05 
freq.     806.11  E(vib)   ...       0.05 
freq.     807.96  E(vib)   ...       0.05 
freq.     815.53  E(vib)   ...       0.05 
freq.     820.67  E(vib)   ...       0.05 
freq.     842.07  E(vib)   ...       0.04 
freq.     845.16  E(vib)   ...       0.04 
freq.     857.94  E(vib)   ...       0.04 
freq.     860.52  E(vib)   ...       0.04 
freq.     867.89  E(vib)   ...       0.04 
freq.     870.66  E(vib)   ...       0.04 
freq.     877.07  E(vib)   ...       0.04 
freq.     881.17  E(vib)   ...       0.04 
freq.     886.11  E(vib)   ...       0.04 
freq.     901.67  E(vib)   ...       0.03 
freq.     903.13  E(vib)   ...       0.03 
freq.     903.94  E(vib)   ...       0.03 
freq.     910.84  E(vib)   ...       0.03 
freq.     914.89  E(vib)   ...       0.03 
freq.     928.96  E(vib)   ...       0.03 
freq.     936.35  E(vib)   ...       0.03 
freq.     939.95  E(vib)   ...       0.03 
freq.     940.32  E(vib)   ...       0.03 
freq.     942.52  E(vib)   ...       0.03 
freq.     946.80  E(vib)   ...       0.03 
freq.     949.71  E(vib)   ...       0.03 
freq.     962.53  E(vib)   ...       0.03 
freq.     968.46  E(vib)   ...       0.03 
freq.     975.20  E(vib)   ...       0.03 
freq.     978.31  E(vib)   ...       0.03 
freq.     981.30  E(vib)   ...       0.02 
freq.     993.45  E(vib)   ...       0.02 
freq.     998.06  E(vib)   ...       0.02 
freq.    1005.94  E(vib)   ...       0.02 
freq.    1013.95  E(vib)   ...       0.02 
freq.    1016.03  E(vib)   ...       0.02 
freq.    1026.64  E(vib)   ...       0.02 
freq.    1030.29  E(vib)   ...       0.02 
freq.    1031.82  E(vib)   ...       0.02 
freq.    1038.77  E(vib)   ...       0.02 
freq.    1040.08  E(vib)   ...       0.02 
freq.    1048.12  E(vib)   ...       0.02 
freq.    1049.70  E(vib)   ...       0.02 
freq.    1052.91  E(vib)   ...       0.02 
freq.    1055.79  E(vib)   ...       0.02 
freq.    1064.52  E(vib)   ...       0.02 
freq.    1065.61  E(vib)   ...       0.02 
freq.    1081.22  E(vib)   ...       0.02 
freq.    1083.56  E(vib)   ...       0.02 
freq.    1090.86  E(vib)   ...       0.02 
freq.    1096.05  E(vib)   ...       0.02 
freq.    1104.65  E(vib)   ...       0.02 
freq.    1105.59  E(vib)   ...       0.02 
freq.    1109.87  E(vib)   ...       0.02 
freq.    1114.32  E(vib)   ...       0.01 
freq.    1123.18  E(vib)   ...       0.01 
freq.    1124.26  E(vib)   ...       0.01 
freq.    1128.19  E(vib)   ...       0.01 
freq.    1135.73  E(vib)   ...       0.01 
freq.    1140.13  E(vib)   ...       0.01 
freq.    1142.33  E(vib)   ...       0.01 
freq.    1151.31  E(vib)   ...       0.01 
freq.    1156.27  E(vib)   ...       0.01 
freq.    1161.01  E(vib)   ...       0.01 
freq.    1162.82  E(vib)   ...       0.01 
freq.    1170.64  E(vib)   ...       0.01 
freq.    1183.99  E(vib)   ...       0.01 
freq.    1190.24  E(vib)   ...       0.01 
freq.    1192.51  E(vib)   ...       0.01 
freq.    1198.33  E(vib)   ...       0.01 
freq.    1204.37  E(vib)   ...       0.01 
freq.    1207.95  E(vib)   ...       0.01 
freq.    1224.19  E(vib)   ...       0.01 
freq.    1226.25  E(vib)   ...       0.01 
freq.    1227.10  E(vib)   ...       0.01 
freq.    1234.74  E(vib)   ...       0.01 
freq.    1236.64  E(vib)   ...       0.01 
freq.    1241.08  E(vib)   ...       0.01 
freq.    1242.57  E(vib)   ...       0.01 
freq.    1245.99  E(vib)   ...       0.01 
freq.    1249.32  E(vib)   ...       0.01 
freq.    1252.40  E(vib)   ...       0.01 
freq.    1256.97  E(vib)   ...       0.01 
freq.    1260.94  E(vib)   ...       0.01 
freq.    1264.35  E(vib)   ...       0.01 
freq.    1275.67  E(vib)   ...       0.01 
freq.    1277.20  E(vib)   ...       0.01 
freq.    1279.76  E(vib)   ...       0.01 
freq.    1280.39  E(vib)   ...       0.01 
freq.    1281.68  E(vib)   ...       0.01 
freq.    1282.50  E(vib)   ...       0.01 
freq.    1283.07  E(vib)   ...       0.01 
freq.    1287.16  E(vib)   ...       0.01 
freq.    1287.65  E(vib)   ...       0.01 
freq.    1288.36  E(vib)   ...       0.01 
freq.    1293.09  E(vib)   ...       0.01 
freq.    1296.19  E(vib)   ...       0.01 
freq.    1298.54  E(vib)   ...       0.01 
freq.    1300.35  E(vib)   ...       0.01 
freq.    1303.14  E(vib)   ...       0.01 
freq.    1306.44  E(vib)   ...       0.01 
freq.    1308.23  E(vib)   ...       0.01 
freq.    1310.83  E(vib)   ...       0.01 
freq.    1318.83  E(vib)   ...       0.01 
freq.    1322.12  E(vib)   ...       0.01 
freq.    1322.36  E(vib)   ...       0.01 
freq.    1323.58  E(vib)   ...       0.01 
freq.    1325.78  E(vib)   ...       0.01 
freq.    1331.75  E(vib)   ...       0.01 
freq.    1340.54  E(vib)   ...       0.01 
freq.    1340.77  E(vib)   ...       0.01 
freq.    1344.06  E(vib)   ...       0.01 
freq.    1344.99  E(vib)   ...       0.01 
freq.    1348.25  E(vib)   ...       0.01 
freq.    1350.15  E(vib)   ...       0.01 
freq.    1351.13  E(vib)   ...       0.01 
freq.    1360.21  E(vib)   ...       0.01 
freq.    1363.25  E(vib)   ...       0.01 
freq.    1365.91  E(vib)   ...       0.01 
freq.    1366.99  E(vib)   ...       0.01 
freq.    1372.30  E(vib)   ...       0.01 
freq.    1387.85  E(vib)   ...       0.00 
freq.    1399.01  E(vib)   ...       0.00 
freq.    1421.47  E(vib)   ...       0.00 
freq.    1429.85  E(vib)   ...       0.00 
freq.    1433.67  E(vib)   ...       0.00 
freq.    1433.94  E(vib)   ...       0.00 
freq.    1436.83  E(vib)   ...       0.00 
freq.    1436.96  E(vib)   ...       0.00 
freq.    1437.41  E(vib)   ...       0.00 
freq.    1437.84  E(vib)   ...       0.00 
freq.    1439.76  E(vib)   ...       0.00 
freq.    1439.97  E(vib)   ...       0.00 
freq.    1440.40  E(vib)   ...       0.00 
freq.    1442.39  E(vib)   ...       0.00 
freq.    1443.14  E(vib)   ...       0.00 
freq.    1444.56  E(vib)   ...       0.00 
freq.    1446.59  E(vib)   ...       0.00 
freq.    1446.99  E(vib)   ...       0.00 
freq.    1448.84  E(vib)   ...       0.00 
freq.    1450.56  E(vib)   ...       0.00 
freq.    1450.83  E(vib)   ...       0.00 
freq.    1451.84  E(vib)   ...       0.00 
freq.    1454.16  E(vib)   ...       0.00 
freq.    1456.70  E(vib)   ...       0.00 
freq.    1457.47  E(vib)   ...       0.00 
freq.    1460.71  E(vib)   ...       0.00 
freq.    1464.90  E(vib)   ...       0.00 
freq.    1465.43  E(vib)   ...       0.00 
freq.    1467.30  E(vib)   ...       0.00 
freq.    1470.02  E(vib)   ...       0.00 
freq.    1470.69  E(vib)   ...       0.00 
freq.    1493.79  E(vib)   ...       0.00 
freq.    1499.54  E(vib)   ...       0.00 
freq.    1522.24  E(vib)   ...       0.00 
freq.    1532.28  E(vib)   ...       0.00 
freq.    1626.78  E(vib)   ...       0.00 
freq.    1639.95  E(vib)   ...       0.00 
freq.    1666.29  E(vib)   ...       0.00 
freq.    1670.71  E(vib)   ...       0.00 
freq.    1683.12  E(vib)   ...       0.00 
freq.    1688.67  E(vib)   ...       0.00 
freq.    1694.06  E(vib)   ...       0.00 
freq.    2924.42  E(vib)   ...       0.00 
freq.    2925.34  E(vib)   ...       0.00 
freq.    2927.26  E(vib)   ...       0.00 
freq.    2928.28  E(vib)   ...       0.00 
freq.    2932.13  E(vib)   ...       0.00 
freq.    2933.45  E(vib)   ...       0.00 
freq.    2936.28  E(vib)   ...       0.00 
freq.    2937.79  E(vib)   ...       0.00 
freq.    2939.36  E(vib)   ...       0.00 
freq.    2940.67  E(vib)   ...       0.00 
freq.    2942.00  E(vib)   ...       0.00 
freq.    2944.32  E(vib)   ...       0.00 
freq.    2945.20  E(vib)   ...       0.00 
freq.    2947.53  E(vib)   ...       0.00 
freq.    2953.58  E(vib)   ...       0.00 
freq.    2954.84  E(vib)   ...       0.00 
freq.    2956.06  E(vib)   ...       0.00 
freq.    2957.53  E(vib)   ...       0.00 
freq.    2957.86  E(vib)   ...       0.00 
freq.    2958.09  E(vib)   ...       0.00 
freq.    2960.25  E(vib)   ...       0.00 
freq.    2963.54  E(vib)   ...       0.00 
freq.    2964.62  E(vib)   ...       0.00 
freq.    2966.57  E(vib)   ...       0.00 
freq.    2971.03  E(vib)   ...       0.00 
freq.    2971.06  E(vib)   ...       0.00 
freq.    2975.84  E(vib)   ...       0.00 
freq.    2976.55  E(vib)   ...       0.00 
freq.    2979.29  E(vib)   ...       0.00 
freq.    2980.89  E(vib)   ...       0.00 
freq.    2988.01  E(vib)   ...       0.00 
freq.    2988.36  E(vib)   ...       0.00 
freq.    2990.28  E(vib)   ...       0.00 
freq.    2995.82  E(vib)   ...       0.00 
freq.    3006.42  E(vib)   ...       0.00 
freq.    3012.13  E(vib)   ...       0.00 
freq.    3013.19  E(vib)   ...       0.00 
freq.    3013.70  E(vib)   ...       0.00 
freq.    3017.78  E(vib)   ...       0.00 
freq.    3019.47  E(vib)   ...       0.00 
freq.    3019.93  E(vib)   ...       0.00 
freq.    3022.23  E(vib)   ...       0.00 
freq.    3026.39  E(vib)   ...       0.00 
freq.    3030.06  E(vib)   ...       0.00 
freq.    3030.75  E(vib)   ...       0.00 
freq.    3031.48  E(vib)   ...       0.00 
freq.    3037.41  E(vib)   ...       0.00 
freq.    3038.06  E(vib)   ...       0.00 
freq.    3039.59  E(vib)   ...       0.00 
freq.    3045.13  E(vib)   ...       0.00 
freq.    3047.34  E(vib)   ...       0.00 
freq.    3049.59  E(vib)   ...       0.00 
freq.    3053.29  E(vib)   ...       0.00 
freq.    3053.83  E(vib)   ...       0.00 
freq.    3058.02  E(vib)   ...       0.00 
freq.    3062.71  E(vib)   ...       0.00 
freq.    3063.57  E(vib)   ...       0.00 
freq.    3074.96  E(vib)   ...       0.00 
freq.    3323.82  E(vib)   ...       0.00 
freq.    3371.79  E(vib)   ...       0.00 
freq.    3409.55  E(vib)   ...       0.00 
freq.    3477.19  E(vib)   ...       0.00 
freq.    3509.68  E(vib)   ...       0.00 
freq.    3695.00  E(vib)   ...       0.00 

------------
INNER ENERGY
------------

The inner energy is: U= E(el) + E(ZPE) + E(vib) + E(rot) + E(trans)
    E(el)   - is the total energy from the electronic structure calculation
              = E(kin-el) + E(nuc-el) + E(el-el) + E(nuc-nuc)
    E(ZPE)  - the the zero temperature vibrational energy from the frequency calculation
    E(vib)  - the the finite temperature correction to E(ZPE) due to population
              of excited vibrational states
    E(rot)  - is the rotational thermal energy
    E(trans)- is the translational thermal energy

Summary of contributions to the inner energy U:
Electronic energy                ...  -2380.06918644 Eh
Zero point energy                ...      0.97731374 Eh     613.27 kcal/mol
Thermal vibrational correction   ...      0.05607263 Eh      35.19 kcal/mol
Thermal rotational correction    ...      0.00141627 Eh       0.89 kcal/mol
Thermal translational correction ...      0.00141627 Eh       0.89 kcal/mol
-----------------------------------------------------------------------
Total thermal energy                  -2379.03296753 Eh


Summary of corrections to the electronic energy:
(perhaps to be used in another calculation)
Total thermal correction                  0.05890517 Eh      36.96 kcal/mol
Non-thermal (ZPE) correction              0.97731374 Eh     613.27 kcal/mol
-----------------------------------------------------------------------
Total correction                          1.03621891 Eh     650.24 kcal/mol


--------
ENTHALPY
--------

The enthalpy is H = U + kB*T
                kB is Boltzmann's constant
Total free energy                 ...  -2379.03296753 Eh 
Thermal Enthalpy correction       ...      0.00094421 Eh       0.59 kcal/mol
-----------------------------------------------------------------------
Total Enthalpy                    ...  -2379.03202332 Eh


Note: Only C1 symmetry has been detected, increase convergence thresholds 
      if your molecule has a higher symmetry. Symmetry factor of 1.0 is   
      used for the rotational entropy correction. 
 

Note: Rotational entropy computed according to Herzberg 
Infrared and Raman Spectra, Chapter V,1, Van Nostrand Reinhold, 1945 
Point Group:  C1, Symmetry Number:   1  
Rotational constants in cm-1:     0.002860     0.000854     0.000773 

Vibrational entropy computed according to the QRRHO of S. Grimme
Chem.Eur.J. 2012 18 9955


-------
ENTROPY
-------

The entropy contributions are T*S = T*(S(el)+S(vib)+S(rot)+S(trans))
     S(el)   - electronic entropy
     S(vib)  - vibrational entropy
     S(rot)  - rotational entropy
     S(trans)- translational entropy
The entropies will be listed as mutliplied by the temperature to get
units of energy

Electronic entropy                ...      0.00000000 Eh      0.00 kcal/mol
Vibrational entropy               ...      0.10379552 Eh     65.13 kcal/mol
Rotational entropy                ...      0.01899449 Eh     11.92 kcal/mol
Translational entropy             ...      0.02166895 Eh     13.60 kcal/mol
-----------------------------------------------------------------------
Final entropy term                ...      0.14445895 Eh     90.65 kcal/mol

In case the symmetry of your molecule has not been determined correctly
or in case you have a reason to use a different symmetry number we print 
out the resulting rotational entropy values for sn=1,12 :
 --------------------------------------------------------
|  sn= 1 | S(rot)=       0.01899449 Eh     11.92 kcal/mol|
|  sn= 2 | S(rot)=       0.01834003 Eh     11.51 kcal/mol|
|  sn= 3 | S(rot)=       0.01795720 Eh     11.27 kcal/mol|
|  sn= 4 | S(rot)=       0.01768557 Eh     11.10 kcal/mol|
|  sn= 5 | S(rot)=       0.01747489 Eh     10.97 kcal/mol|
|  sn= 6 | S(rot)=       0.01730274 Eh     10.86 kcal/mol|
|  sn= 7 | S(rot)=       0.01715719 Eh     10.77 kcal/mol|
|  sn= 8 | S(rot)=       0.01703112 Eh     10.69 kcal/mol|
|  sn= 9 | S(rot)=       0.01691991 Eh     10.62 kcal/mol|
|  sn=10 | S(rot)=       0.01682043 Eh     10.55 kcal/mol|
|  sn=11 | S(rot)=       0.01673044 Eh     10.50 kcal/mol|
|  sn=12 | S(rot)=       0.01664828 Eh     10.45 kcal/mol|
 --------------------------------------------------------


-------------------
GIBBS FREE ENERGY
-------------------

The Gibbs free energy is G = H - T*S

Total enthalpy                    ...  -2379.03202332 Eh 
Total entropy correction          ...     -0.14445895 Eh    -90.65 kcal/mol
-----------------------------------------------------------------------
Final Gibbs free energy         ...  -2379.17648227 Eh

For completeness - the Gibbs free energy minus the electronic energy
G-E(el)                           ...      0.89270417 Eh    560.18 kcal/mol

--------------------------------------------------------------------------
WARNING: No preset parameters were found for the device that Open MPI
detected:

  Local host:            eu-g1-034-3
  Device name:           mlx5_0
  Device vendor ID:      0x02c9
  Device vendor part ID: 4123

Default device parameters will be used, which may result in lower
performance.  You can edit any of the files specified by the
btl_openib_device_param_files MCA parameter to set values for your
device.

NOTE: You can turn off this warning by setting the MCA parameter
      btl_openib_warn_no_device_params_found to 0.
--------------------------------------------------------------------------
--------------------------------------------------------------------------
WARNING: There was an error initializing an OpenFabrics device.

  Local host:   eu-g1-034-3
  Local device: mlx5_0
--------------------------------------------------------------------------

Timings for individual modules:

Sum of individual times         ...    23598.875 sec (= 393.315 min)
GTO integral calculation        ...       11.879 sec (=   0.198 min)   0.1 %
SCF iterations                  ...      331.238 sec (=   5.521 min)   1.4 %
SCF Gradient evaluation         ...       68.506 sec (=   1.142 min)   0.3 %
Geometry relaxation             ...        4.033 sec (=   0.067 min)   0.0 %
Analytical frequency calculation...    23183.219 sec (= 386.387 min)  98.2 %
                             ****ORCA TERMINATED NORMALLY****
TOTAL RUN TIME: 0 days 6 hours 33 minutes 35 seconds 915 msec
