
                                 *****************
                                 * O   R   C   A *
                                 *****************

           --- An Ab Initio, DFT and Semiempirical electronic structure package ---

                  #######################################################
                  #                        -***-                        #
                  #          Department of theory and spectroscopy      #
                  #               Directorship: Frank Neese             #
                  #        Max Planck Institute fuer Kohlenforschung    #
                  #                Kaiser Wilhelm Platz 1               #
                  #                 D-45470 Muelheim/Ruhr               #
                  #                      Germany                        #
                  #                                                     #
                  #                  All rights reserved                #
                  #                        -***-                        #
                  #######################################################


                         Program Version 4.2.0 -  RELEASE  -


 With contributions from (in alphabetic order):
   Daniel Aravena         : Magnetic Suceptibility
   Michael Atanasov       : Ab Initio Ligand Field Theory (pilot matlab implementation)
   Alexander A. Auer      : GIAO ZORA, VPT2
   Ute Becker             : Parallelization
   Giovanni Bistoni       : ED, misc. LED, open-shell LED, HFLED
   Martin Brehm           : Molecular dynamics
   Dmytro Bykov           : SCF Hessian
   Vijay G. Chilkuri      : MRCI spin determinant printing, contributions to CSF-ICE
   Dipayan Datta          : RHF DLPNO-CCSD density
   Achintya Kumar Dutta   : EOM-CC, STEOM-CC
   Dmitry Ganyushin       : Spin-Orbit,Spin-Spin,Magnetic field MRCI
   Miquel Garcia          : C-PCM Hessian, Gaussian charge scheme
   Yang Guo               : DLPNO-NEVPT2, CIM, IAO-localization
   Andreas Hansen         : Spin unrestricted coupled pair/coupled cluster methods
   Benjamin Helmich-Paris : CASSCF linear response (MC-RPA)
   Lee Huntington         : MR-EOM, pCC
   Robert Izsak           : Overlap fitted RIJCOSX, COSX-SCS-MP3, EOM
   Christian Kollmar      : KDIIS, OOCD, Brueckner-CCSD(T), CCSD density
   Simone Kossmann        : Meta GGA functionals, TD-DFT gradient, OOMP2, MP2 Hessian
   Martin Krupicka        : AUTO-CI
   Lucas Lang             : DCDCAS
   Dagmar Lenk            : GEPOL surface, SMD
   Dimitrios Liakos       : Extrapolation schemes; Compound Job, initial MDCI parallelization
   Dimitrios Manganas     : Further ROCIS development; embedding schemes
   Dimitrios Pantazis     : SARC Basis sets
   Taras Petrenko         : DFT Hessian,TD-DFT gradient, ASA, ECA, R-Raman, ABS, FL, XAS/XES, NRVS
   Peter Pinski           : DLPNO-MP2, DLPNO-MP2 Gradient
   Christoph Reimann      : Effective Core Potentials
   Marius Retegan         : Local ZFS, SOC
   Christoph Riplinger    : Optimizer, TS searches, QM/MM, DLPNO-CCSD(T), (RO)-DLPNO pert. Triples
   Tobias Risthaus        : Range-separated hybrids, TD-DFT gradient, RPA, STAB
   Michael Roemelt        : Original ROCIS implementation
   Masaaki Saitow         : Open-shell DLPNO-CCSD energy and density
   Barbara Sandhoefer     : DKH picture change effects
   Avijit Sen             : IP-ROCIS
   Kantharuban Sivalingam : CASSCF convergence, NEVPT2, FIC-MRCI
   Bernardo de Souza      : ESD, SOC TD-DFT
   Georgi Stoychev        : AutoAux, RI-MP2 NMR
   Willem Van den Heuvel  : Paramagnetic NMR
   Boris Wezisla          : Elementary symmetry handling
   Frank Wennmohs         : Technical directorship


 We gratefully acknowledge several colleagues who have allowed us to
 interface, adapt or use parts of their codes:
   Stefan Grimme, W. Hujo, H. Kruse,             : VdW corrections, initial TS optimization,
                  C. Bannwarth                     DFT functionals, gCP, sTDA/sTD-DF
   Ed Valeev, F. Pavosevic, A. Kumar             : LibInt (2-el integral package), F12 methods
   Garnet Chan, S. Sharma, J. Yang, R. Olivares  : DMRG
   Ulf Ekstrom                                   : XCFun DFT Library
   Mihaly Kallay                                 : mrcc  (arbitrary order and MRCC methods)
   Andreas Klamt, Michael Diedenhofen            : otool_cosmo (COSMO solvation model)
   Jiri Pittner, Ondrej Demel                    : Mk-CCSD
   Frank Weinhold                                : gennbo (NPA and NBO analysis)
   Christopher J. Cramer and Donald G. Truhlar   : smd solvation model
   Lars Goerigk                                  : TD-DFT with DH, B97 family of functionals
   V. Asgeirsson, H. Jonsson                     : NEB implementation
   FAccTs GmbH                                   : IRC, NEB, NEB-TS, Multilevel, MM, QM/MM, CI optimization
   S Lehtola, MJT Oliveira, MAL Marques          : LibXC Library


 Your calculation uses the libint2 library for the computation of 2-el integrals
 For citations please refer to: http://libint.valeyev.net

 Your ORCA version has been built with support for libXC version: 4.2.3
 For citations please refer to: https://tddft.org/programs/libxc/

 This ORCA versions uses:
   CBLAS   interface :  Fast vector & matrix operations
   LAPACKE interface :  Fast linear algebra routines
   SCALAPACK package :  Parallel linear algebra routines




***************************************
The coordinates will be read from file: 31.xyz
***************************************


Your calculation utilizes the atom-pairwise dispersion correction
with the Becke-Johnson damping scheme (D3BJ)
Cite in your paper:
S.Grimme, S.Ehrlich, L.Goerigk, J Comput Chem, (2011), 32, 1456–1465 
S.Grimme, J.Antony, S.Ehrlich and H.Krieg, J.Chem.Phys., 132, (2010), 154104 
   

----- Orbital basis set information -----
Your calculation utilizes the basis: def2-TZVP
   F. Weigend and R. Ahlrichs, Phys. Chem. Chem. Phys. 7, 3297 (2005).

----- AuxJ basis set information -----
Your calculation utilizes the auxiliary basis: def2/J
   F. Weigend, Phys. Chem. Chem. Phys. 8, 1057 (2006).

================================================================================
                                        WARNINGS
                       Please study these warnings very carefully!
================================================================================


WARNING: Geometry Optimization
  ===> : Switching off AutoStart
         For restart on a previous wavefunction, please use MOREAD

INFO   : the flag for use of LIBINT has been found!

================================================================================
                                       INPUT FILE
================================================================================
NAME = 31.inp
|  1> !RI BP86 def2-tzvp def2/J D3BJ VeryTightSCF VeryTightOpt Grid5 FinalGrid6 freq
|  2> %maxcore 4000
|  3> %pal nprocs 24
|  4> end
|  5> * xyzfile 0 1 31.xyz 
|  6> 
|  7>                          ****END OF INPUT****
================================================================================

                       *****************************
                       * Geometry Optimization Run *
                       *****************************

Geometry optimization settings:
Update method            Update   .... BFGS
Choice of coordinates    CoordSys .... Z-matrix Internals
Initial Hessian          InHess   .... Almoef's Model

Convergence Tolerances:
Energy Change            TolE     ....  2.0000e-07 Eh
Max. Gradient            TolMAXG  ....  3.0000e-05 Eh/bohr
RMS Gradient             TolRMSG  ....  8.0000e-06 Eh/bohr
Max. Displacement        TolMAXD  ....  2.0000e-04 bohr
RMS Displacement         TolRMSD  ....  1.0000e-04 bohr
Strict Convergence                ....  False
------------------------------------------------------------------------------
                        ORCA OPTIMIZATION COORDINATE SETUP
------------------------------------------------------------------------------

The optimization will be done in new redundant internal coordinates
Making redundant internal coordinates   ...  (new redundants) done
Evaluating the initial hessian          ...  (Almloef) done
Evaluating the coordinates              ...  done
Calculating the B-matrix                .... done
Calculating the G-matrix                .... done
Diagonalizing the G-matrix              .... done
Small eigenvalue found = 2.261e-04
Small eigenvalue found = 5.607e-04
Small eigenvalue found = 1.499e-03
Small eigenvalue found = 2.241e-03
Small eigenvalue found = 3.741e-03
Small eigenvalue found = 4.717e-03
Small eigenvalue found = 5.294e-03
Small eigenvalue found = 6.106e-03
Small eigenvalue found = 7.932e-03
Small eigenvalue found = 8.468e-03
Small eigenvalue found = 1.019e-02
Small eigenvalue found = 1.099e-02
Small eigenvalue found = 1.289e-02
Small eigenvalue found = 1.450e-02
Small eigenvalue found = 1.533e-02
Small eigenvalue found = 2.022e-02
Small eigenvalue found = 2.185e-02
Small eigenvalue found = 2.610e-02
Small eigenvalue found = 2.739e-02
Small eigenvalue found = 2.961e-02
The first mode is                       ....  324
The number of degrees of freedom        ....  339

    -----------------------------------------------------------------
                    Redundant Internal Coordinates


    -----------------------------------------------------------------
         Definition                    Initial Value    Approx d2E/dq
    -----------------------------------------------------------------
      1. B(C   1,O   0)                  1.2411         0.967040   
      2. B(C   2,C   1)                  1.5293         0.374522   
      3. B(C   3,C   2)                  1.5408         0.359073   
      4. B(C   4,C   3)                  1.5339         0.368235   
      5. B(C   5,C   4)                  1.5327         0.369936   
      6. B(N   6,C   2)                  1.4722         0.413769   
      7. B(N   6,C   5)                  1.4784         0.404483   
      8. B(C   7,N   6)                  1.3751         0.591060   
      9. B(O   8,C   7)                  1.2316         1.001473   
     10. B(N   9,C   1)                  1.3493         0.649953   
     11. B(C  10,N   9)                  1.4637         0.426801   
     12. B(C  11,C  10)                  1.5511         0.345701   
     13. B(N  12,C  11)                  1.3539         0.638993   
     14. B(C  13,N  12)                  1.4641         0.426235   
     15. B(C  14,C  13)                  1.5526         0.343755   
     16. B(N  15,C  14)                  1.3637         0.616394   
     17. B(C  16,N  15)                  1.4483         0.451683   
     18. B(C  17,C  16)                  1.5419         0.357551   
     19. B(C  18,C  17)                  1.5447         0.353950   
     20. B(C  19,C  18)                  1.5272         0.377410   
     21. B(N  20,C  19)                  1.3618         0.620690   
     22. B(C  21,N  20)                  1.4732         0.412274   
     23. B(C  22,C  21)                  1.5556         0.340047   
     24. B(N  23,C  22)                  1.3632         0.617477   
     25. B(C  24,N  23)                  1.4496         0.449587   
     26. B(C  24,C   7)                  1.5436         0.355390   
     27. B(C  25,C  24)                  1.5400         0.360103   
     28. B(O  26,C  22)                  1.2294         1.009315   
     29. B(C  27,C  21)                  1.5374         0.363596   
     30. B(C  28,C  27)                  1.5371         0.363979   
     31. B(C  29,C  28)                  1.5332         0.369204   
     32. B(C  30,C  28)                  1.5325         0.370099   
     33. B(O  31,C  19)                  1.2386         0.976051   
     34. B(C  32,C  18)                  1.5434         0.355627   
     35. B(C  33,C  32)                  1.5126         0.398197   
     36. B(C  34,C  33)                  1.5235         0.382648   
     37. B(C  35,C  34)                  1.5299         0.373693   
     38. B(C  36,C  35)                  1.5302         0.373239   
     39. B(C  37,C  36)                  1.5301         0.373376   
     40. B(C  38,C  37)                  1.5303         0.373141   
     41. B(C  39,C  38)                  1.5302         0.373347   
     42. B(C  40,C  39)                  1.5310         0.372241   
     43. B(C  41,C  40)                  1.5299         0.373748   
     44. B(O  42,C  32)                  1.2147         1.065436   
     45. B(O  43,C  17)                  1.4171         0.506601   
     46. B(O  44,C  14)                  1.2272         1.017562   
     47. B(C  45,C  13)                  1.5336         0.368718   
     48. B(C  46,C  45)                  1.5273         0.377294   
     49. B(O  47,C  11)                  1.2372         0.980926   
     50. B(C  48,C  10)                  1.5378         0.363017   
     51. B(C  49,C  48)                  1.5328         0.369811   
     52. B(C  50,C  48)                  1.5332         0.369244   
     53. B(H  51,C   2)                  1.0989         0.348550   
     54. B(H  52,C   3)                  1.0996         0.347628   
     55. B(H  53,C   3)                  1.0957         0.352661   
     56. B(H  54,C   4)                  1.1002         0.346917   
     57. B(H  55,C   4)                  1.0969         0.351132   
     58. B(H  56,C   5)                  1.0988         0.348588   
     59. B(H  57,C   5)                  1.1016         0.345016   
     60. B(H  58,N   9)                  1.0172         0.421384   
     61. B(H  59,C  10)                  1.1028         0.343550   
     62. B(H  60,N  12)                  1.0274         0.405856   
     63. B(H  61,C  13)                  1.1032         0.343015   
     64. B(H  62,O   8)                  2.3644         0.002988   
     65. B(H  62,N  15)                  1.0174         0.421135   
     66. B(H  63,C  16)                  1.1000         0.347147   
     67. B(H  64,C  16)                  1.0979         0.349736   
     68. B(H  65,C  17)                  1.1064         0.339080   
     69. B(H  66,C  18)                  1.1023         0.344242   
     70. B(H  67,N  20)                  1.0150         0.424777   
     71. B(H  68,C  21)                  1.0964         0.351680   
     72. B(H  69,N  23)                  1.0329         0.397835   
     73. B(H  70,C  24)                  1.1014         0.345392   
     74. B(H  71,C  25)                  1.0978         0.349870   
     75. B(H  72,C  25)                  1.0979         0.349826   
     76. B(H  73,C  25)                  1.0937         0.355239   
     77. B(H  74,C  27)                  1.0986         0.348945   
     78. B(H  75,C  27)                  1.1037         0.342413   
     79. B(H  76,C  28)                  1.1045         0.341420   
     80. B(H  77,C  29)                  1.0985         0.349062   
     81. B(H  78,C  29)                  1.1023         0.344233   
     82. B(H  79,C  29)                  1.0996         0.347629   
     83. B(H  80,C  30)                  1.1000         0.347093   
     84. B(H  81,C  30)                  1.0996         0.347610   
     85. B(H  82,C  30)                  1.1017         0.345002   
     86. B(H  83,C  33)                  1.1059         0.339612   
     87. B(H  84,C  33)                  1.1066         0.338790   
     88. B(H  85,C  34)                  1.1017         0.344907   
     89. B(H  86,C  34)                  1.1012         0.345639   
     90. B(H  87,C  35)                  1.1044         0.341522   
     91. B(H  88,C  35)                  1.1048         0.341012   
     92. B(H  89,C  36)                  1.1043         0.341721   
     93. B(H  90,C  36)                  1.1041         0.341933   
     94. B(H  91,C  37)                  1.1044         0.341599   
     95. B(H  92,C  37)                  1.1045         0.341422   
     96. B(H  93,C  38)                  1.1044         0.341508   
     97. B(H  94,C  38)                  1.1044         0.341600   
     98. B(H  95,C  39)                  1.1046         0.341344   
     99. B(H  96,C  39)                  1.1046         0.341262   
    100. B(H  97,C  40)                  1.1034         0.342747   
    101. B(H  98,C  40)                  1.1034         0.342783   
    102. B(H  99,C  41)                  1.0995         0.347760   
    103. B(H 100,C  41)                  1.1008         0.346121   
    104. B(H 101,C  41)                  1.1008         0.346148   
    105. B(H 102,O  43)                  0.9863         0.472149   
    106. B(H 103,C  45)                  1.0980         0.349722   
    107. B(H 104,C  45)                  1.0989         0.348492   
    108. B(H 105,C  46)                  1.0987         0.348728   
    109. B(H 106,C  46)                  1.1014         0.345332   
    110. B(H 107,C  46)                  1.1001         0.346976   
    111. B(H 108,C  48)                  1.1012         0.345582   
    112. B(H 109,H  65)                  2.1544         0.001381   
    113. B(H 109,C  49)                  1.0946         0.354031   
    114. B(H 110,C  49)                  1.0982         0.349476   
    115. B(H 111,H  69)                  4.4536         0.000000   
    116. B(H 111,C  49)                  1.1032         0.343063   
    117. B(H 112,C  50)                  1.0999         0.347186   
    118. B(H 113,C  50)                  1.1014         0.345321   
    119. B(H 114,C  50)                  1.0987         0.348748   
    120. A(O   0,C   1,N   9)          123.4051         0.468366   
    121. A(C   2,C   1,N   9)          117.4394         0.397605   
    122. A(O   0,C   1,C   2)          119.1524         0.426645   
    123. A(C   1,C   2,H  51)          105.3065         0.322723   
    124. A(N   6,C   2,H  51)          109.3079         0.326087   
    125. A(C   1,C   2,N   6)          116.0758         0.367620   
    126. A(C   1,C   2,C   3)          110.5531         0.361060   
    127. A(C   3,C   2,H  51)          112.6252         0.320505   
    128. A(C   3,C   2,N   6)          103.1915         0.364976   
    129. A(C   4,C   3,H  53)          114.2046         0.322448   
    130. A(C   4,C   3,H  52)          110.5151         0.321689   
    131. A(C   2,C   3,C   4)          102.8176         0.360019   
    132. A(C   2,C   3,H  53)          111.5047         0.321120   
    133. A(C   2,C   3,H  52)          109.4029         0.320366   
    134. A(H  52,C   3,H  53)          108.2770         0.288292   
    135. A(H  54,C   4,H  55)          107.9626         0.288004   
    136. A(C   3,C   4,H  55)          113.3863         0.322218   
    137. A(C   3,C   4,C   5)          102.9786         0.361854   
    138. A(C   3,C   4,H  54)          110.1824         0.321582   
    139. A(C   5,C   4,H  55)          112.0987         0.322462   
    140. A(C   5,C   4,H  54)          110.1902         0.321824   
    141. A(H  56,C   5,H  57)          108.1573         0.287429   
    142. A(C   4,C   5,N   6)          103.1907         0.365421   
    143. A(C   4,C   5,H  56)          112.8064         0.322078   
    144. A(N   6,C   5,H  57)          111.1560         0.324329   
    145. A(N   6,C   5,H  56)          110.8379         0.324879   
    146. A(C   4,C   5,H  57)          110.6867         0.321535   
    147. A(C   5,N   6,C   7)          127.0022         0.393820   
    148. A(C   2,N   6,C   7)          119.5322         0.395390   
    149. A(C   2,N   6,C   5)          111.9714         0.370183   
    150. A(O   8,C   7,C  24)          122.8758         0.425314   
    151. A(N   6,C   7,O   8)          121.0911         0.463249   
    152. A(N   6,C   7,C  24)          115.9551         0.387478   
    153. A(C   1,N   9,C  10)          123.0526         0.404253   
    154. A(C  10,N   9,H  58)          118.6055         0.335331   
    155. A(C   1,N   9,H  58)          117.9716         0.359933   
    156. A(C  48,C  10,H  59)          109.1311         0.320320   
    157. A(C  11,C  10,H  59)          106.4957         0.317775   
    158. A(N   9,C  10,C  11)          110.3917         0.364543   
    159. A(N   9,C  10,C  48)          111.1085         0.367608   
    160. A(N   9,C  10,H  59)          105.5989         0.326978   
    161. A(C  11,C  10,C  48)          113.6836         0.356835   
    162. A(N  12,C  11,O  47)          124.2419         0.468130   
    163. A(C  10,C  11,O  47)          122.6259         0.421652   
    164. A(C  10,C  11,N  12)          113.1244         0.390898   
    165. A(C  13,N  12,H  60)          119.8765         0.333173   
    166. A(C  11,N  12,C  13)          123.5058         0.402947   
    167. A(C  11,N  12,H  60)          116.5850         0.356608   
    168. A(C  14,C  13,C  45)          111.0175         0.357438   
    169. A(N  12,C  13,H  61)          105.4293         0.326823   
    170. A(C  14,C  13,H  61)          106.6540         0.317403   
    171. A(N  12,C  13,C  14)          111.7370         0.364109   
    172. A(C  45,C  13,H  61)          108.6151         0.321056   
    173. A(N  12,C  13,C  45)          112.9845         0.368509   
    174. A(C  13,C  14,N  15)          114.7200         0.388065   
    175. A(N  15,C  14,O  44)          124.0405         0.468187   
    176. A(C  13,C  14,O  44)          121.2153         0.423996   
    177. A(C  14,N  15,H  62)          119.6540         0.356665   
    178. A(C  16,N  15,H  62)          116.2320         0.338477   
    179. A(C  14,N  15,C  16)          122.9160         0.404513   
    180. A(H  63,C  16,H  64)          110.3551         0.287854   
    181. A(C  17,C  16,H  64)          111.1083         0.320460   
    182. A(N  15,C  16,H  63)          107.9881         0.330619   
    183. A(C  17,C  16,H  63)          109.3965         0.320072   
    184. A(N  15,C  16,C  17)          110.0230         0.370237   
    185. A(N  15,C  16,H  64)          107.9075         0.331025   
    186. A(O  43,C  17,H  65)          110.8868         0.335660   
    187. A(C  18,C  17,H  65)          107.0073         0.318319   
    188. A(C  16,C  17,H  65)          108.8063         0.318845   
    189. A(C  16,C  17,C  18)          112.9911         0.357345   
    190. A(C  18,C  17,O  43)          105.7278         0.376976   
    191. A(C  16,C  17,O  43)          111.3317         0.377637   
    192. A(C  19,C  18,H  66)          110.3180         0.322471   
    193. A(C  17,C  18,H  66)          108.1373         0.319105   
    194. A(C  17,C  18,C  32)          108.3945         0.357018   
    195. A(C  17,C  18,C  19)          110.2136         0.360648   
    196. A(C  19,C  18,C  32)          110.4676         0.360939   
    197. A(C  32,C  18,H  66)          109.2514         0.319351   
    198. A(C  18,C  19,N  20)          114.6589         0.394935   
    199. A(N  20,C  19,O  31)          123.2164         0.465220   
    200. A(C  18,C  19,O  31)          122.0597         0.427943   
    201. A(C  19,N  20,H  67)          116.3743         0.357609   
    202. A(C  19,N  20,C  21)          126.0813         0.398547   
    203. A(C  21,N  20,H  67)          116.0834         0.333852   
    204. A(C  27,C  21,H  68)          109.1735         0.321632   
    205. A(C  22,C  21,H  68)          103.4721         0.318133   
    206. A(N  20,C  21,H  68)          105.1973         0.326373   
    207. A(N  20,C  21,C  22)          112.9045         0.361373   
    208. A(C  22,C  21,C  27)          113.1151         0.355933   
    209. A(N  20,C  21,C  27)          112.2187         0.365533   
    210. A(C  21,C  22,N  23)          113.6532         0.387450   
    211. A(C  21,C  22,O  26)          119.9798         0.422560   
    212. A(N  23,C  22,O  26)          126.2902         0.467639   
    213. A(C  22,N  23,C  24)          126.8487         0.404306   
    214. A(C  24,N  23,H  69)          117.0671         0.335025   
    215. A(C  22,N  23,H  69)          114.7331         0.353344   
    216. A(C  25,C  24,H  70)          108.1987         0.320178   
    217. A(N  23,C  24,H  70)          105.5481         0.330087   
    218. A(C   7,C  24,H  70)          108.0028         0.319490   
    219. A(N  23,C  24,C  25)          113.2521         0.370394   
    220. A(C   7,C  24,N  23)          112.3156         0.369556   
    221. A(C   7,C  24,C  25)          109.2581         0.358024   
    222. A(H  71,C  25,H  73)          108.3016         0.288911   
    223. A(C  24,C  25,H  73)          110.4599         0.321654   
    224. A(H  71,C  25,H  72)          108.3166         0.288218   
    225. A(C  24,C  25,H  72)          110.5986         0.320847   
    226. A(C  24,C  25,H  71)          109.4384         0.320853   
    227. A(H  72,C  25,H  73)          109.6662         0.288905   
    228. A(C  28,C  27,H  75)          109.4095         0.320285   
    229. A(C  21,C  27,C  28)          114.0564         0.360074   
    230. A(H  74,C  27,H  75)          106.7446         0.287135   
    231. A(C  21,C  27,H  75)          107.6397         0.320230   
    232. A(C  28,C  27,H  74)          109.6369         0.321277   
    233. A(C  21,C  27,H  74)          109.0847         0.321221   
    234. A(C  29,C  28,C  30)          111.1100         0.362043   
    235. A(C  27,C  28,C  30)          109.5802         0.361164   
    236. A(C  27,C  28,C  29)          112.5130         0.361015   
    237. A(C  30,C  28,H  76)          107.8768         0.321007   
    238. A(C  29,C  28,H  76)          107.9112         0.320880   
    239. A(C  27,C  28,H  76)          107.6689         0.320133   
    240. A(C  28,C  29,H  79)          110.6616         0.321828   
    241. A(H  78,C  29,H  79)          107.5454         0.287204   
    242. A(H  77,C  29,H  79)          107.3672         0.287830   
    243. A(H  77,C  29,H  78)          108.5233         0.287388   
    244. A(C  28,C  29,H  78)          110.7225         0.321311   
    245. A(C  28,C  29,H  77)          111.8561         0.322045   
    246. A(H  81,C  30,H  82)          107.6335         0.287301   
    247. A(H  80,C  30,H  82)          107.7136         0.287235   
    248. A(C  28,C  30,H  82)          110.7559         0.321556   
    249. A(H  80,C  30,H  81)          108.0471         0.287573   
    250. A(C  28,C  30,H  81)          111.0961         0.321953   
    251. A(C  28,C  30,H  80)          111.4350         0.321874   
    252. A(C  33,C  32,O  42)          123.3995         0.438954   
    253. A(C  18,C  32,O  42)          121.3112         0.430112   
    254. A(C  18,C  32,C  33)          115.2891         0.364259   
    255. A(C  32,C  33,C  34)          114.4510         0.368860   
    256. A(C  34,C  33,H  84)          111.4591         0.322356   
    257. A(H  83,C  33,H  84)          104.8837         0.285450   
    258. A(C  32,C  33,H  84)          107.8412         0.324470   
    259. A(C  34,C  33,H  83)          111.2910         0.322484   
    260. A(C  32,C  33,H  83)          106.3375         0.324599   
    261. A(C  33,C  34,C  35)          112.8805         0.364865   
    262. A(H  85,C  34,H  86)          105.6360         0.287034   
    263. A(C  35,C  34,H  86)          110.0492         0.322163   
    264. A(C  33,C  34,H  86)          108.8606         0.323416   
    265. A(C  35,C  34,H  85)          110.0181         0.322051   
    266. A(C  33,C  34,H  85)          109.1319         0.323303   
    267. A(C  34,C  35,C  36)          113.1667         0.363315   
    268. A(H  87,C  35,H  88)          105.8977         0.285991   
    269. A(C  36,C  35,H  88)          109.2074         0.321388   
    270. A(C  34,C  35,H  88)          109.5437         0.321452   
    271. A(C  36,C  35,H  87)          109.2629         0.321467   
    272. A(C  34,C  35,H  87)          109.5040         0.321531   
    273. A(C  35,C  36,C  37)          113.5460         0.363263   
    274. A(H  89,C  36,H  90)          105.8873         0.286137   
    275. A(C  37,C  36,H  90)          109.3480         0.321550   
    276. A(C  35,C  36,H  90)          109.2133         0.321530   
    277. A(C  37,C  36,H  89)          109.3344         0.321517   
    278. A(C  35,C  36,H  89)          109.2277         0.321498   
    279. A(C  36,C  37,C  38)          113.5069         0.363246   
    280. A(H  91,C  37,H  92)          105.8934         0.286054   
    281. A(C  38,C  37,H  92)          109.2708         0.321438   
    282. A(C  36,C  37,H  92)          109.2969         0.321471   
    283. A(C  38,C  37,H  91)          109.2813         0.321465   
    284. A(C  36,C  37,H  91)          109.3106         0.321498   
    285. A(C  37,C  38,C  39)          113.5707         0.363241   
    286. A(H  93,C  38,H  94)          105.8800         0.286066   
    287. A(C  39,C  38,H  94)          109.2892         0.321494   
    288. A(C  37,C  38,H  94)          109.2648         0.321465   
    289. A(C  39,C  38,H  93)          109.2906         0.321480   
    290. A(C  37,C  38,H  93)          109.2593         0.321451   
    291. A(C  38,C  39,C  40)          113.5986         0.363092   
    292. A(H  95,C  39,H  96)          105.8543         0.286000   
    293. A(C  40,C  39,H  96)          109.2333         0.321286   
    294. A(C  38,C  39,H  96)          109.3134         0.321442   
    295. A(C  40,C  39,H  95)          109.2330         0.321299   
    296. A(C  38,C  39,H  95)          109.3182         0.321455   
    297. A(C  39,C  40,C  41)          113.1432         0.363158   
    298. A(H  97,C  40,H  98)          105.9295         0.286382   
    299. A(C  41,C  40,H  98)          109.6326         0.321733   
    300. A(C  39,C  40,H  98)          109.1211         0.321520   
    301. A(C  41,C  40,H  97)          109.6375         0.321727   
    302. A(C  39,C  40,H  97)          109.1208         0.321515   
    303. A(H 100,C  41,H 101)          107.4329         0.287258   
    304. A(H  99,C  41,H 101)          107.6873         0.287470   
    305. A(C  40,C  41,H 101)          111.0831         0.322248   
    306. A(H  99,C  41,H 100)          107.6916         0.287466   
    307. A(C  40,C  41,H 100)          111.0845         0.322244   
    308. A(C  40,C  41,H  99)          111.6688         0.322493   
    309. A(C  17,O  43,H 102)          108.2547         0.351754   
    310. A(C  13,C  45,C  46)          112.5729         0.363154   
    311. A(C  46,C  45,H 104)          110.8606         0.323104   
    312. A(C  13,C  45,H 104)          108.2999         0.321889   
    313. A(C  46,C  45,H 103)          111.1936         0.323291   
    314. A(C  13,C  45,H 103)          107.1243         0.322075   
    315. A(H 103,C  45,H 104)          106.5187         0.288026   
    316. A(H 106,C  46,H 107)          107.6418         0.287262   
    317. A(H 105,C  46,H 107)          107.5288         0.287702   
    318. A(C  45,C  46,H 107)          111.5747         0.322873   
    319. A(H 105,C  46,H 106)          107.6413         0.287489   
    320. A(C  45,C  46,H 106)          111.4312         0.322622   
    321. A(C  45,C  46,H 105)          110.8313         0.323140   
    322. A(C  50,C  48,H 108)          108.9464         0.321523   
    323. A(C  49,C  48,H 108)          107.4327         0.321603   
    324. A(C  10,C  48,H 108)          105.2213         0.320629   
    325. A(C  49,C  48,C  50)          111.2406         0.362002   
    326. A(C  10,C  48,C  50)          110.0360         0.360859   
    327. A(C  10,C  48,C  49)          113.6637         0.360953   
    328. A(H 110,C  49,H 111)          105.9154         0.287289   
    329. A(H 109,C  49,H 111)          108.5965         0.287871   
    330. A(C  48,C  49,H 111)          112.4820         0.321219   
    331. A(H 109,C  49,H 110)          107.1023         0.288706   
    332. A(C  48,C  49,H 110)          110.1187         0.322194   
    333. A(C  48,C  49,H 109)          112.2913         0.322879   
    334. A(H 113,C  50,H 114)          107.4708         0.287490   
    335. A(H 112,C  50,H 114)          108.0818         0.287732   
    336. A(C  48,C  50,H 114)          110.6162         0.322003   
    337. A(H 112,C  50,H 113)          107.7651         0.287288   
    338. A(C  48,C  50,H 113)          111.0131         0.321483   
    339. A(C  48,C  50,H 112)          111.7273         0.321766   
    340. D(H  51,C   2,C   1,N   9)   -127.6843         0.010486   
    341. D(C   3,C   2,C   1,N   9)    110.4060         0.010486   
    342. D(N   6,C   2,C   1,N   9)     -6.6475         0.010486   
    343. D(N   6,C   2,C   1,O   0)    173.9649         0.010486   
    344. D(C   3,C   2,C   1,O   0)    -68.9815         0.010486   
    345. D(H  51,C   2,C   1,O   0)     52.9282         0.010486   
    346. D(C   4,C   3,C   2,N   6)     31.9510         0.010348   
    347. D(H  53,C   3,C   2,H  51)    -87.5084         0.010348   
    348. D(H  53,C   3,C   2,C   1)     29.9885         0.010348   
    349. D(C   4,C   3,C   2,H  51)    149.7006         0.010348   
    350. D(H  53,C   3,C   2,N   6)    154.7420         0.010348   
    351. D(H  52,C   3,C   2,H  51)     32.2369         0.010348   
    352. D(C   4,C   3,C   2,C   1)    -92.8025         0.010348   
    353. D(H  52,C   3,C   2,C   1)    149.7338         0.010348   
    354. D(H  52,C   3,C   2,N   6)    -85.5127         0.010348   
    355. D(H  55,C   4,C   3,H  53)     77.6221         0.010846   
    356. D(H  55,C   4,C   3,H  52)    -44.7437         0.010846   
    357. D(H  54,C   4,C   3,H  52)   -165.8710         0.010846   
    358. D(H  55,C   4,C   3,C   2)   -161.4170         0.010846   
    359. D(H  54,C   4,C   3,H  53)    -43.5052         0.010846   
    360. D(C   5,C   4,C   3,C   2)    -40.0652         0.010846   
    361. D(H  54,C   4,C   3,C   2)     77.4557         0.010846   
    362. D(C   5,C   4,C   3,H  53)   -161.0262         0.010846   
    363. D(C   5,C   4,C   3,H  52)     76.6081         0.010846   
    364. D(N   6,C   5,C   4,C   3)     32.3905         0.010940   
    365. D(H  57,C   5,C   4,C   3)    -86.6047         0.010940   
    366. D(H  56,C   5,C   4,H  55)    -85.7232         0.010940   
    367. D(H  56,C   5,C   4,C   3)    152.0541         0.010940   
    368. D(H  57,C   5,C   4,H  54)    155.8798         0.010940   
    369. D(H  56,C   5,C   4,H  54)     34.5386         0.010940   
    370. D(H  57,C   5,C   4,H  55)     35.6180         0.010940   
    371. D(N   6,C   5,C   4,H  54)    -85.1249         0.010940   
    372. D(N   6,C   5,C   4,H  55)    154.6132         0.010940   
    373. D(C   5,N   6,C   2,C   3)    -12.1111         0.014602   
    374. D(C   7,N   6,C   5,H  57)    -59.8976         0.013963   
    375. D(C   7,N   6,C   5,H  56)     60.4226         0.013963   
    376. D(C   7,N   6,C   5,C   4)   -178.5669         0.013963   
    377. D(C   2,N   6,C   5,H  57)    105.9370         0.013963   
    378. D(C   2,N   6,C   5,H  56)   -133.7428         0.013963   
    379. D(C   7,N   6,C   2,H  51)     34.8557         0.014602   
    380. D(C   2,N   6,C   5,C   4)    -12.7324         0.013963   
    381. D(C   7,N   6,C   2,C   3)    154.9083         0.014602   
    382. D(C   5,N   6,C   2,C   1)    108.9638         0.014602   
    383. D(C   7,N   6,C   2,C   1)    -84.0168         0.014602   
    384. D(C   5,N   6,C   2,H  51)   -132.1637         0.014602   
    385. D(C  24,C   7,N   6,C   5)      8.5946         0.028091   
    386. D(C  24,C   7,N   6,C   2)   -156.2857         0.028091   
    387. D(O   8,C   7,N   6,C   5)   -174.5270         0.028091   
    388. D(O   8,C   7,N   6,C   2)     20.5926         0.028091   
    389. D(H  58,N   9,C   1,O   0)   -171.9963         0.034475   
    390. D(C  10,N   9,C   1,C   2)   -178.4482         0.034475   
    391. D(H  58,N   9,C   1,C   2)      8.6444         0.034475   
    392. D(C  10,N   9,C   1,O   0)      0.9111         0.034475   
    393. D(H  59,C  10,N   9,C   1)     32.6085         0.015531   
    394. D(C  48,C  10,N   9,H  58)    -36.3290         0.015531   
    395. D(C  48,C  10,N   9,C   1)    150.8061         0.015531   
    396. D(C  11,C  10,N   9,C   1)    -82.1183         0.015531   
    397. D(H  59,C  10,N   9,H  58)   -154.5266         0.015531   
    398. D(C  11,C  10,N   9,H  58)     90.7466         0.015531   
    399. D(O  47,C  11,C  10,N   9)   -121.6852         0.009051   
    400. D(N  12,C  11,C  10,H  59)    -56.8201         0.009051   
    401. D(N  12,C  11,C  10,C  48)   -177.0271         0.009051   
    402. D(N  12,C  11,C  10,N   9)     57.3392         0.009051   
    403. D(O  47,C  11,C  10,H  59)    124.1555         0.009051   
    404. D(O  47,C  11,C  10,C  48)      3.9485         0.009051   
    405. D(H  60,N  12,C  11,O  47)   -175.9733         0.033225   
    406. D(H  60,N  12,C  11,C  10)      5.0206         0.033225   
    407. D(C  13,N  12,C  11,O  47)      6.1136         0.033225   
    408. D(C  13,N  12,C  11,C  10)   -172.8925         0.033225   
    409. D(H  61,C  13,N  12,C  11)    169.4778         0.015490   
    410. D(H  61,C  13,N  12,H  60)     -8.3698         0.015490   
    411. D(C  45,C  13,N  12,H  60)    110.1045         0.015490   
    412. D(C  45,C  13,N  12,C  11)    -72.0479         0.015490   
    413. D(C  14,C  13,N  12,C  11)     54.0037         0.015490   
    414. D(C  14,C  13,N  12,H  60)   -123.8440         0.015490   
    415. D(O  44,C  14,C  13,C  45)    -24.5108         0.008959   
    416. D(O  44,C  14,C  13,N  12)   -151.6330         0.008959   
    417. D(N  15,C  14,C  13,H  61)    -84.6350         0.008959   
    418. D(N  15,C  14,C  13,C  45)    157.2096         0.008959   
    419. D(O  44,C  14,C  13,H  61)     93.6446         0.008959   
    420. D(N  15,C  14,C  13,N  12)     30.0874         0.008959   
    421. D(H  62,N  15,C  14,O  44)   -175.2095         0.030738   
    422. D(H  62,N  15,C  14,C  13)      3.0148         0.030738   
    423. D(C  16,N  15,C  14,O  44)     17.7767         0.030738   
    424. D(C  16,N  15,C  14,C  13)   -163.9989         0.030738   
    425. D(H  64,C  16,N  15,H  62)     44.4507         0.017406   
    426. D(H  64,C  16,N  15,C  14)   -148.1237         0.017406   
    427. D(H  63,C  16,N  15,H  62)    163.7421         0.017406   
    428. D(H  63,C  16,N  15,C  14)    -28.8323         0.017406   
    429. D(C  17,C  16,N  15,C  14)     90.5055         0.017406   
    430. D(C  17,C  16,N  15,H  62)    -76.9200         0.017406   
    431. D(H  65,C  17,C  16,H  64)    -61.5501         0.010267   
    432. D(H  65,C  17,C  16,H  63)    176.3628         0.010267   
    433. D(H  65,C  17,C  16,N  15)     57.8878         0.010267   
    434. D(O  43,C  17,C  16,H  64)    175.9483         0.010267   
    435. D(O  43,C  17,C  16,H  63)     53.8612         0.010267   
    436. D(O  43,C  17,C  16,N  15)    -64.6138         0.010267   
    437. D(C  18,C  17,C  16,H  64)     57.1447         0.010267   
    438. D(C  18,C  17,C  16,H  63)    -64.9424         0.010267   
    439. D(C  18,C  17,C  16,N  15)    176.5827         0.010267   
    440. D(H  66,C  18,C  17,H  65)    175.1967         0.010076   
    441. D(H  66,C  18,C  17,O  43)    -66.5438         0.010076   
    442. D(H  66,C  18,C  17,C  16)     55.4624         0.010076   
    443. D(C  32,C  18,C  17,O  43)     51.7875         0.010076   
    444. D(C  32,C  18,C  17,C  16)    173.7936         0.010076   
    445. D(C  32,C  18,C  17,H  65)    -66.4720         0.010076   
    446. D(C  19,C  18,C  17,H  65)     54.5345         0.010076   
    447. D(C  19,C  18,C  17,O  43)    172.7940         0.010076   
    448. D(C  19,C  18,C  17,C  16)    -65.1999         0.010076   
    449. D(O  31,C  19,C  18,H  66)    156.7900         0.010638   
    450. D(O  31,C  19,C  18,C  32)     35.8941         0.010638   
    451. D(O  31,C  19,C  18,C  17)    -83.8650         0.010638   
    452. D(N  20,C  19,C  18,H  66)    -26.0551         0.010638   
    453. D(N  20,C  19,C  18,C  17)     93.2899         0.010638   
    454. D(N  20,C  19,C  18,C  32)   -146.9511         0.010638   
    455. D(H  67,N  20,C  19,O  31)    173.7392         0.031201   
    456. D(H  67,N  20,C  19,C  18)     -3.3787         0.031201   
    457. D(C  21,N  20,C  19,O  31)      8.1422         0.031201   
    458. D(C  21,N  20,C  19,C  18)   -168.9756         0.031201   
    459. D(H  68,C  21,N  20,H  67)     11.0872         0.014498   
    460. D(H  68,C  21,N  20,C  19)    176.7209         0.014498   
    461. D(C  27,C  21,N  20,H  67)    129.6804         0.014498   
    462. D(C  27,C  21,N  20,C  19)    -64.6859         0.014498   
    463. D(C  22,C  21,N  20,H  67)   -101.0515         0.014498   
    464. D(C  22,C  21,N  20,C  19)     64.5822         0.014498   
    465. D(N  23,C  22,C  21,C  27)     63.3947         0.008786   
    466. D(N  23,C  22,C  21,N  20)    -65.4116         0.008786   
    467. D(O  26,C  22,C  21,H  68)      4.3843         0.008786   
    468. D(O  26,C  22,C  21,C  27)   -113.6150         0.008786   
    469. D(O  26,C  22,C  21,N  20)    117.5786         0.008786   
    470. D(N  23,C  22,C  21,H  68)   -178.6060         0.008786   
    471. D(H  69,N  23,C  22,O  26)   -171.6827         0.030854   
    472. D(H  69,N  23,C  22,C  21)     11.5310         0.030854   
    473. D(C  24,N  23,C  22,O  26)     -5.4463         0.030854   
    474. D(C  24,N  23,C  22,C  21)    177.7674         0.030854   
    475. D(H  70,C  24,N  23,H  69)    -33.6543         0.017243   
    476. D(H  70,C  24,N  23,C  22)    160.3899         0.017243   
    477. D(C  25,C  24,N  23,H  69)   -151.8434         0.017243   
    478. D(C  25,C  24,N  23,C  22)     42.2008         0.017243   
    479. D(C   7,C  24,N  23,H  69)     83.7957         0.017243   
    480. D(C   7,C  24,N  23,C  22)    -82.1601         0.017243   
    481. D(H  70,C  24,C   7,O   8)    143.6959         0.009518   
    482. D(H  70,C  24,C   7,N   6)    -39.4872         0.009518   
    483. D(C  25,C  24,C   7,O   8)    -98.8270         0.009518   
    484. D(C  25,C  24,C   7,N   6)     77.9900         0.009518   
    485. D(N  23,C  24,C   7,O   8)     27.7164         0.009518   
    486. D(N  23,C  24,C   7,N   6)   -155.4666         0.009518   
    487. D(H  73,C  25,C  24,H  70)    177.8024         0.010403   
    488. D(H  73,C  25,C  24,N  23)    -65.5588         0.010403   
    489. D(H  73,C  25,C  24,C   7)     60.4487         0.010403   
    490. D(H  72,C  25,C  24,H  70)     56.2044         0.010403   
    491. D(H  72,C  25,C  24,N  23)    172.8433         0.010403   
    492. D(H  72,C  25,C  24,C   7)    -61.1493         0.010403   
    493. D(H  71,C  25,C  24,H  70)    -63.0484         0.010403   
    494. D(H  71,C  25,C  24,N  23)     53.5905         0.010403   
    495. D(H  71,C  25,C  24,C   7)    179.5979         0.010403   
    496. D(H  75,C  27,C  21,H  68)     57.8892         0.010592   
    497. D(H  75,C  27,C  21,C  22)    172.5099         0.010592   
    498. D(H  75,C  27,C  21,N  20)    -58.3317         0.010592   
    499. D(H  74,C  27,C  21,H  68)    173.3517         0.010592   
    500. D(H  74,C  27,C  21,C  22)    -72.0277         0.010592   
    501. D(H  74,C  27,C  21,N  20)     57.1307         0.010592   
    502. D(C  28,C  27,C  21,H  68)    -63.7004         0.010592   
    503. D(C  28,C  27,C  21,C  22)     50.9202         0.010592   
    504. D(C  28,C  27,C  21,N  20)   -179.9214         0.010592   
    505. D(H  76,C  28,C  27,H  75)    179.0738         0.010613   
    506. D(H  76,C  28,C  27,H  74)     62.3270         0.010613   
    507. D(H  76,C  28,C  27,C  21)    -60.3198         0.010613   
    508. D(C  30,C  28,C  27,H  75)     61.9930         0.010613   
    509. D(C  30,C  28,C  27,H  74)    -54.7538         0.010613   
    510. D(C  30,C  28,C  27,C  21)   -177.4005         0.010613   
    511. D(C  29,C  28,C  27,H  75)    -62.1477         0.010613   
    512. D(C  29,C  28,C  27,H  74)   -178.8945         0.010613   
    513. D(C  29,C  28,C  27,C  21)     58.4588         0.010613   
    514. D(H  79,C  29,C  28,C  30)     52.9546         0.010900   
    515. D(H  79,C  29,C  28,C  27)    176.2452         0.010900   
    516. D(H  78,C  29,C  28,H  76)    175.7293         0.010900   
    517. D(H  78,C  29,C  28,C  30)    -66.1978         0.010900   
    518. D(H  78,C  29,C  28,C  27)     57.0928         0.010900   
    519. D(H  77,C  29,C  28,H  76)     54.5501         0.010900   
    520. D(H  77,C  29,C  28,C  30)    172.6229         0.010900   
    521. D(H  79,C  29,C  28,H  76)    -65.1183         0.010900   
    522. D(H  77,C  29,C  28,C  27)    -64.0864         0.010900   
    523. D(H  82,C  30,C  28,H  76)    179.5767         0.010949   
    524. D(H  82,C  30,C  28,C  29)     61.4830         0.010949   
    525. D(H  82,C  30,C  28,C  27)    -63.4733         0.010949   
    526. D(H  81,C  30,C  28,H  76)     60.0104         0.010949   
    527. D(H  81,C  30,C  28,C  29)    -58.0833         0.010949   
    528. D(H  81,C  30,C  28,C  27)    176.9604         0.010949   
    529. D(H  80,C  30,C  28,H  76)    -60.5329         0.010949   
    530. D(H  80,C  30,C  28,C  29)   -178.6266         0.010949   
    531. D(H  80,C  30,C  28,C  27)     56.4172         0.010949   
    532. D(O  42,C  32,C  18,H  66)    170.1782         0.009529   
    533. D(O  42,C  32,C  18,C  19)    -68.2926         0.009529   
    534. D(O  42,C  32,C  18,C  17)     52.5567         0.009529   
    535. D(C  33,C  32,C  18,H  66)     -9.6284         0.009529   
    536. D(C  33,C  32,C  18,C  19)    111.9007         0.009529   
    537. D(C  33,C  32,C  18,C  17)   -127.2500         0.009529   
    538. D(H  84,C  33,C  32,O  42)    127.4434         0.011772   
    539. D(H  84,C  33,C  32,C  18)    -52.7544         0.011772   
    540. D(H  83,C  33,C  32,O  42)   -120.4991         0.011772   
    541. D(H  83,C  33,C  32,C  18)     59.3030         0.011772   
    542. D(C  34,C  33,C  32,O  42)      2.7957         0.011772   
    543. D(C  34,C  33,C  32,C  18)   -177.4022         0.011772   
    544. D(H  86,C  34,C  33,H  84)    179.8998         0.011661   
    545. D(H  86,C  34,C  33,H  83)     63.1950         0.011661   
    546. D(H  86,C  34,C  33,C  32)    -57.3915         0.011661   
    547. D(H  85,C  34,C  33,H  84)    -65.2672         0.011661   
    548. D(H  85,C  34,C  33,H  83)    178.0280         0.011661   
    549. D(H  85,C  34,C  33,C  32)     57.4415         0.011661   
    550. D(C  35,C  34,C  33,H  84)     57.3942         0.011661   
    551. D(C  35,C  34,C  33,H  83)    -59.3106         0.011661   
    552. D(C  35,C  34,C  33,C  32)   -179.8971         0.011661   
    553. D(H  88,C  35,C  34,H  86)   -179.8134         0.011150   
    554. D(H  88,C  35,C  34,H  85)     64.1898         0.011150   
    555. D(H  88,C  35,C  34,C  33)    -57.9753         0.011150   
    556. D(H  87,C  35,C  34,H  86)    -64.0858         0.011150   
    557. D(H  87,C  35,C  34,H  85)    179.9174         0.011150   
    558. D(H  87,C  35,C  34,C  33)     57.7523         0.011150   
    559. D(C  36,C  35,C  34,H  86)     58.0716         0.011150   
    560. D(C  36,C  35,C  34,H  85)    -57.9251         0.011150   
    561. D(C  36,C  35,C  34,C  33)    179.9098         0.011150   
    562. D(H  90,C  36,C  35,H  87)     64.3343         0.011125   
    563. D(H  90,C  36,C  35,C  34)    -57.9577         0.011125   
    564. D(H  89,C  36,C  35,H  88)    -64.8837         0.011125   
    565. D(H  89,C  36,C  35,H  87)    179.7111         0.011125   
    566. D(H  89,C  36,C  35,C  34)     57.4190         0.011125   
    567. D(C  37,C  36,C  35,H  88)     57.4245         0.011125   
    568. D(C  37,C  36,C  35,H  87)    -57.9808         0.011125   
    569. D(H  90,C  36,C  35,H  88)    179.7396         0.011125   
    570. D(C  37,C  36,C  35,C  34)    179.7272         0.011125   
    571. D(H  92,C  37,C  36,H  90)   -179.9534         0.011132   
    572. D(H  92,C  37,C  36,H  89)     64.5362         0.011132   
    573. D(H  92,C  37,C  36,C  35)    -57.7129         0.011132   
    574. D(H  91,C  37,C  36,H  90)    -64.4773         0.011132   
    575. D(H  91,C  37,C  36,H  89)   -179.9877         0.011132   
    576. D(H  91,C  37,C  36,C  35)     57.7632         0.011132   
    577. D(C  38,C  37,C  36,H  90)     57.7965         0.011132   
    578. D(C  38,C  37,C  36,H  89)    -57.7140         0.011132   
    579. D(C  38,C  37,C  36,C  35)   -179.9630         0.011132   
    580. D(H  94,C  38,C  37,H  92)    179.9068         0.011119   
    581. D(H  94,C  38,C  37,H  91)     64.4614         0.011119   
    582. D(H  94,C  38,C  37,C  36)    -57.8286         0.011119   
    583. D(H  93,C  38,C  37,H  92)    -64.6793         0.011119   
    584. D(H  93,C  38,C  37,H  91)    179.8753         0.011119   
    585. D(H  93,C  38,C  37,C  36)     57.5853         0.011119   
    586. D(C  39,C  38,C  37,H  92)     57.6127         0.011119   
    587. D(C  39,C  38,C  37,H  91)    -57.8327         0.011119   
    588. D(C  39,C  38,C  37,C  36)    179.8773         0.011119   
    589. D(H  95,C  39,C  38,H  94)    -64.5423         0.011131   
    590. D(H  95,C  39,C  38,H  93)   -179.9870         0.011131   
    591. D(H  95,C  39,C  38,C  37)     57.7383         0.011131   
    592. D(C  40,C  39,C  38,H  94)     57.7380         0.011131   
    593. D(C  40,C  39,C  38,H  93)    -57.7068         0.011131   
    594. D(C  40,C  39,C  38,C  37)   -179.9814         0.011131   
    595. D(H  96,C  39,C  38,H  94)   -179.9849         0.011131   
    596. D(H  96,C  39,C  38,H  93)     64.5703         0.011131   
    597. D(H  96,C  39,C  38,C  37)    -57.7043         0.011131   
    598. D(H  98,C  40,C  39,H  95)     64.6604         0.011069   
    599. D(H  98,C  40,C  39,C  38)    -57.6670         0.011069   
    600. D(H  97,C  40,C  39,H  96)    -64.6707         0.011069   
    601. D(H  97,C  40,C  39,H  95)    179.9780         0.011069   
    602. D(H  97,C  40,C  39,C  38)     57.6506         0.011069   
    603. D(C  41,C  40,C  39,H  96)     57.6735         0.011069   
    604. D(C  41,C  40,C  39,H  95)    -57.6778         0.011069   
    605. D(H  98,C  40,C  39,H  96)   -179.9884         0.011069   
    606. D(C  41,C  40,C  39,C  38)    179.9949         0.011069   
    607. D(H 101,C  41,C  40,H  98)    -62.2846         0.011153   
    608. D(H 101,C  41,C  40,H  97)   -178.1766         0.011153   
    609. D(H 101,C  41,C  40,C  39)     59.7678         0.011153   
    610. D(H 100,C  41,C  40,H  98)    178.1930         0.011153   
    611. D(H 100,C  41,C  40,H  97)     62.3011         0.011153   
    612. D(H 100,C  41,C  40,C  39)    -59.7546         0.011153   
    613. D(H  99,C  41,C  40,H  98)     57.9510         0.011153   
    614. D(H  99,C  41,C  40,H  97)    -57.9410         0.011153   
    615. D(H  99,C  41,C  40,C  39)   -179.9966         0.011153   
    616. D(H 102,O  43,C  17,H  65)    -43.9772         0.020307   
    617. D(H 102,O  43,C  17,C  18)   -159.6166         0.020307   
    618. D(H 102,O  43,C  17,C  16)     77.3178         0.020307   
    619. D(H 104,C  45,C  13,H  61)    178.5527         0.010873   
    620. D(H 104,C  45,C  13,C  14)    -64.4866         0.010873   
    621. D(H 104,C  45,C  13,N  12)     61.9492         0.010873   
    622. D(H 103,C  45,C  13,H  61)    -66.9116         0.010873   
    623. D(H 103,C  45,C  13,C  14)     50.0492         0.010873   
    624. D(H 103,C  45,C  13,N  12)    176.4850         0.010873   
    625. D(C  46,C  45,C  13,H  61)     55.6195         0.010873   
    626. D(C  46,C  45,C  13,C  14)    172.5802         0.010873   
    627. D(C  46,C  45,C  13,N  12)    -60.9840         0.010873   
    628. D(H 107,C  46,C  45,H 104)    -61.1670         0.011354   
    629. D(H 107,C  46,C  45,H 103)   -179.4682         0.011354   
    630. D(H 107,C  46,C  45,C  13)     60.3203         0.011354   
    631. D(H 106,C  46,C  45,H 104)    178.4807         0.011354   
    632. D(H 106,C  46,C  45,H 103)     60.1795         0.011354   
    633. D(H 106,C  46,C  45,C  13)    -60.0321         0.011354   
    634. D(H 105,C  46,C  45,H 104)     58.6334         0.011354   
    635. D(H 105,C  46,C  45,H 103)    -59.6678         0.011354   
    636. D(H 105,C  46,C  45,C  13)   -179.8793         0.011354   
    637. D(H 108,C  48,C  10,H  59)    -72.3508         0.010560   
    638. D(H 108,C  48,C  10,C  11)     46.3566         0.010560   
    639. D(H 108,C  48,C  10,N   9)    171.6088         0.010560   
    640. D(C  50,C  48,C  10,H  59)     44.8681         0.010560   
    641. D(C  50,C  48,C  10,C  11)    163.5755         0.010560   
    642. D(C  50,C  48,C  10,N   9)    -71.1723         0.010560   
    643. D(C  49,C  48,C  10,H  59)    170.3773         0.010560   
    644. D(C  49,C  48,C  10,C  11)    -70.9153         0.010560   
    645. D(C  49,C  48,C  10,N   9)     54.3368         0.010560   
    646. D(H 111,C  49,C  48,C  50)     59.9816         0.010933   
    647. D(H 111,C  49,C  48,C  10)    -64.8841         0.010933   
    648. D(H 110,C  49,C  48,H 108)     61.2539         0.010933   
    649. D(H 110,C  49,C  48,C  50)    -57.9007         0.010933   
    650. D(H 110,C  49,C  48,C  10)    177.2336         0.010933   
    651. D(H 109,C  49,C  48,H 108)    -57.9986         0.010933   
    652. D(H 109,C  49,C  48,C  50)   -177.1532         0.010933   
    653. D(H 111,C  49,C  48,H 108)    179.1362         0.010933   
    654. D(H 109,C  49,C  48,C  10)     57.9811         0.010933   
    655. D(H 114,C  50,C  48,H 108)    -62.3234         0.010902   
    656. D(H 114,C  50,C  48,C  49)     55.9227         0.010902   
    657. D(H 114,C  50,C  48,C  10)   -177.1996         0.010902   
    658. D(H 113,C  50,C  48,H 108)    178.4595         0.010902   
    659. D(H 113,C  50,C  48,C  49)    -63.2944         0.010902   
    660. D(H 113,C  50,C  48,C  10)     63.5833         0.010902   
    661. D(H 112,C  50,C  48,H 108)     58.1332         0.010902   
    662. D(H 112,C  50,C  48,C  49)    176.3793         0.010902   
    663. D(H 112,C  50,C  48,C  10)    -56.7430         0.010902   
    -----------------------------------------------------------------

Number of atoms                         .... 115
Number of degrees of freedom            .... 663

         *************************************************************
         *                GEOMETRY OPTIMIZATION CYCLE   1            *
         *************************************************************
---------------------------------
CARTESIAN COORDINATES (ANGSTROEM)
---------------------------------
  O      1.935448    2.915073   -4.846496
  C      1.584892    1.787727   -4.463722
  C      2.422410    0.571805   -4.862330
  C      2.300847    0.303514   -6.374691
  C      1.146221   -0.703504   -6.449930
  C      1.410729   -1.620691   -5.250820
  N      2.026519   -0.712082   -4.260475
  C      2.483540   -1.042283   -3.006272
  O      2.888667   -0.177255   -2.228863
  N      0.484292    1.566290   -3.715301
  C     -0.422379    2.635064   -3.293153
  C      0.133757    3.349598   -2.033752
  N      1.372407    3.864241   -2.217847
  C      2.171812    4.451610   -1.141025
  C      2.329693    3.475482    0.056036
  N      2.317021    2.153968   -0.280235
  C      2.112675    1.097195    0.688835
  C      0.609749    0.774021    0.808547
  C      0.320260   -0.404209    1.764599
  C      0.909698   -1.696402    1.203173
  N      2.163410   -1.988920    1.647162
  C      3.053419   -3.031729    1.108035
  C      3.484819   -2.759103   -0.361472
  N      2.453286   -2.803894   -1.251566
  C      2.523387   -2.549809   -2.676985
  C      3.756232   -3.183787   -3.347625
  O      4.671744   -2.585987   -0.631251
  C      2.486801   -4.445314    1.318342
  C      3.384060   -5.567619    0.772465
  C      4.782573   -5.559166    1.400797
  C      2.695209   -6.921254    0.977042
  O      0.307511   -2.385480    0.368548
  C     -1.208951   -0.534731    1.927601
  C     -1.707543   -0.550691    3.355602
  C     -3.212335   -0.742625    3.496008
  C     -3.677552   -0.750650    4.953453
  C     -5.188641   -0.940878    5.102011
  C     -5.662623   -0.956872    6.556806
  C     -7.173763   -1.148050    6.704360
  C     -7.648971   -1.167245    8.158739
  C     -9.160634   -1.358926    8.307110
  C     -9.624268   -1.376647    9.764931
  O     -1.942198   -0.613984    0.962404
  O     -0.114826    1.876112    1.326729
  O      2.485505    3.891815    1.199927
  C      1.640428    5.812467   -0.674643
  C      1.641910    6.855933   -1.789915
  O     -0.496839    3.415933   -0.971375
  C     -1.857107    2.108734   -3.121768
  C     -1.962228    0.904840   -2.178936
  C     -2.469127    1.796037   -4.492269
  H      3.449798    0.814618   -4.557304
  H      3.232788   -0.150660   -6.741190
  H      2.126611    1.229360   -6.934129
  H      0.182963   -0.186383   -6.327231
  H      1.113928   -1.259036   -7.395157
  H      0.492922   -2.072252   -4.849345
  H      2.100734   -2.433702   -5.527469
  H      0.340605    0.630482   -3.343345
  H     -0.404852    3.377932   -4.108030
  H      1.761372    3.798339   -3.166528
  H      3.179171    4.594306   -1.567622
  H      2.255914    1.884265   -1.259310
  H      2.489025    1.449813    1.660411
  H      2.680659    0.218783    0.355250
  H      0.226880    0.483691   -0.188036
  H      0.771445   -0.171095    2.742896
  H      2.597607   -1.302748    2.256208
  H      3.988518   -2.931066    1.671631
  H      1.513565   -2.823775   -0.823364
  H      1.621608   -3.015574   -3.104577
  H      3.791425   -4.254885   -3.109352
  H      3.701322   -3.074661   -4.438686
  H      4.674338   -2.719151   -2.976985
  H      1.493716   -4.507167    0.852720
  H      2.339061   -4.588513    2.402705
  H      3.498894   -5.406419   -0.314157
  H      5.337582   -4.644710    1.151035
  H      4.717644   -5.640698    2.498125
  H      5.375393   -6.411906    1.039539
  H      1.700816   -6.941361    0.507140
  H      3.292090   -7.738188    0.546356
  H      2.563330   -7.134015    2.049886
  H     -1.380214    0.402945    3.810080
  H     -1.146939   -1.333022    3.901729
  H     -3.504059   -1.683099    3.001816
  H     -3.726558    0.056730    2.939994
  H     -3.379664    0.194592    5.440814
  H     -3.154337   -1.553002    5.504015
  H     -5.486611   -1.883514    4.610032
  H     -5.711564   -0.136412    4.555746
  H     -5.364626   -0.013917    7.048375
  H     -5.138402   -1.761332    7.102657
  H     -7.471708   -2.090016    6.210705
  H     -7.697799   -0.342690    6.159946
  H     -7.351420   -0.225235    8.652839
  H     -7.124839   -1.972513    8.703742
  H     -9.455885   -2.300140    7.812609
  H     -9.682290   -0.553825    7.761937
  H    -10.712140   -1.515478    9.843309
  H     -9.141727   -2.192895   10.324043
  H     -9.370004   -0.433732   10.272794
  H     -0.233095    2.535792    0.603173
  H      2.266398    6.132135    0.168856
  H      0.627019    5.668548   -0.274752
  H      1.258531    7.818683   -1.424742
  H      2.657807    7.027265   -2.179375
  H      1.008872    6.546108   -2.634608
  H     -2.416276    2.938174   -2.661329
  H     -1.575166    1.125454   -1.179076
  H     -3.012984    0.608553   -2.060349
  H     -1.439500    0.015647   -2.570252
  H     -2.455702    2.674414   -5.154195
  H     -1.916971    0.987099   -4.996098
  H     -3.511627    1.466317   -4.384279

----------------------------
CARTESIAN COORDINATES (A.U.)
----------------------------
  NO LB      ZA    FRAG     MASS         X           Y           Z
   0 O     8.0000    0    15.999    3.657467    5.508690   -9.158551
   1 C     6.0000    0    12.011    2.995012    3.378314   -8.435212
   2 C     6.0000    0    12.011    4.577692    1.080555   -9.188472
   3 C     6.0000    0    12.011    4.347971    0.573559  -12.046421
   4 C     6.0000    0    12.011    2.166044   -1.329430  -12.188600
   5 C     6.0000    0    12.011    2.665891   -3.062663   -9.922612
   6 N     7.0000    0    14.007    3.829567   -1.345639   -8.051132
   7 C     6.0000    0    12.011    4.693210   -1.969630   -5.681030
   8 O     8.0000    0    15.999    5.458789   -0.334963   -4.211941
   9 N     7.0000    0    14.007    0.915179    2.959859   -7.020902
  10 C     6.0000    0    12.011   -0.798180    4.979550   -6.223157
  11 C     6.0000    0    12.011    0.252764    6.329824   -3.843234
  12 N     7.0000    0    14.007    2.593473    7.302357   -4.191124
  13 C     6.0000    0    12.011    4.104129    8.412323   -2.156224
  14 C     6.0000    0    12.011    4.402481    6.567709    0.105892
  15 N     7.0000    0    14.007    4.378534    4.070409   -0.529567
  16 C     6.0000    0    12.011    3.992377    2.073398    1.301710
  17 C     6.0000    0    12.011    1.152258    1.462688    1.527933
  18 C     6.0000    0    12.011    0.605203   -0.763845    3.334609
  19 C     6.0000    0    12.011    1.719080   -3.205736    2.273667
  20 N     7.0000    0    14.007    4.088252   -3.758515    3.112685
  21 C     6.0000    0    12.011    5.770127   -5.729137    2.093884
  22 C     6.0000    0    12.011    6.585354   -5.213949   -0.683082
  23 N     7.0000    0    14.007    4.636038   -5.298593   -2.365116
  24 C     6.0000    0    12.011    4.768510   -4.818441   -5.058768
  25 C     6.0000    0    12.011    7.098249   -6.016485   -6.326094
  26 O     8.0000    0    15.999    8.828317   -4.886807   -1.192892
  27 C     6.0000    0    12.011    4.699373   -8.400425    2.491305
  28 C     6.0000    0    12.011    6.394946  -10.521276    1.459747
  29 C     6.0000    0    12.011    9.037754  -10.505302    2.647124
  30 C     6.0000    0    12.011    5.093207  -13.079274    1.846343
  31 O     8.0000    0    15.999    0.581111   -4.507904    0.696455
  32 C     6.0000    0    12.011   -2.284586   -1.010496    3.642638
  33 C     6.0000    0    12.011   -3.226788   -1.040655    6.341168
  34 C     6.0000    0    12.011   -6.070434   -1.403359    6.606499
  35 C     6.0000    0    12.011   -6.949565   -1.418524    9.360670
  36 C     6.0000    0    12.011   -9.805111   -1.778002    9.641403
  37 C     6.0000    0    12.011  -10.700806   -1.808225   12.390567
  38 C     6.0000    0    12.011  -13.556448   -2.169500   12.669404
  39 C     6.0000    0    12.011  -14.454460   -2.205773   15.417782
  40 C     6.0000    0    12.011  -17.311089   -2.567998   15.698163
  41 C     6.0000    0    12.011  -18.187231   -2.601486   18.453046
  42 O     8.0000    0    15.999   -3.670223   -1.160262    1.818680
  43 O     8.0000    0    15.999   -0.216989    3.545338    2.507154
  44 O     8.0000    0    15.999    4.696924    7.354464    2.267534
  45 C     6.0000    0    12.011    3.099960   10.983971   -1.274891
  46 C     6.0000    0    12.011    3.102760   12.955837   -3.382450
  47 O     8.0000    0    15.999   -0.938890    6.455178   -1.835632
  48 C     6.0000    0    12.011   -3.509423    3.984929   -5.899286
  49 C     6.0000    0    12.011   -3.708073    1.709900   -4.117593
  50 C     6.0000    0    12.011   -4.665973    3.394018   -8.489159
  51 H     1.0000    0     1.008    6.519174    1.539406   -8.612056
  52 H     1.0000    0     1.008    6.109084   -0.284706  -12.739003
  53 H     1.0000    0     1.008    4.018712    2.323154  -13.103605
  54 H     1.0000    0     1.008    0.345750   -0.352212  -11.956735
  55 H     1.0000    0     1.008    2.105019   -2.379233  -13.974821
  56 H     1.0000    0     1.008    0.931487   -3.915989   -9.163935
  57 H     1.0000    0     1.008    3.969812   -4.599030  -10.445403
  58 H     1.0000    0     1.008    0.643651    1.191438   -6.318007
  59 H     1.0000    0     1.008   -0.765059    6.383366   -7.763052
  60 H     1.0000    0     1.008    3.328511    7.177821   -5.983870
  61 H     1.0000    0     1.008    6.007762    8.681980   -2.962376
  62 H     1.0000    0     1.008    4.263059    3.560746   -2.379751
  63 H     1.0000    0     1.008    4.703576    2.739750    3.137722
  64 H     1.0000    0     1.008    5.065711    0.413439    0.671325
  65 H     1.0000    0     1.008    0.428741    0.914043   -0.355337
  66 H     1.0000    0     1.008    1.457820   -0.323323    5.183323
  67 H     1.0000    0     1.008    4.908765   -2.461837    4.263616
  68 H     1.0000    0     1.008    7.537206   -5.538911    3.158924
  69 H     1.0000    0     1.008    2.860223   -5.336161   -1.555933
  70 H     1.0000    0     1.008    3.064395   -5.698608   -5.866800
  71 H     1.0000    0     1.008    7.164755   -8.040567   -5.875824
  72 H     1.0000    0     1.008    6.994485   -5.810268   -8.387902
  73 H     1.0000    0     1.008    8.833219   -5.138450   -5.625686
  74 H     1.0000    0     1.008    2.822715   -8.517312    1.611407
  75 H     1.0000    0     1.008    4.420185   -8.671033    4.540454
  76 H     1.0000    0     1.008    6.611951  -10.216651   -0.593671
  77 H     1.0000    0     1.008   10.086568   -8.777230    2.175141
  78 H     1.0000    0     1.008    8.915056  -10.659374    4.720773
  79 H     1.0000    0     1.008   10.158020  -12.116746    1.964445
  80 H     1.0000    0     1.008    3.214076  -13.117271    0.958356
  81 H     1.0000    0     1.008    6.221149  -14.623057    1.032462
  82 H     1.0000    0     1.008    4.843991  -13.481335    3.873724
  83 H     1.0000    0     1.008   -2.608227    0.761456    7.200007
  84 H     1.0000    0     1.008   -2.167401   -2.519047    7.373199
  85 H     1.0000    0     1.008   -6.621712   -3.180596    5.672610
  86 H     1.0000    0     1.008   -7.042174    0.107204    5.555783
  87 H     1.0000    0     1.008   -6.386639    0.367725   10.281648
  88 H     1.0000    0     1.008   -5.960833   -2.934749   10.401081
  89 H     1.0000    0     1.008  -10.368191   -3.559325    8.711698
  90 H     1.0000    0     1.008  -10.793292   -0.257782    8.609113
  91 H     1.0000    0     1.008  -10.137674   -0.026299   13.319498
  92 H     1.0000    0     1.008   -9.710172   -3.328435   13.422077
  93 H     1.0000    0     1.008  -14.119481   -3.949558   11.736531
  94 H     1.0000    0     1.008  -14.546731   -0.647591   11.640610
  95 H     1.0000    0     1.008  -13.892170   -0.425632   16.351496
  96 H     1.0000    0     1.008  -13.463994   -3.727509   16.447689
  97 H     1.0000    0     1.008  -17.869034   -4.346635   14.763692
  98 H     1.0000    0     1.008  -18.296876   -1.046578   14.667935
  99 H     1.0000    0     1.008  -20.243011   -2.863838   18.601157
 100 H     1.0000    0     1.008  -17.275361   -4.143970   19.509615
 101 H     1.0000    0     1.008  -17.706742   -0.819634   19.412768
 102 H     1.0000    0     1.008   -0.440486    4.791952    1.139832
 103 H     1.0000    0     1.008    4.282872   11.588055    0.319092
 104 H     1.0000    0     1.008    1.184895   10.712003   -0.519206
 105 H     1.0000    0     1.008    2.378279   14.775170   -2.692371
 106 H     1.0000    0     1.008    5.022527   13.279607   -4.118421
 107 H     1.0000    0     1.008    1.906492   12.370352   -4.978687
 108 H     1.0000    0     1.008   -4.566100    5.552345   -5.029183
 109 H     1.0000    0     1.008   -2.976633    2.126800   -2.228130
 110 H     1.0000    0     1.008   -5.693714    1.149999   -3.893496
 111 H     1.0000    0     1.008   -2.720260    0.029569   -4.857071
 112 H     1.0000    0     1.008   -4.640604    5.053911   -9.740016
 113 H     1.0000    0     1.008   -3.622550    1.865348   -9.441256
 114 H     1.0000    0     1.008   -6.636013    2.770938   -8.285087

--------------------------------
INTERNAL COORDINATES (ANGSTROEM)
--------------------------------
 O      0   0   0     0.000000000000     0.00000000     0.00000000
 C      1   0   0     1.241094733528     0.00000000     0.00000000
 C      2   1   0     1.529310811906   119.15242039     0.00000000
 C      3   2   1     1.540777326133   110.55311897   291.01847733
 C      4   3   2     1.533918902110   102.81758222   267.19749243
 C      5   4   3     1.532664576179   102.97855797   319.93477096
 N      3   2   1     1.472183110727   116.07578317   173.96490428
 C      7   3   2     1.375110141815   119.53221396   275.98315458
 O      8   7   3     1.231570612182   121.09105571    20.59263993
 N      2   1   3     1.349254884932   123.40514784   180.65110728
 C     10   2   1     1.463741516855   123.05257895     0.91113732
 C     11  10   2     1.551108448122   110.39171364   277.88170697
 N     12  11  10     1.353883927073   113.12437287    57.33921645
 C     13  12  11     1.464102541218   123.50576078   187.10752184
 C     14  13  12     1.552644722390   111.73704788    54.00368965
 N     15  14  13     1.363685620831   114.72001436    30.08736064
 C     16  15  14     1.448317365448   122.91600616   196.00111116
 C     17  16  15     1.541933714037   110.02304957    90.50554885
 C     18  17  16     1.544689367823   112.99106592   176.58269492
 C     19  18  17     1.527219605466   110.21362848   294.80007218
 N     20  19  18     1.361795184565   114.65891626    93.28991385
 C     21  20  19     1.473168222122   126.08130523   191.02436705
 C     22  21  20     1.555596851555   112.90449556    64.58218947
 N     23  22  21     1.363207817371   113.65319797   294.58835812
 C     24  23  22     1.449583663213   126.84867640   177.76740077
 C     25  24  23     1.539997594540   113.25205723    42.20077268
 O     23  22  21     1.229447509597   119.97980780   117.57863162
 C     22  21  20     1.537370199186   112.21870775   295.31413111
 C     28  22  21     1.537083366450   114.05637907   180.07862742
 C     29  28  22     1.533203579330   112.51300730    58.45876822
 C     29  28  22     1.532544534728   109.58021497   182.59946431
 O     20  19  18     1.238569869707   122.05968015   276.13504320
 C     19  18  17     1.543402121365   108.39447793   173.79358769
 C     33  19  18     1.512624915320   115.28908867   232.75004527
 C     34  33  19     1.523467682409   114.45104953   182.59783069
 C     35  34  33     1.529913757943   112.88050058   180.10289650
 C     36  35  34     1.530244417676   113.16672760   179.90977566
 C     37  36  35     1.530144503660   113.54596038   179.72718138
 C     38  37  36     1.530316199315   113.50688762   180.03695202
 C     39  38  37     1.530166126507   113.57067790   179.87731219
 C     40  39  38     1.530973920105   113.59855487   180.01857024
 C     41  40  39     1.529873693039   113.14321609   179.99486714
 O     33  19  18     1.214717541579   121.31115179    52.55670379
 O     18  17  16     1.417083012149   111.33169635   295.38624923
 O     15  14  13     1.227232296784   121.21531818   208.36696045
 C     14  13  12     1.533561820777   112.98445038   287.95214166
 C     46  14  13     1.527303432077   112.57291457   299.01600985
 O     12  11  10     1.237213590004   122.62590667   238.31480092
 C     11  10   2     1.537803786761   111.10854343   150.80608392
 C     49  11  10     1.532756318226   113.66366250    54.33684397
 C     49  11  10     1.533173972804   110.03601926   288.82769710
 H      3   2   1     1.098874406662   105.30650113    52.92818978
 H      4   3   2     1.099595116087   109.40292154   149.73383383
 H      4   3   2     1.095682017735   111.50468358    29.98851379
 H      5   4   3     1.100152429033   110.18242555    77.45569379
 H      5   4   3     1.096864966119   113.38634826   198.58304255
 H      6   5   4     1.098844114137   112.80638914   152.05406526
 H      6   5   4     1.101648206422   110.68673550   273.39525127
 H     10   2   1     1.017218627793   117.97162561   188.00369394
 H     11  10   2     1.102807503857   105.59890857    32.60854414
 H     13  12  11     1.027439237161   116.58503445     5.02060265
 H     14  13  12     1.103231380796   105.42926697   169.47783954
 H     16  15  14     1.017379673621   119.65395889     3.01484675
 H     17  16  15     1.099971687120   107.98808598   331.16766347
 H     17  16  15     1.097949523313   107.90746319   211.87633595
 H     18  17  16     1.106372013757   108.80631921    57.88784641
 H     19  18  17     1.102259707418   108.13731726    55.46235568
 H     21  20  19     1.015035547728   116.37426092   356.62134362
 H     22  21  20     1.096440385773   105.19728913   176.72090003
 H     24  23  22     1.032873036119   114.73311493    11.53099187
 H     25  24  23     1.101352039274   105.54811640   160.38991301
 H     26  25  24     1.097845010816   109.43835821    53.59046198
 H     26  25  24     1.097879427550   110.59860857   172.84326804
 H     26  25  24     1.093699764876   110.45989641   294.44121616
 H     28  22  21     1.098565702317   109.08468706    57.13073705
 H     28  22  21     1.103710019167   107.63969650   301.66829102
 H     29  28  22     1.104499813893   107.66888063   299.68024534
 H     30  29  28     1.098474799927   111.85611279   295.91355507
 H     30  29  28     1.102266613929   110.72252461    57.09280242
 H     30  29  28     1.099593966728   110.66164405   176.24521756
 H     31  29  28     1.100013993773   111.43499048    56.41720478
 H     31  29  28     1.099609449562   111.09611135   176.96042856
 H     31  29  28     1.101659546580   110.75586452   296.52674043
 H     34  33  19     1.105945500530   106.33747875    59.30300891
 H     34  33  19     1.106604836595   107.84121359   307.24557795
 H     35  34  33     1.101734449580   109.13194222    57.44148763
 H     35  34  33     1.101156783370   108.86064499   302.60847542
 H     36  35  34     1.104418619743   109.50401343    57.75232288
 H     36  35  34     1.104825995380   109.54368241   302.02471179
 H     37  36  35     1.104260008470   109.22771337    57.41900214
 H     37  36  35     1.104091747965   109.21329010   302.04228188
 H     38  37  36     1.104357746553   109.31056573    57.76320754
 H     38  37  36     1.104499002430   109.29688802   302.28711139
 H     39  38  37     1.104430265970   109.25931371    57.58534580
 H     39  38  37     1.104356764533   109.26476426   302.17143611
 H     40  39  38     1.104561148378   109.31818985    57.73830559
 H     40  39  38     1.104626371523   109.31335682   302.29567227
 H     41  40  39     1.103444346814   109.12082698    57.65064645
 H     41  40  39     1.103415890909   109.12111909   302.33299304
 H     42  41  40     1.099491988015   111.66884105   180.00339804
 H     42  41  40     1.100777905867   111.08447382   300.24541872
 H     42  41  40     1.100756198010   111.08311992    59.76779359
 H     44  18  17     0.986254543592   108.25473297    77.31780979
 H     46  14  13     1.097960626748   107.12429888   176.48496823
 H     46  14  13     1.098919246795   108.29993459    61.94921776
 H     47  46  14     1.098735040222   110.83126279   180.12067619
 H     47  46  14     1.101399133820   111.43117893   299.96793931
 H     47  46  14     1.100106296401   111.57469706    60.32025455
 H     49  11  10     1.101201926169   105.22133479   171.60875735
 H     50  49  11     1.094626989069   112.29134900    57.98114645
 H     50  49  11     1.098151570818   110.11865354   177.23355010
 H     50  49  11     1.103193719172   112.48201378   295.11587393
 H     51  49  11     1.099941752805   111.72727255   303.25702499
 H     51  49  11     1.101407559292   111.01313080    63.58329526
 H     51  49  11     1.098719125478   110.61619357   182.80043367

---------------------------
INTERNAL COORDINATES (A.U.)
---------------------------
 O      0   0   0     0.000000000000     0.00000000     0.00000000
 C      1   0   0     2.345329152619     0.00000000     0.00000000
 C      2   1   0     2.889978608147   119.15242039     0.00000000
 C      3   2   1     2.911647179746   110.55311897   291.01847733
 C      4   3   2     2.898686636633   102.81758222   267.19749243
 C      5   4   3     2.896316304141   102.97855797   319.93477096
 N      3   2   1     2.782022898259   116.07578317   173.96490428
 C      7   3   2     2.598581572007   119.53221396   275.98315458
 O      8   7   3     2.327331171610   121.09105571    20.59263993
 N      2   1   3     2.549722217376   123.40514784   180.65110728
 C     10   2   1     2.766070597706   123.05257895     0.91113732
 C     11  10   2     2.931170170962   110.39171364   277.88170697
 N     12  11  10     2.558469839287   113.12437287    57.33921645
 C     13  12  11     2.766752834881   123.50576078   187.10752184
 C     14  13  12     2.934073308595   111.73704788    54.00368965
 N     15  14  13     2.576992356136   114.72001436    30.08736064
 C     16  15  14     2.736923175699   122.91600616   196.00111116
 C     17  16  15     2.913832436189   110.02304957    90.50554885
 C     18  17  16     2.919039867165   112.99106592   176.58269492
 C     19  18  17     2.886026800686   110.21362848   294.80007218
 N     20  19  18     2.573419949321   114.65891626    93.28991385
 C     21  20  19     2.783884489006   126.08130523   191.02436705
 C     22  21  20     2.939652024229   112.90449556    64.58218947
 N     23  22  21     2.576089438452   113.65319797   294.58835812
 C     24  23  22     2.739316131679   126.84867640   177.76740077
 C     25  24  23     2.910173700578   113.25205723    42.20077268
 O     23  22  21     2.323319089170   119.97980780   117.57863162
 C     22  21  20     2.905208642914   112.21870775   295.31413111
 C     28  22  21     2.904666607596   114.05637907   180.07862742
 C     29  28  22     2.897334872482   112.51300730    58.45876822
 C     29  28  22     2.896089458674   109.58021497   182.59946431
 O     20  19  18     2.340557851473   122.05968015   276.13504320
 C     19  18  17     2.916607323892   108.39447793   173.79358769
 C     33  19  18     2.858446833300   115.28908867   232.75004527
 C     34  33  19     2.878936693633   114.45104953   182.59783069
 C     35  34  33     2.891118011031   112.88050058   180.10289650
 C     36  35  34     2.891742867369   113.16672760   179.90977566
 C     37  36  35     2.891554057243   113.54596038   179.72718138
 C     38  37  36     2.891878515009   113.50688762   180.03695202
 C     39  38  37     2.891594918501   113.57067790   179.87731219
 C     40  39  38     2.893121427175   113.59855487   180.01857024
 C     41  40  39     2.891042299335   113.14321609   179.99486714
 O     33  19  18     2.295483483654   121.31115179    52.55670379
 O     18  17  16     2.677898801995   111.33169635   295.38624923
 O     15  14  13     2.319132943625   121.21531818   208.36696045
 C     14  13  12     2.898011850705   112.98445038   287.95214166
 C     46  14  13     2.886185210023   112.57291457   299.01600985
 O     12  11  10     2.337994854272   122.62590667   238.31480092
 C     11  10   2     2.906028004686   111.10854343   150.80608392
 C     49  11  10     2.896489671485   113.66366250    54.33684397
 C     49  11  10     2.897278924255   110.03601926   288.82769710
 H      3   2   1     2.076571684167   105.30650113    52.92818978
 H      4   3   2     2.077933627603   109.40292154   149.73383383
 H      4   3   2     2.070538943382   111.50468358    29.98851379
 H      5   4   3     2.078986796441   110.18242555    77.45569379
 H      5   4   3     2.072774391858   113.38634826   198.58304255
 H      6   5   4     2.076514439591   112.80638914   152.05406526
 H      6   5   4     2.081813406063   110.68673550   273.39525127
 H     10   2   1     1.922264624851   117.97162561   188.00369394
 H     11  10   2     2.084004160724   105.59890857    32.60854414
[...]
freq.      84.59  E(vib)   ...       0.48 
freq.      88.31  E(vib)   ...       0.48 
freq.      93.61  E(vib)   ...       0.47 
freq.      95.19  E(vib)   ...       0.47 
freq.     104.45  E(vib)   ...       0.46 
freq.     109.96  E(vib)   ...       0.45 
freq.     113.94  E(vib)   ...       0.44 
freq.     117.32  E(vib)   ...       0.44 
freq.     120.11  E(vib)   ...       0.44 
freq.     126.78  E(vib)   ...       0.43 
freq.     137.38  E(vib)   ...       0.42 
freq.     140.14  E(vib)   ...       0.41 
freq.     146.27  E(vib)   ...       0.41 
freq.     152.60  E(vib)   ...       0.40 
freq.     154.17  E(vib)   ...       0.40 
freq.     155.27  E(vib)   ...       0.40 
freq.     157.71  E(vib)   ...       0.40 
freq.     159.20  E(vib)   ...       0.39 
freq.     168.58  E(vib)   ...       0.38 
freq.     176.89  E(vib)   ...       0.38 
freq.     181.75  E(vib)   ...       0.37 
freq.     185.26  E(vib)   ...       0.37 
freq.     192.20  E(vib)   ...       0.36 
freq.     199.30  E(vib)   ...       0.35 
freq.     211.98  E(vib)   ...       0.34 
freq.     222.51  E(vib)   ...       0.33 
freq.     224.95  E(vib)   ...       0.33 
freq.     229.10  E(vib)   ...       0.32 
freq.     233.64  E(vib)   ...       0.32 
freq.     235.00  E(vib)   ...       0.32 
freq.     237.12  E(vib)   ...       0.32 
freq.     239.81  E(vib)   ...       0.31 
freq.     244.10  E(vib)   ...       0.31 
freq.     247.78  E(vib)   ...       0.31 
freq.     254.17  E(vib)   ...       0.30 
freq.     261.50  E(vib)   ...       0.30 
freq.     268.72  E(vib)   ...       0.29 
freq.     274.90  E(vib)   ...       0.28 
freq.     280.00  E(vib)   ...       0.28 
freq.     286.37  E(vib)   ...       0.27 
freq.     294.97  E(vib)   ...       0.27 
freq.     302.45  E(vib)   ...       0.26 
freq.     308.10  E(vib)   ...       0.26 
freq.     320.38  E(vib)   ...       0.25 
freq.     327.78  E(vib)   ...       0.24 
freq.     330.13  E(vib)   ...       0.24 
freq.     333.42  E(vib)   ...       0.24 
freq.     346.41  E(vib)   ...       0.23 
freq.     357.86  E(vib)   ...       0.22 
freq.     367.06  E(vib)   ...       0.22 
freq.     374.60  E(vib)   ...       0.21 
freq.     379.40  E(vib)   ...       0.21 
freq.     388.24  E(vib)   ...       0.20 
freq.     408.92  E(vib)   ...       0.19 
freq.     415.14  E(vib)   ...       0.19 
freq.     432.83  E(vib)   ...       0.17 
freq.     441.47  E(vib)   ...       0.17 
freq.     446.28  E(vib)   ...       0.17 
freq.     450.08  E(vib)   ...       0.17 
freq.     454.48  E(vib)   ...       0.16 
freq.     464.03  E(vib)   ...       0.16 
freq.     473.17  E(vib)   ...       0.15 
freq.     483.68  E(vib)   ...       0.15 
freq.     493.21  E(vib)   ...       0.14 
freq.     516.07  E(vib)   ...       0.13 
freq.     523.28  E(vib)   ...       0.13 
freq.     532.90  E(vib)   ...       0.13 
freq.     549.59  E(vib)   ...       0.12 
freq.     554.78  E(vib)   ...       0.12 
freq.     561.52  E(vib)   ...       0.11 
freq.     564.53  E(vib)   ...       0.11 
freq.     575.66  E(vib)   ...       0.11 
freq.     578.56  E(vib)   ...       0.11 
freq.     598.88  E(vib)   ...       0.10 
freq.     632.24  E(vib)   ...       0.09 
freq.     639.78  E(vib)   ...       0.09 
freq.     668.66  E(vib)   ...       0.08 
freq.     681.94  E(vib)   ...       0.08 
freq.     705.72  E(vib)   ...       0.07 
freq.     708.13  E(vib)   ...       0.07 
freq.     711.69  E(vib)   ...       0.07 
freq.     717.20  E(vib)   ...       0.07 
freq.     718.31  E(vib)   ...       0.07 
freq.     727.42  E(vib)   ...       0.06 
freq.     733.41  E(vib)   ...       0.06 
freq.     735.30  E(vib)   ...       0.06 
freq.     736.02  E(vib)   ...       0.06 
freq.     750.95  E(vib)   ...       0.06 
freq.     752.78  E(vib)   ...       0.06 
freq.     767.84  E(vib)   ...       0.06 
freq.     771.44  E(vib)   ...       0.05 
freq.     790.03  E(vib)   ...       0.05 
freq.     798.61  E(vib)   ...       0.05 
freq.     805.90  E(vib)   ...       0.05 
freq.     808.24  E(vib)   ...       0.05 
freq.     825.67  E(vib)   ...       0.04 
freq.     828.65  E(vib)   ...       0.04 
freq.     837.89  E(vib)   ...       0.04 
freq.     856.17  E(vib)   ...       0.04 
freq.     857.70  E(vib)   ...       0.04 
freq.     860.22  E(vib)   ...       0.04 
freq.     864.16  E(vib)   ...       0.04 
freq.     869.77  E(vib)   ...       0.04 
freq.     871.42  E(vib)   ...       0.04 
freq.     877.41  E(vib)   ...       0.04 
freq.     890.07  E(vib)   ...       0.04 
freq.     893.56  E(vib)   ...       0.03 
freq.     900.23  E(vib)   ...       0.03 
freq.     903.99  E(vib)   ...       0.03 
freq.     906.02  E(vib)   ...       0.03 
freq.     909.73  E(vib)   ...       0.03 
freq.     912.47  E(vib)   ...       0.03 
freq.     923.37  E(vib)   ...       0.03 
freq.     929.69  E(vib)   ...       0.03 
freq.     938.42  E(vib)   ...       0.03 
freq.     939.50  E(vib)   ...       0.03 
freq.     943.99  E(vib)   ...       0.03 
freq.     950.73  E(vib)   ...       0.03 
freq.     957.68  E(vib)   ...       0.03 
freq.     958.73  E(vib)   ...       0.03 
freq.     969.16  E(vib)   ...       0.03 
freq.     973.49  E(vib)   ...       0.03 
freq.     979.06  E(vib)   ...       0.03 
freq.     993.01  E(vib)   ...       0.02 
freq.    1000.10  E(vib)   ...       0.02 
freq.    1004.32  E(vib)   ...       0.02 
freq.    1006.90  E(vib)   ...       0.02 
freq.    1010.24  E(vib)   ...       0.02 
freq.    1020.97  E(vib)   ...       0.02 
freq.    1024.67  E(vib)   ...       0.02 
freq.    1027.58  E(vib)   ...       0.02 
freq.    1033.17  E(vib)   ...       0.02 
freq.    1040.55  E(vib)   ...       0.02 
freq.    1045.07  E(vib)   ...       0.02 
freq.    1046.00  E(vib)   ...       0.02 
freq.    1050.02  E(vib)   ...       0.02 
freq.    1051.37  E(vib)   ...       0.02 
freq.    1058.28  E(vib)   ...       0.02 
freq.    1061.35  E(vib)   ...       0.02 
freq.    1069.80  E(vib)   ...       0.02 
freq.    1078.06  E(vib)   ...       0.02 
freq.    1080.97  E(vib)   ...       0.02 
freq.    1082.79  E(vib)   ...       0.02 
freq.    1087.25  E(vib)   ...       0.02 
freq.    1088.46  E(vib)   ...       0.02 
freq.    1101.27  E(vib)   ...       0.02 
freq.    1112.58  E(vib)   ...       0.01 
freq.    1114.60  E(vib)   ...       0.01 
freq.    1122.68  E(vib)   ...       0.01 
freq.    1123.32  E(vib)   ...       0.01 
freq.    1131.49  E(vib)   ...       0.01 
freq.    1137.09  E(vib)   ...       0.01 
freq.    1144.00  E(vib)   ...       0.01 
freq.    1154.11  E(vib)   ...       0.01 
freq.    1159.47  E(vib)   ...       0.01 
freq.    1161.04  E(vib)   ...       0.01 
freq.    1166.26  E(vib)   ...       0.01 
freq.    1168.16  E(vib)   ...       0.01 
freq.    1172.53  E(vib)   ...       0.01 
freq.    1190.02  E(vib)   ...       0.01 
freq.    1197.54  E(vib)   ...       0.01 
freq.    1199.97  E(vib)   ...       0.01 
freq.    1202.42  E(vib)   ...       0.01 
freq.    1203.73  E(vib)   ...       0.01 
freq.    1214.89  E(vib)   ...       0.01 
freq.    1221.80  E(vib)   ...       0.01 
freq.    1226.87  E(vib)   ...       0.01 
freq.    1229.50  E(vib)   ...       0.01 
freq.    1234.43  E(vib)   ...       0.01 
freq.    1239.53  E(vib)   ...       0.01 
freq.    1243.38  E(vib)   ...       0.01 
freq.    1250.47  E(vib)   ...       0.01 
freq.    1252.91  E(vib)   ...       0.01 
freq.    1253.25  E(vib)   ...       0.01 
freq.    1256.50  E(vib)   ...       0.01 
freq.    1268.44  E(vib)   ...       0.01 
freq.    1269.48  E(vib)   ...       0.01 
freq.    1270.70  E(vib)   ...       0.01 
freq.    1274.94  E(vib)   ...       0.01 
freq.    1278.58  E(vib)   ...       0.01 
freq.    1282.17  E(vib)   ...       0.01 
freq.    1282.28  E(vib)   ...       0.01 
freq.    1286.24  E(vib)   ...       0.01 
freq.    1288.82  E(vib)   ...       0.01 
freq.    1293.90  E(vib)   ...       0.01 
freq.    1294.67  E(vib)   ...       0.01 
freq.    1295.69  E(vib)   ...       0.01 
freq.    1303.12  E(vib)   ...       0.01 
freq.    1306.41  E(vib)   ...       0.01 
freq.    1307.43  E(vib)   ...       0.01 
freq.    1309.94  E(vib)   ...       0.01 
freq.    1311.02  E(vib)   ...       0.01 
freq.    1312.48  E(vib)   ...       0.01 
freq.    1313.60  E(vib)   ...       0.01 
freq.    1315.13  E(vib)   ...       0.01 
freq.    1317.94  E(vib)   ...       0.01 
freq.    1323.21  E(vib)   ...       0.01 
freq.    1327.32  E(vib)   ...       0.01 
freq.    1332.12  E(vib)   ...       0.01 
freq.    1332.71  E(vib)   ...       0.01 
freq.    1333.39  E(vib)   ...       0.01 
freq.    1335.44  E(vib)   ...       0.01 
freq.    1345.24  E(vib)   ...       0.01 
freq.    1346.80  E(vib)   ...       0.01 
freq.    1347.45  E(vib)   ...       0.01 
freq.    1349.71  E(vib)   ...       0.01 
freq.    1350.18  E(vib)   ...       0.01 
freq.    1352.19  E(vib)   ...       0.01 
freq.    1352.27  E(vib)   ...       0.01 
freq.    1363.18  E(vib)   ...       0.01 
freq.    1363.57  E(vib)   ...       0.01 
freq.    1369.30  E(vib)   ...       0.01 
freq.    1371.96  E(vib)   ...       0.01 
freq.    1374.62  E(vib)   ...       0.01 
freq.    1391.77  E(vib)   ...       0.00 
freq.    1395.81  E(vib)   ...       0.00 
freq.    1411.76  E(vib)   ...       0.00 
freq.    1427.90  E(vib)   ...       0.00 
freq.    1433.13  E(vib)   ...       0.00 
freq.    1433.63  E(vib)   ...       0.00 
freq.    1434.66  E(vib)   ...       0.00 
freq.    1435.59  E(vib)   ...       0.00 
freq.    1436.90  E(vib)   ...       0.00 
freq.    1438.91  E(vib)   ...       0.00 
freq.    1439.21  E(vib)   ...       0.00 
freq.    1444.02  E(vib)   ...       0.00 
freq.    1444.39  E(vib)   ...       0.00 
freq.    1445.44  E(vib)   ...       0.00 
freq.    1446.09  E(vib)   ...       0.00 
freq.    1449.06  E(vib)   ...       0.00 
freq.    1450.81  E(vib)   ...       0.00 
freq.    1450.90  E(vib)   ...       0.00 
freq.    1451.48  E(vib)   ...       0.00 
freq.    1452.99  E(vib)   ...       0.00 
freq.    1455.45  E(vib)   ...       0.00 
freq.    1456.10  E(vib)   ...       0.00 
freq.    1456.73  E(vib)   ...       0.00 
freq.    1458.43  E(vib)   ...       0.00 
freq.    1460.10  E(vib)   ...       0.00 
freq.    1460.14  E(vib)   ...       0.00 
freq.    1464.78  E(vib)   ...       0.00 
freq.    1466.69  E(vib)   ...       0.00 
freq.    1473.80  E(vib)   ...       0.00 
freq.    1483.07  E(vib)   ...       0.00 
freq.    1484.85  E(vib)   ...       0.00 
freq.    1487.87  E(vib)   ...       0.00 
freq.    1530.82  E(vib)   ...       0.00 
freq.    1565.96  E(vib)   ...       0.00 
freq.    1642.26  E(vib)   ...       0.00 
freq.    1643.39  E(vib)   ...       0.00 
freq.    1658.38  E(vib)   ...       0.00 
freq.    1666.46  E(vib)   ...       0.00 
freq.    1695.78  E(vib)   ...       0.00 
freq.    1698.98  E(vib)   ...       0.00 
freq.    1738.07  E(vib)   ...       0.00 
freq.    2920.09  E(vib)   ...       0.00 
freq.    2923.77  E(vib)   ...       0.00 
freq.    2924.78  E(vib)   ...       0.00 
freq.    2925.44  E(vib)   ...       0.00 
freq.    2926.34  E(vib)   ...       0.00 
freq.    2931.81  E(vib)   ...       0.00 
freq.    2933.05  E(vib)   ...       0.00 
freq.    2939.23  E(vib)   ...       0.00 
freq.    2941.85  E(vib)   ...       0.00 
freq.    2944.37  E(vib)   ...       0.00 
freq.    2945.69  E(vib)   ...       0.00 
freq.    2950.11  E(vib)   ...       0.00 
freq.    2950.19  E(vib)   ...       0.00 
freq.    2951.42  E(vib)   ...       0.00 
freq.    2951.71  E(vib)   ...       0.00 
freq.    2954.43  E(vib)   ...       0.00 
freq.    2955.47  E(vib)   ...       0.00 
freq.    2955.87  E(vib)   ...       0.00 
freq.    2956.45  E(vib)   ...       0.00 
freq.    2956.87  E(vib)   ...       0.00 
freq.    2957.54  E(vib)   ...       0.00 
freq.    2959.86  E(vib)   ...       0.00 
freq.    2964.04  E(vib)   ...       0.00 
freq.    2965.88  E(vib)   ...       0.00 
freq.    2967.35  E(vib)   ...       0.00 
freq.    2970.19  E(vib)   ...       0.00 
freq.    2971.78  E(vib)   ...       0.00 
freq.    2978.33  E(vib)   ...       0.00 
freq.    2981.32  E(vib)   ...       0.00 
freq.    2981.77  E(vib)   ...       0.00 
freq.    2985.17  E(vib)   ...       0.00 
freq.    2986.54  E(vib)   ...       0.00 
freq.    2987.51  E(vib)   ...       0.00 
freq.    2992.05  E(vib)   ...       0.00 
freq.    2998.97  E(vib)   ...       0.00 
freq.    3006.20  E(vib)   ...       0.00 
freq.    3009.47  E(vib)   ...       0.00 
freq.    3011.39  E(vib)   ...       0.00 
freq.    3011.98  E(vib)   ...       0.00 
freq.    3015.80  E(vib)   ...       0.00 
freq.    3016.51  E(vib)   ...       0.00 
freq.    3019.28  E(vib)   ...       0.00 
freq.    3019.83  E(vib)   ...       0.00 
freq.    3021.38  E(vib)   ...       0.00 
freq.    3026.97  E(vib)   ...       0.00 
freq.    3027.66  E(vib)   ...       0.00 
freq.    3028.89  E(vib)   ...       0.00 
freq.    3034.28  E(vib)   ...       0.00 
freq.    3036.63  E(vib)   ...       0.00 
freq.    3036.89  E(vib)   ...       0.00 
freq.    3041.21  E(vib)   ...       0.00 
freq.    3046.29  E(vib)   ...       0.00 
freq.    3046.36  E(vib)   ...       0.00 
freq.    3047.03  E(vib)   ...       0.00 
freq.    3051.70  E(vib)   ...       0.00 
freq.    3062.64  E(vib)   ...       0.00 
freq.    3084.13  E(vib)   ...       0.00 
freq.    3094.64  E(vib)   ...       0.00 
freq.    3190.76  E(vib)   ...       0.00 
freq.    3300.06  E(vib)   ...       0.00 
freq.    3432.31  E(vib)   ...       0.00 
freq.    3485.61  E(vib)   ...       0.00 
freq.    3490.94  E(vib)   ...       0.00 
freq.    3516.92  E(vib)   ...       0.00 

------------
INNER ENERGY
------------

The inner energy is: U= E(el) + E(ZPE) + E(vib) + E(rot) + E(trans)
    E(el)   - is the total energy from the electronic structure calculation
              = E(kin-el) + E(nuc-el) + E(el-el) + E(nuc-nuc)
    E(ZPE)  - the the zero temperature vibrational energy from the frequency calculation
    E(vib)  - the the finite temperature correction to E(ZPE) due to population
              of excited vibrational states
    E(rot)  - is the rotational thermal energy
    E(trans)- is the translational thermal energy

Summary of contributions to the inner energy U:
Electronic energy                ...  -2380.06859509 Eh
Zero point energy                ...      0.97666355 Eh     612.86 kcal/mol
Thermal vibrational correction   ...      0.05489823 Eh      34.45 kcal/mol
Thermal rotational correction    ...      0.00141627 Eh       0.89 kcal/mol
Thermal translational correction ...      0.00141627 Eh       0.89 kcal/mol
-----------------------------------------------------------------------
Total thermal energy                  -2379.03420076 Eh


Summary of corrections to the electronic energy:
(perhaps to be used in another calculation)
Total thermal correction                  0.05773078 Eh      36.23 kcal/mol
Non-thermal (ZPE) correction              0.97666355 Eh     612.86 kcal/mol
-----------------------------------------------------------------------
Total correction                          1.03439433 Eh     649.09 kcal/mol


--------
ENTHALPY
--------

The enthalpy is H = U + kB*T
                kB is Boltzmann's constant
Total free energy                 ...  -2379.03420076 Eh 
Thermal Enthalpy correction       ...      0.00094421 Eh       0.59 kcal/mol
-----------------------------------------------------------------------
Total Enthalpy                    ...  -2379.03325655 Eh


Note: Only C1 symmetry has been detected, increase convergence thresholds 
      if your molecule has a higher symmetry. Symmetry factor of 1.0 is   
      used for the rotational entropy correction. 
 

Note: Rotational entropy computed according to Herzberg 
Infrared and Raman Spectra, Chapter V,1, Van Nostrand Reinhold, 1945 
Point Group:  C1, Symmetry Number:   1  
Rotational constants in cm-1:     0.001946     0.000926     0.000750 

Vibrational entropy computed according to the QRRHO of S. Grimme
Chem.Eur.J. 2012 18 9955


-------
ENTROPY
-------

The entropy contributions are T*S = T*(S(el)+S(vib)+S(rot)+S(trans))
     S(el)   - electronic entropy
     S(vib)  - vibrational entropy
     S(rot)  - rotational entropy
     S(trans)- translational entropy
The entropies will be listed as mutliplied by the temperature to get
units of energy

Electronic entropy                ...      0.00000000 Eh      0.00 kcal/mol
Vibrational entropy               ...      0.10046918 Eh     63.05 kcal/mol
Rotational entropy                ...      0.01915198 Eh     12.02 kcal/mol
Translational entropy             ...      0.02166895 Eh     13.60 kcal/mol
-----------------------------------------------------------------------
Final entropy term                ...      0.14129011 Eh     88.66 kcal/mol

In case the symmetry of your molecule has not been determined correctly
or in case you have a reason to use a different symmetry number we print 
out the resulting rotational entropy values for sn=1,12 :
 --------------------------------------------------------
|  sn= 1 | S(rot)=       0.01915198 Eh     12.02 kcal/mol|
|  sn= 2 | S(rot)=       0.01849753 Eh     11.61 kcal/mol|
|  sn= 3 | S(rot)=       0.01811469 Eh     11.37 kcal/mol|
|  sn= 4 | S(rot)=       0.01784307 Eh     11.20 kcal/mol|
|  sn= 5 | S(rot)=       0.01763238 Eh     11.06 kcal/mol|
|  sn= 6 | S(rot)=       0.01746024 Eh     10.96 kcal/mol|
|  sn= 7 | S(rot)=       0.01731469 Eh     10.87 kcal/mol|
|  sn= 8 | S(rot)=       0.01718861 Eh     10.79 kcal/mol|
|  sn= 9 | S(rot)=       0.01707741 Eh     10.72 kcal/mol|
|  sn=10 | S(rot)=       0.01697793 Eh     10.65 kcal/mol|
|  sn=11 | S(rot)=       0.01688794 Eh     10.60 kcal/mol|
|  sn=12 | S(rot)=       0.01680578 Eh     10.55 kcal/mol|
 --------------------------------------------------------


-------------------
GIBBS FREE ENERGY
-------------------

The Gibbs free energy is G = H - T*S

Total enthalpy                    ...  -2379.03325655 Eh 
Total entropy correction          ...     -0.14129011 Eh    -88.66 kcal/mol
-----------------------------------------------------------------------
Final Gibbs free energy         ...  -2379.17454667 Eh

For completeness - the Gibbs free energy minus the electronic energy
G-E(el)                           ...      0.89404842 Eh    561.02 kcal/mol

--------------------------------------------------------------------------
WARNING: No preset parameters were found for the device that Open MPI
detected:

  Local host:            eu-g1-029-1
  Device name:           mlx5_0
  Device vendor ID:      0x02c9
  Device vendor part ID: 4123

Default device parameters will be used, which may result in lower
performance.  You can edit any of the files specified by the
btl_openib_device_param_files MCA parameter to set values for your
device.

NOTE: You can turn off this warning by setting the MCA parameter
      btl_openib_warn_no_device_params_found to 0.
--------------------------------------------------------------------------
--------------------------------------------------------------------------
WARNING: There was an error initializing an OpenFabrics device.

  Local host:   eu-g1-029-1
  Local device: mlx5_0
--------------------------------------------------------------------------

Timings for individual modules:

Sum of individual times         ...    28238.038 sec (= 470.634 min)
GTO integral calculation        ...       12.714 sec (=   0.212 min)   0.0 %
SCF iterations                  ...      394.379 sec (=   6.573 min)   1.4 %
SCF Gradient evaluation         ...       67.401 sec (=   1.123 min)   0.2 %
Geometry relaxation             ...        4.006 sec (=   0.067 min)   0.0 %
Analytical frequency calculation...    27759.538 sec (= 462.659 min)  98.3 %
                             ****ORCA TERMINATED NORMALLY****
TOTAL RUN TIME: 0 days 7 hours 50 minutes 55 seconds 393 msec
