
                                 *****************
                                 * O   R   C   A *
                                 *****************

           --- An Ab Initio, DFT and Semiempirical electronic structure package ---

                  #######################################################
                  #                        -***-                        #
                  #          Department of theory and spectroscopy      #
                  #               Directorship: Frank Neese             #
                  #        Max Planck Institute fuer Kohlenforschung    #
                  #                Kaiser Wilhelm Platz 1               #
                  #                 D-45470 Muelheim/Ruhr               #
                  #                      Germany                        #
                  #                                                     #
                  #                  All rights reserved                #
                  #                        -***-                        #
                  #######################################################


                         Program Version 4.2.0 -  RELEASE  -


 With contributions from (in alphabetic order):
   Daniel Aravena         : Magnetic Suceptibility
   Michael Atanasov       : Ab Initio Ligand Field Theory (pilot matlab implementation)
   Alexander A. Auer      : GIAO ZORA, VPT2
   Ute Becker             : Parallelization
   Giovanni Bistoni       : ED, misc. LED, open-shell LED, HFLED
   Martin Brehm           : Molecular dynamics
   Dmytro Bykov           : SCF Hessian
   Vijay G. Chilkuri      : MRCI spin determinant printing, contributions to CSF-ICE
   Dipayan Datta          : RHF DLPNO-CCSD density
   Achintya Kumar Dutta   : EOM-CC, STEOM-CC
   Dmitry Ganyushin       : Spin-Orbit,Spin-Spin,Magnetic field MRCI
   Miquel Garcia          : C-PCM Hessian, Gaussian charge scheme
   Yang Guo               : DLPNO-NEVPT2, CIM, IAO-localization
   Andreas Hansen         : Spin unrestricted coupled pair/coupled cluster methods
   Benjamin Helmich-Paris : CASSCF linear response (MC-RPA)
   Lee Huntington         : MR-EOM, pCC
   Robert Izsak           : Overlap fitted RIJCOSX, COSX-SCS-MP3, EOM
   Christian Kollmar      : KDIIS, OOCD, Brueckner-CCSD(T), CCSD density
   Simone Kossmann        : Meta GGA functionals, TD-DFT gradient, OOMP2, MP2 Hessian
   Martin Krupicka        : AUTO-CI
   Lucas Lang             : DCDCAS
   Dagmar Lenk            : GEPOL surface, SMD
   Dimitrios Liakos       : Extrapolation schemes; Compound Job, initial MDCI parallelization
   Dimitrios Manganas     : Further ROCIS development; embedding schemes
   Dimitrios Pantazis     : SARC Basis sets
   Taras Petrenko         : DFT Hessian,TD-DFT gradient, ASA, ECA, R-Raman, ABS, FL, XAS/XES, NRVS
   Peter Pinski           : DLPNO-MP2, DLPNO-MP2 Gradient
   Christoph Reimann      : Effective Core Potentials
   Marius Retegan         : Local ZFS, SOC
   Christoph Riplinger    : Optimizer, TS searches, QM/MM, DLPNO-CCSD(T), (RO)-DLPNO pert. Triples
   Tobias Risthaus        : Range-separated hybrids, TD-DFT gradient, RPA, STAB
   Michael Roemelt        : Original ROCIS implementation
   Masaaki Saitow         : Open-shell DLPNO-CCSD energy and density
   Barbara Sandhoefer     : DKH picture change effects
   Avijit Sen             : IP-ROCIS
   Kantharuban Sivalingam : CASSCF convergence, NEVPT2, FIC-MRCI
   Bernardo de Souza      : ESD, SOC TD-DFT
   Georgi Stoychev        : AutoAux, RI-MP2 NMR
   Willem Van den Heuvel  : Paramagnetic NMR
   Boris Wezisla          : Elementary symmetry handling
   Frank Wennmohs         : Technical directorship


 We gratefully acknowledge several colleagues who have allowed us to
 interface, adapt or use parts of their codes:
   Stefan Grimme, W. Hujo, H. Kruse,             : VdW corrections, initial TS optimization,
                  C. Bannwarth                     DFT functionals, gCP, sTDA/sTD-DF
   Ed Valeev, F. Pavosevic, A. Kumar             : LibInt (2-el integral package), F12 methods
   Garnet Chan, S. Sharma, J. Yang, R. Olivares  : DMRG
   Ulf Ekstrom                                   : XCFun DFT Library
   Mihaly Kallay                                 : mrcc  (arbitrary order and MRCC methods)
   Andreas Klamt, Michael Diedenhofen            : otool_cosmo (COSMO solvation model)
   Jiri Pittner, Ondrej Demel                    : Mk-CCSD
   Frank Weinhold                                : gennbo (NPA and NBO analysis)
   Christopher J. Cramer and Donald G. Truhlar   : smd solvation model
   Lars Goerigk                                  : TD-DFT with DH, B97 family of functionals
   V. Asgeirsson, H. Jonsson                     : NEB implementation
   FAccTs GmbH                                   : IRC, NEB, NEB-TS, Multilevel, MM, QM/MM, CI optimization
   S Lehtola, MJT Oliveira, MAL Marques          : LibXC Library


 Your calculation uses the libint2 library for the computation of 2-el integrals
 For citations please refer to: http://libint.valeyev.net

 Your ORCA version has been built with support for libXC version: 4.2.3
 For citations please refer to: https://tddft.org/programs/libxc/

 This ORCA versions uses:
   CBLAS   interface :  Fast vector & matrix operations
   LAPACKE interface :  Fast linear algebra routines
   SCALAPACK package :  Parallel linear algebra routines




***************************************
The coordinates will be read from file: 33.xyz
***************************************


Your calculation utilizes the atom-pairwise dispersion correction
with the Becke-Johnson damping scheme (D3BJ)
Cite in your paper:
S.Grimme, S.Ehrlich, L.Goerigk, J Comput Chem, (2011), 32, 1456–1465 
S.Grimme, J.Antony, S.Ehrlich and H.Krieg, J.Chem.Phys., 132, (2010), 154104 
   

----- Orbital basis set information -----
Your calculation utilizes the basis: def2-TZVP
   F. Weigend and R. Ahlrichs, Phys. Chem. Chem. Phys. 7, 3297 (2005).

----- AuxJ basis set information -----
Your calculation utilizes the auxiliary basis: def2/J
   F. Weigend, Phys. Chem. Chem. Phys. 8, 1057 (2006).

================================================================================
                                        WARNINGS
                       Please study these warnings very carefully!
================================================================================


WARNING: Geometry Optimization
  ===> : Switching off AutoStart
         For restart on a previous wavefunction, please use MOREAD

INFO   : the flag for use of LIBINT has been found!

================================================================================
                                       INPUT FILE
================================================================================
NAME = 33.inp
|  1> !RI BP86 def2-tzvp def2/J D3BJ TIGHTSCF TightOpt Grid5 FinalGrid6 freq
|  2> %maxcore 4000
|  3> %pal nprocs 24
|  4> end
|  5> * xyzfile 0 1 33.xyz 
|  6> 
|  7>                          ****END OF INPUT****
================================================================================

                       *****************************
                       * Geometry Optimization Run *
                       *****************************

Geometry optimization settings:
Update method            Update   .... BFGS
Choice of coordinates    CoordSys .... Z-matrix Internals
Initial Hessian          InHess   .... Almoef's Model

Convergence Tolerances:
Energy Change            TolE     ....  1.0000e-06 Eh
Max. Gradient            TolMAXG  ....  1.0000e-04 Eh/bohr
RMS Gradient             TolRMSG  ....  3.0000e-05 Eh/bohr
Max. Displacement        TolMAXD  ....  1.0000e-03 bohr
RMS Displacement         TolRMSD  ....  6.0000e-04 bohr
Strict Convergence                ....  False
------------------------------------------------------------------------------
                        ORCA OPTIMIZATION COORDINATE SETUP
------------------------------------------------------------------------------

The optimization will be done in new redundant internal coordinates
Making redundant internal coordinates   ...  (new redundants) done
Evaluating the initial hessian          ...  (Almloef) done
Evaluating the coordinates              ...  done
Calculating the B-matrix                .... done
Calculating the G-matrix                .... done
Diagonalizing the G-matrix              .... done
Small eigenvalue found = 5.422e-04
Small eigenvalue found = 1.918e-03
Small eigenvalue found = 3.829e-03
Small eigenvalue found = 4.605e-03
Small eigenvalue found = 4.925e-03
Small eigenvalue found = 5.644e-03
Small eigenvalue found = 6.788e-03
Small eigenvalue found = 8.482e-03
Small eigenvalue found = 9.723e-03
Small eigenvalue found = 1.148e-02
Small eigenvalue found = 1.387e-02
Small eigenvalue found = 1.534e-02
Small eigenvalue found = 1.754e-02
Small eigenvalue found = 1.976e-02
Small eigenvalue found = 2.105e-02
Small eigenvalue found = 2.526e-02
Small eigenvalue found = 2.731e-02
Small eigenvalue found = 2.802e-02
The first mode is                       ....  328
The number of degrees of freedom        ....  339

    -----------------------------------------------------------------
                    Redundant Internal Coordinates


    -----------------------------------------------------------------
         Definition                    Initial Value    Approx d2E/dq
    -----------------------------------------------------------------
      1. B(C   1,O   0)                  1.2303         1.006086   
      2. B(C   2,C   1)                  1.5535         0.342692   
      3. B(C   3,C   2)                  1.5277         0.376754   
      4. B(C   4,C   3)                  1.5341         0.368056   
      5. B(C   5,C   4)                  1.5331         0.369350   
      6. B(N   6,C   5)                  1.4802         0.401768   
      7. B(N   6,C   2)                  1.4841         0.396005   
      8. B(C   7,N   6)                  1.3584         0.628572   
      9. B(O   8,C   7)                  1.2445         0.955091   
     10. B(N   9,C   1)                  1.3576         0.630251   
     11. B(C  10,N   9)                  1.4552         0.440474   
     12. B(C  11,C  10)                  1.5414         0.358246   
     13. B(N  12,C  11)                  1.3611         0.622254   
     14. B(C  13,N  12)                  1.4667         0.422172   
     15. B(C  14,C  13)                  1.5513         0.345501   
     16. B(N  15,C  14)                  1.3664         0.610200   
     17. B(C  16,N  15)                  1.4508         0.447633   
     18. B(C  17,C  16)                  1.5373         0.363686   
     19. B(C  18,C  17)                  1.5340         0.368121   
     20. B(C  19,C  18)                  1.5379         0.362941   
     21. B(N  20,C  19)                  1.3720         0.597768   
     22. B(C  21,N  20)                  1.4658         0.423536   
     23. B(C  22,C  21)                  1.5353         0.366330   
     24. B(N  23,C  22)                  1.3743         0.592837   
     25. B(C  24,C   7)                  1.5457         0.352665   
     26. B(C  24,N  23)                  1.4512         0.446884   
     27. B(C  25,C  24)                  1.5405         0.359475   
     28. B(O  26,C  22)                  1.2253         1.024679   
     29. B(C  27,C  21)                  1.5376         0.363314   
     30. B(C  28,C  27)                  1.5356         0.365928   
     31. B(C  29,C  28)                  1.5336         0.368626   
     32. B(C  30,C  28)                  1.5325         0.370221   
     33. B(O  31,C  19)                  1.2262         1.021473   
     34. B(C  32,C  18)                  1.5439         0.354949   
     35. B(C  33,C  32)                  1.5184         0.389792   
     36. B(C  34,C  33)                  1.5368         0.364325   
     37. B(C  35,C  34)                  1.5355         0.366113   
     38. B(C  36,C  35)                  1.5347         0.367188   
     39. B(C  37,C  36)                  1.5309         0.372283   
     40. B(C  38,C  37)                  1.5294         0.374389   
     41. B(C  39,C  38)                  1.5299         0.373647   
     42. B(C  40,C  39)                  1.5306         0.372702   
     43. B(C  41,C  40)                  1.5296         0.374070   
     44. B(O  42,C  32)                  1.2162         1.059635   
     45. B(O  43,C  17)                  1.4175         0.505788   
     46. B(O  44,C  14)                  1.2247         1.027125   
     47. B(C  45,C  13)                  1.5324         0.370302   
     48. B(C  46,C  45)                  1.5274         0.377182   
     49. B(O  47,C  11)                  1.2351         0.988514   
     50. B(C  48,C  10)                  1.5421         0.357291   
     51. B(C  49,C  48)                  1.5276         0.376878   
     52. B(C  50,C  48)                  1.5313         0.371859   
     53. B(H  51,C   2)                  1.1011         0.345766   
     54. B(H  52,C   3)                  1.0995         0.347766   
     55. B(H  53,C   3)                  1.0951         0.353388   
     56. B(H  54,C   4)                  1.0992         0.348166   
     57. B(H  55,C   4)                  1.0966         0.351428   
     58. B(H  56,C   5)                  1.0996         0.347663   
     59. B(H  57,C   5)                  1.0996         0.347568   
     60. B(H  58,N   9)                  1.0326         0.398211   
     61. B(H  59,C  10)                  1.1040         0.342009   
     62. B(H  60,N  12)                  1.0154         0.424203   
     63. B(H  61,C  13)                  1.1033         0.342916   
     64. B(H  62,O   8)                  3.0592         0.000233   
     65. B(H  62,N  15)                  1.0171         0.421579   
     66. B(H  63,C  16)                  1.0978         0.349872   
     67. B(H  64,C  16)                  1.1011         0.345753   
     68. B(H  65,C  17)                  1.1143         0.329377   
     69. B(H  66,C  18)                  1.0977         0.350095   
     70. B(H  67,H  58)                  3.9149         0.000002   
     71. B(H  67,N  20)                  1.0170         0.421740   
     72. B(H  68,C  21)                  1.0975         0.350289   
     73. B(H  69,N  23)                  1.0165         0.422509   
     74. B(H  70,C  24)                  1.1012         0.345625   
     75. B(H  71,C  25)                  1.0977         0.350095   
     76. B(H  72,C  25)                  1.0965         0.351633   
     77. B(H  73,C  25)                  1.0934         0.355651   
     78. B(H  74,C  27)                  1.1040         0.341991   
     79. B(H  75,C  27)                  1.1013         0.345466   
     80. B(H  76,C  28)                  1.1056         0.340097   
     81. B(H  77,C  29)                  1.0983         0.349271   
     82. B(H  78,C  29)                  1.1011         0.345741   
     83. B(H  79,C  29)                  1.0996         0.347601   
     84. B(H  80,C  30)                  1.1006         0.346385   
     85. B(H  81,C  30)                  1.0996         0.347633   
     86. B(H  82,C  30)                  1.1012         0.345591   
     87. B(H  83,C  33)                  1.0962         0.351958   
     88. B(H  84,C  33)                  1.1010         0.345843   
     89. B(H  85,C  34)                  1.0985         0.348967   
     90. B(H  86,H  80)                  4.3998         0.000000   
     91. B(H  86,C  34)                  1.1027         0.343660   
     92. B(H  87,C  35)                  1.1042         0.341810   
     93. B(H  88,C  35)                  1.1007         0.346270   
     94. B(H  89,H  69)                  1.9997         0.002439   
     95. B(H  89,C  36)                  1.1068         0.338548   
     96. B(H  90,C  36)                  1.1028         0.343573   
     97. B(H  91,C  37)                  1.1052         0.340541   
     98. B(H  92,C  37)                  1.1032         0.343032   
     99. B(H  93,C  38)                  1.1025         0.343940   
    100. B(H  94,C  38)                  1.1048         0.341097   
    101. B(H  95,H  56)                  2.9809         0.000066   
    102. B(H  95,C  39)                  1.1055         0.340115   
    103. B(H  96,C  39)                  1.1043         0.341637   
    104. B(H  97,C  40)                  1.1030         0.343260   
    105. B(H  98,C  40)                  1.1033         0.342914   
    106. B(H  99,C  41)                  1.0991         0.348283   
    107. B(H 100,C  41)                  1.1006         0.346374   
    108. B(H 101,C  41)                  1.1008         0.346051   
    109. B(H 102,O  43)                  0.9848         0.474609   
    110. B(H 103,C  45)                  1.0980         0.349686   
    111. B(H 104,C  45)                  1.0986         0.348846   
    112. B(H 105,C  46)                  1.0984         0.349182   
    113. B(H 106,C  46)                  1.1016         0.345136   
    114. B(H 107,C  46)                  1.1003         0.346720   
    115. B(H 108,C  48)                  1.1012         0.345573   
    116. B(H 109,H  83)                  2.2309         0.001043   
    117. B(H 109,C  49)                  1.0962         0.351998   
    118. B(H 110,C  49)                  1.0987         0.348755   
    119. B(H 111,C  49)                  1.1015         0.345215   
    120. B(H 112,C  50)                  1.0985         0.349042   
    121. B(H 113,H  92)                  3.1801         0.000032   
    122. B(H 113,C  50)                  1.1009         0.345985   
    123. B(H 114,C  50)                  1.0992         0.348169   
    124. A(O   0,C   1,N   9)          124.5650         0.469122   
    125. A(C   2,C   1,N   9)          113.2359         0.389363   
    126. A(O   0,C   1,C   2)          122.1481         0.422903   
    127. A(C   1,C   2,H  51)          107.3730         0.317656   
    128. A(N   6,C   2,H  51)          107.8064         0.323319   
    129. A(C   1,C   2,N   6)          114.4120         0.359376   
    130. A(C   1,C   2,C   3)          111.0576         0.358562   
    131. A(C   3,C   2,H  51)          113.4810         0.322613   
    132. A(C   3,C   2,N   6)          102.7931         0.365238   
    133. A(C   4,C   3,H  53)          112.9445         0.322531   
    134. A(C   4,C   3,H  52)          111.0035         0.321685   
    135. A(C   2,C   3,C   4)          102.4386         0.362954   
    136. A(C   2,C   3,H  53)          110.8112         0.323769   
    137. A(C   2,C   3,H  52)          109.9430         0.322918   
    138. A(H  52,C   3,H  53)          109.5198         0.288403   
    139. A(H  54,C   4,H  55)          108.1322         0.288203   
    140. A(C   3,C   4,H  55)          113.5023         0.322237   
    141. A(C   3,C   4,C   5)          103.3052         0.361726   
    142. A(C   3,C   4,H  54)          109.4864         0.321745   
    143. A(C   5,C   4,H  55)          111.8611         0.322422   
    144. A(C   5,C   4,H  54)          110.5038         0.321930   
    145. A(H  56,C   5,H  57)          108.2980         0.287641   
    146. A(C   4,C   5,N   6)          103.6633         0.364901   
    147. A(C   4,C   5,H  56)          112.8309         0.321854   
    148. A(N   6,C   5,H  57)          110.8165         0.324363   
    149. A(N   6,C   5,H  56)          110.4431         0.324378   
    150. A(C   4,C   5,H  57)          110.7705         0.321840   
    151. A(C   5,N   6,C   7)          126.1288         0.397624   
    152. A(C   2,N   6,C   7)          122.3559         0.396616   
    153. A(C   2,N   6,C   5)          111.1928         0.366980   
    154. A(O   8,C   7,C  24)          121.0843         0.421145   
    155. A(N   6,C   7,O   8)          122.1185         0.464446   
    156. A(N   6,C   7,C  24)          116.7547         0.391137   
    157. A(C   1,N   9,C  10)          123.1355         0.404306   
    158. A(C  10,N   9,H  58)          120.6052         0.333940   
    159. A(C   1,N   9,H  58)          116.2214         0.354629   
    160. A(C  48,C  10,H  59)          108.1354         0.319255   
    161. A(C  11,C  10,H  59)          107.1929         0.319394   
    162. A(N   9,C  10,C  11)          109.6363         0.368765   
    163. A(N   9,C  10,C  48)          112.9249         0.368596   
    164. A(N   9,C  10,H  59)          105.7419         0.328439   
    165. A(C  11,C  10,C  48)          112.7914         0.358034   
    166. A(N  12,C  11,O  47)          122.6794         0.466517   
    167. A(C  10,C  11,O  47)          122.8032         0.424932   
    168. A(C  10,C  11,N  12)          114.5170         0.391520   
    169. A(C  13,N  12,H  60)          119.3093         0.335095   
    170. A(C  11,N  12,C  13)          123.0841         0.400391   
    171. A(C  11,N  12,H  60)          117.2110         0.357680   
    172. A(C  14,C  13,C  45)          111.2733         0.358007   
    173. A(N  12,C  13,H  61)          105.5471         0.326292   
    174. A(C  14,C  13,H  61)          106.3515         0.317650   
    175. A(N  12,C  13,C  14)          111.4730         0.363828   
    176. A(C  45,C  13,H  61)          108.7774         0.321266   
    177. A(N  12,C  13,C  45)          112.9985         0.368174   
    178. A(C  13,C  14,N  15)          114.1957         0.387725   
    179. A(N  15,C  14,O  44)          124.1182         0.468122   
    180. A(C  13,C  14,O  44)          121.6197         0.425091   
    181. A(C  14,N  15,H  62)          117.4822         0.356118   
    182. A(C  16,N  15,H  62)          117.3018         0.338029   
    183. A(C  14,N  15,C  16)          122.9231         0.403152   
    184. A(H  63,C  16,H  64)          108.9131         0.287691   
    185. A(C  17,C  16,H  64)          110.3099         0.320752   
    186. A(N  15,C  16,H  63)          107.5967         0.330554   
    187. A(C  17,C  16,H  63)          109.8145         0.321374   
    188. A(N  15,C  16,C  17)          110.2731         0.370747   
    189. A(N  15,C  16,H  64)          109.8800         0.329907   
    190. A(O  43,C  17,H  65)          108.9201         0.333955   
    191. A(C  18,C  17,H  65)          109.7604         0.318850   
    192. A(C  16,C  17,H  65)          106.8695         0.318221   
    193. A(C  16,C  17,C  18)          111.2965         0.360785   
    194. A(C  18,C  17,O  43)          107.1365         0.379441   
    195. A(C  16,C  17,O  43)          112.8335         0.378645   
    196. A(C  19,C  18,H  66)          105.8224         0.321300   
    197. A(C  17,C  18,H  66)          109.6859         0.322046   
    198. A(C  17,C  18,C  32)          112.8313         0.359293   
    199. A(C  17,C  18,C  19)          113.8895         0.360658   
    200. A(C  19,C  18,C  32)          108.0768         0.358427   
    201. A(C  32,C  18,H  66)          106.0149         0.320132   
    202. A(C  18,C  19,N  20)          115.4518         0.389669   
    203. A(N  20,C  19,O  31)          122.3367         0.465889   
    204. A(C  18,C  19,O  31)          122.1476         0.428434   
    205. A(C  19,N  20,H  67)          118.7691         0.354899   
    206. A(C  19,N  20,C  21)          120.9505         0.397800   
    207. A(C  21,N  20,H  67)          117.4191         0.334950   
    208. A(C  27,C  21,H  68)          109.5229         0.321383   
    209. A(C  22,C  21,H  68)          106.2039         0.321818   
    210. A(N  20,C  21,H  68)          108.0864         0.327612   
    211. A(N  20,C  21,C  22)          108.1356         0.367697   
    212. A(C  22,C  21,C  27)          113.3696         0.360422   
    213. A(N  20,C  21,C  27)          111.2751         0.367176   
    214. A(C  21,C  22,N  23)          113.1302         0.389737   
    215. A(C  21,C  22,O  26)          122.0974         0.429390   
    216. A(N  23,C  22,O  26)          124.7706         0.465450   
    217. A(C  22,N  23,C  24)          125.9924         0.400988   
    218. A(C  24,N  23,H  69)          116.1187         0.338059   
    219. A(C  22,N  23,H  69)          116.8820         0.354511   
    220. A(C  25,C  24,H  70)          108.4543         0.320122   
    221. A(N  23,C  24,H  70)          106.0469         0.329795   
    222. A(C   7,C  24,H  70)          107.9632         0.319124   
    223. A(N  23,C  24,C  25)          112.3299         0.369899   
    224. A(C   7,C  24,N  23)          110.8775         0.368686   
    225. A(C   7,C  24,C  25)          110.9260         0.357450   
    226. A(H  71,C  25,H  73)          108.3170         0.288993   
    227. A(C  24,C  25,H  73)          110.3672         0.321623   
    228. A(H  71,C  25,H  72)          108.2875         0.288479   
    229. A(C  24,C  25,H  72)          111.0013         0.321026   
    230. A(C  24,C  25,H  71)          109.1477         0.320795   
    231. A(H  72,C  25,H  73)          109.6518         0.289191   
    232. A(C  28,C  27,H  75)          109.9251         0.321031   
    233. A(C  21,C  27,C  28)          114.5436         0.360354   
    234. A(H  74,C  27,H  75)          106.4316         0.286631   
    235. A(C  21,C  27,H  75)          107.1756         0.320655   
    236. A(C  28,C  27,H  74)          109.4633         0.320500   
    237. A(C  21,C  27,H  74)          108.9733         0.320125   
    238. A(C  29,C  28,C  30)          111.1043         0.361967   
    239. A(C  27,C  28,C  30)          109.7250         0.361513   
    240. A(C  27,C  28,C  29)          112.0387         0.361247   
    241. A(C  30,C  28,H  76)          107.8972         0.320821   
    242. A(C  29,C  28,H  76)          107.9585         0.320594   
    243. A(C  27,C  28,H  76)          107.9625         0.320210   
    244. A(C  28,C  29,H  79)          110.6114         0.321741   
    245. A(H  78,C  29,H  79)          107.8735         0.287396   
    246. A(H  77,C  29,H  79)          107.4949         0.287853   
    247. A(H  77,C  29,H  78)          108.0961         0.287612   
    248. A(C  28,C  29,H  78)          110.6720         0.321459   
    249. A(C  28,C  29,H  77)          111.9362         0.321994   
    250. A(H  81,C  30,H  82)          107.7214         0.287381   
    251. A(H  80,C  30,H  82)          107.7030         0.287220   
    252. A(C  28,C  30,H  82)          110.6713         0.321663   
    253. A(H  80,C  30,H  81)          107.9749         0.287484   
    254. A(C  28,C  30,H  81)          111.1484         0.321974   
    255. A(C  28,C  30,H  80)          111.4626         0.321784   
    256. A(C  33,C  32,O  42)          121.3265         0.436838   
    257. A(C  18,C  32,O  42)          120.2807         0.429543   
    258. A(C  18,C  32,C  33)          118.3463         0.362815   
    259. A(C  32,C  33,C  34)          112.9385         0.364435   
    260. A(C  34,C  33,H  84)          109.5226         0.320858   
    261. A(H  83,C  33,H  84)          106.5942         0.287970   
    262. A(C  32,C  33,H  84)          106.6719         0.324431   
    263. A(C  34,C  33,H  83)          110.2442         0.321779   
    264. A(C  32,C  33,H  83)          110.6077         0.325366   
    265. A(C  33,C  34,C  35)          111.5907         0.360556   
    266. A(H  85,C  34,H  86)          106.4817         0.287301   
    267. A(C  35,C  34,H  86)          109.4741         0.320782   
    268. A(C  33,C  34,H  86)          109.5963         0.320525   
    269. A(C  35,C  34,H  85)          110.8025         0.321588   
    270. A(C  33,C  34,H  85)          108.7584         0.321330   
    271. A(C  34,C  35,C  36)          112.7526         0.361038   
    272. A(H  87,C  35,H  88)          106.2873         0.286712   
    273. A(C  36,C  35,H  88)          109.5663         0.321334   
    274. A(C  34,C  35,H  88)          109.6874         0.321179   
    275. A(C  36,C  35,H  87)          109.1308         0.320653   
    276. A(C  34,C  35,H  87)          109.2072         0.320499   
    277. A(C  35,C  36,C  37)          115.2577         0.362069   
    278. A(H  89,C  36,H  90)          107.0444         0.285934   
    279. A(C  37,C  36,H  90)          108.1057         0.321647   
    280. A(C  35,C  36,H  90)          108.6248         0.320923   
    281. A(C  37,C  36,H  89)          109.2568         0.320873   
    282. A(C  35,C  36,H  89)          108.2534         0.320151   
    283. A(C  36,C  37,C  38)          114.6909         0.363272   
    284. A(H  91,C  37,H  92)          105.5140         0.286126   
    285. A(C  38,C  37,H  92)          109.6006         0.321861   
    286. A(C  36,C  37,H  92)          108.9488         0.321564   
    287. A(C  38,C  37,H  91)          108.6535         0.321477   
    288. A(C  36,C  37,H  91)          109.0330         0.321181   
    289. A(C  37,C  38,C  39)          112.8648         0.363499   
    290. A(H  93,C  38,H  94)          106.0280         0.286317   
    291. A(C  39,C  38,H  94)          109.4164         0.321459   
    292. A(C  37,C  38,H  94)          109.2822         0.321563   
    293. A(C  39,C  38,H  93)          109.2877         0.321896   
    294. A(C  37,C  38,H  93)          109.7318         0.322001   
    295. A(C  38,C  39,C  40)          113.7246         0.363218   
    296. A(H  95,C  39,H  96)          105.8372         0.285888   
    297. A(C  40,C  39,H  96)          109.3129         0.321409   
    298. A(C  38,C  39,H  96)          109.3013         0.321542   
    299. A(C  40,C  39,H  95)          109.1529         0.321174   
    300. A(C  38,C  39,H  95)          109.2117         0.321308   
    301. A(C  39,C  40,C  41)          113.0557         0.363289   
    302. A(H  97,C  40,H  98)          105.9627         0.286465   
    303. A(C  41,C  40,H  98)          109.6886         0.321798   
    304. A(C  39,C  40,H  98)          109.1450         0.321605   
    305. A(C  41,C  40,H  97)          109.6680         0.321851   
    306. A(C  39,C  40,H  97)          109.0720         0.321658   
    307. A(H 100,C  41,H 101)          107.4902         0.287278   
    308. A(H  99,C  41,H 101)          107.6544         0.287525   
    309. A(C  40,C  41,H 101)          111.1189         0.322279   
    310. A(H  99,C  41,H 100)          107.6807         0.287567   
    311. A(C  40,C  41,H 100)          111.1084         0.322328   
    312. A(C  40,C  41,H  99)          111.5973         0.322618   
    313. A(C  17,O  43,H 102)          109.4230         0.351968   
    314. A(C  13,C  45,C  46)          112.6924         0.363402   
    315. A(C  46,C  45,H 104)          110.9811         0.323142   
    316. A(C  13,C  45,H 104)          108.3808         0.322169   
    317. A(C  46,C  45,H 103)          111.1309         0.323270   
    318. A(C  13,C  45,H 103)          107.0168         0.322296   
    319. A(H 103,C  45,H 104)          106.3476         0.288067   
    320. A(H 106,C  46,H 107)          107.7667         0.287204   
    321. A(H 105,C  46,H 107)          107.3096         0.287727   
    322. A(C  45,C  46,H 107)          111.7462         0.322819   
    323. A(H 105,C  46,H 106)          107.5422         0.287521   
    324. A(C  45,C  46,H 106)          111.5094         0.322576   
    325. A(C  45,C  46,H 105)          110.7601         0.323193   
    326. A(C  50,C  48,H 108)          109.2631         0.321893   
    327. A(C  49,C  48,H 108)          108.2087         0.322601   
    328. A(C  10,C  48,H 108)          105.7441         0.319796   
    329. A(C  49,C  48,C  50)          111.0218         0.363612   
    330. A(C  10,C  48,C  50)          110.3735         0.360315   
    331. A(C  10,C  48,C  49)          112.0382         0.361140   
    332. A(H 110,C  49,H 111)          107.2217         0.287477   
    333. A(H 109,C  49,H 111)          109.2577         0.287893   
    334. A(C  48,C  49,H 111)          110.8185         0.322546   
    335. A(H 109,C  49,H 110)          107.4361         0.288353   
    336. A(C  48,C  49,H 110)          110.5219         0.323086   
    337. A(C  48,C  49,H 109)          111.4347         0.323577   
    338. A(H 113,C  50,H 114)          107.5869         0.287501   
    339. A(H 112,C  50,H 114)          108.4118         0.287897   
    340. A(C  48,C  50,H 114)          110.2798         0.322288   
    341. A(H 112,C  50,H 113)          107.5673         0.287614   
    342. A(C  48,C  50,H 113)          110.8548         0.321956   
    343. A(C  48,C  50,H 112)          111.9844         0.322420   
    344. D(H  51,C   2,C   1,N   9)    -68.0043         0.008909   
    345. D(C   3,C   2,C   1,N   9)    167.3971         0.008909   
    346. D(N   6,C   2,C   1,N   9)     51.5915         0.008909   
    347. D(N   6,C   2,C   1,O   0)   -130.8954         0.008909   
    348. D(C   3,C   2,C   1,O   0)    -15.0897         0.008909   
    349. D(H  51,C   2,C   1,O   0)    109.5089         0.008909   
    350. D(C   4,C   3,C   2,N   6)     36.0192         0.011323   
    351. D(H  53,C   3,C   2,H  51)    -87.1180         0.011323   
    352. D(H  53,C   3,C   2,C   1)     33.9532         0.011323   
    353. D(C   4,C   3,C   2,H  51)    152.1576         0.011323   
    354. D(H  53,C   3,C   2,N   6)    156.7436         0.011323   
    355. D(H  52,C   3,C   2,H  51)     34.0917         0.011323   
    356. D(C   4,C   3,C   2,C   1)    -86.7712         0.011323   
    357. D(H  52,C   3,C   2,C   1)    155.1629         0.011323   
    358. D(H  52,C   3,C   2,N   6)    -82.0467         0.011323   
    359. D(H  55,C   4,C   3,H  53)     78.8230         0.010836   
    360. D(H  55,C   4,C   3,H  52)    -44.6260         0.010836   
    361. D(H  54,C   4,C   3,H  52)   -165.5472         0.010836   
    362. D(H  55,C   4,C   3,C   2)   -161.9374         0.010836   
    363. D(H  54,C   4,C   3,H  53)    -42.0982         0.010836   
    364. D(C   5,C   4,C   3,C   2)    -40.5999         0.010836   
    365. D(H  54,C   4,C   3,C   2)     77.1414         0.010836   
    366. D(C   5,C   4,C   3,H  53)   -159.8395         0.010836   
    367. D(C   5,C   4,C   3,H  52)     76.7115         0.010836   
    368. D(N   6,C   5,C   4,C   3)     29.0120         0.010908   
    369. D(H  57,C   5,C   4,C   3)    -89.8923         0.010908   
    370. D(H  56,C   5,C   4,H  55)    -89.0531         0.010908   
    371. D(H  56,C   5,C   4,C   3)    148.5069         0.010908   
    372. D(H  57,C   5,C   4,H  54)    153.0811         0.010908   
    373. D(H  56,C   5,C   4,H  54)     31.4802         0.010908   
    374. D(H  57,C   5,C   4,H  55)     32.5477         0.010908   
    375. D(N   6,C   5,C   4,H  54)    -88.0147         0.010908   
    376. D(N   6,C   5,C   4,H  55)    151.4520         0.010908   
    377. D(C   5,N   6,C   2,C   3)    -18.6674         0.013395   
    378. D(C   7,N   6,C   5,H  57)    -61.1954         0.013779   
    379. D(C   7,N   6,C   5,H  56)     58.8164         0.013779   
    380. D(C   7,N   6,C   5,C   4)    179.9320         0.013779   
    381. D(C   2,N   6,C   5,H  57)    112.3685         0.013779   
    382. D(C   2,N   6,C   5,H  56)   -127.6196         0.013779   
    383. D(C   7,N   6,C   2,H  51)     35.0423         0.013395   
    384. D(C   2,N   6,C   5,C   4)     -6.5040         0.013779   
    385. D(C   7,N   6,C   2,C   3)    155.1799         0.013395   
    386. D(C   5,N   6,C   2,C   1)    101.8424         0.013395   
    387. D(C   7,N   6,C   2,C   1)    -84.3103         0.013395   
    388. D(C   5,N   6,C   2,H  51)   -138.8050         0.013395   
    389. D(C  24,C   7,N   6,C   5)     14.3504         0.032063   
    390. D(C  24,C   7,N   6,C   2)   -158.5426         0.032063   
    391. D(O   8,C   7,N   6,C   5)   -167.9984         0.032063   
    392. D(O   8,C   7,N   6,C   2)     19.1086         0.032063   
    393. D(H  58,N   9,C   1,O   0)   -177.7447         0.032249   
    394. D(C  10,N   9,C   1,C   2)   -178.0688         0.032249   
    395. D(H  58,N   9,C   1,C   2)     -0.3016         0.032249   
    396. D(C  10,N   9,C   1,O   0)      4.4881         0.032249   
    397. D(H  59,C  10,N   9,C   1)    -17.7637         0.016544   
    398. D(C  48,C  10,N   9,H  58)    -77.3800         0.016544   
    399. D(C  48,C  10,N   9,C   1)    100.2927         0.016544   
    400. D(C  11,C  10,N   9,C   1)   -133.0185         0.016544   
    401. D(H  59,C  10,N   9,H  58)    164.5636         0.016544   
    402. D(C  11,C  10,N   9,H  58)     49.3088         0.016544   
    403. D(O  47,C  11,C  10,N   9)   -138.7281         0.009658   
    404. D(N  12,C  11,C  10,H  59)    -72.8555         0.009658   
    405. D(N  12,C  11,C  10,C  48)    168.2348         0.009658   
    406. D(N  12,C  11,C  10,N   9)     41.4706         0.009658   
    407. D(O  47,C  11,C  10,H  59)    106.9458         0.009658   
    408. D(O  47,C  11,C  10,C  48)    -11.9638         0.009658   
    409. D(H  60,N  12,C  11,O  47)   -177.7069         0.031371   
    410. D(H  60,N  12,C  11,C  10)      2.0947         0.031371   
    411. D(C  13,N  12,C  11,O  47)     -4.9874         0.031371   
    412. D(C  13,N  12,C  11,C  10)    174.8142         0.031371   
    413. D(H  61,C  13,N  12,C  11)    174.1805         0.015197   
    414. D(H  61,C  13,N  12,H  60)    -13.2456         0.015197   
    415. D(C  45,C  13,N  12,H  60)    105.5086         0.015197   
    416. D(C  45,C  13,N  12,C  11)    -67.0654         0.015197   
    417. D(C  14,C  13,N  12,C  11)     59.1276         0.015197   
    418. D(C  14,C  13,N  12,H  60)   -128.2985         0.015197   
    419. D(O  44,C  14,C  13,C  45)    -21.6585         0.009042   
    420. D(O  44,C  14,C  13,N  12)   -148.7942         0.009042   
    421. D(N  15,C  14,C  13,H  61)    -80.5033         0.009042   
    422. D(N  15,C  14,C  13,C  45)    161.1880         0.009042   
    423. D(O  44,C  14,C  13,H  61)     96.6503         0.009042   
    424. D(N  15,C  14,C  13,N  12)     34.0523         0.009042   
    425. D(H  62,N  15,C  14,O  44)    178.1433         0.030077   
    426. D(H  62,N  15,C  14,C  13)     -4.7846         0.030077   
    427. D(C  16,N  15,C  14,O  44)     15.8260         0.030077   
    428. D(C  16,N  15,C  14,C  13)   -167.1019         0.030077   
    429. D(H  64,C  16,N  15,H  62)     62.6834         0.017091   
    430. D(H  64,C  16,N  15,C  14)   -134.9695         0.017091   
    431. D(H  63,C  16,N  15,H  62)   -178.8742         0.017091   
    432. D(H  63,C  16,N  15,C  14)    -16.5271         0.017091   
    433. D(C  17,C  16,N  15,C  14)    103.2251         0.017091   
    434. D(C  17,C  16,N  15,H  62)    -59.1220         0.017091   
    435. D(H  65,C  17,C  16,H  64)    -70.5191         0.010597   
    436. D(H  65,C  17,C  16,H  63)    169.4330         0.010597   
    437. D(H  65,C  17,C  16,N  15)     51.0314         0.010597   
    438. D(O  43,C  17,C  16,H  64)    169.7902         0.010597   
    439. D(O  43,C  17,C  16,H  63)     49.7423         0.010597   
    440. D(O  43,C  17,C  16,N  15)    -68.6593         0.010597   
    441. D(C  18,C  17,C  16,H  64)     49.3085         0.010597   
    442. D(C  18,C  17,C  16,H  63)    -70.7394         0.010597   
    443. D(C  18,C  17,C  16,N  15)    170.8590         0.010597   
    444. D(H  66,C  18,C  17,H  65)    172.7336         0.010840   
    445. D(H  66,C  18,C  17,O  43)    -69.1470         0.010840   
    446. D(H  66,C  18,C  17,C  16)     54.6353         0.010840   
    447. D(C  32,C  18,C  17,O  43)     48.7930         0.010840   
    448. D(C  32,C  18,C  17,C  16)    172.5752         0.010840   
    449. D(C  32,C  18,C  17,H  65)    -69.3264         0.010840   
    450. D(C  19,C  18,C  17,H  65)     54.3626         0.010840   
    451. D(C  19,C  18,C  17,O  43)    172.4820         0.010840   
    452. D(C  19,C  18,C  17,C  16)    -63.7358         0.010840   
    453. D(O  31,C  19,C  18,H  66)     18.1629         0.009893   
    454. D(O  31,C  19,C  18,C  32)    -95.0495         0.009893   
    455. D(O  31,C  19,C  18,C  17)    138.7240         0.009893   
    456. D(N  20,C  19,C  18,H  66)   -164.6824         0.009893   
    457. D(N  20,C  19,C  18,C  17)    -44.1214         0.009893   
    458. D(N  20,C  19,C  18,C  32)     82.1052         0.009893   
    459. D(H  67,N  20,C  19,O  31)   -167.1594         0.028777   
    460. D(H  67,N  20,C  19,C  18)     15.6919         0.028777   
    461. D(C  21,N  20,C  19,O  31)     -6.7996         0.028777   
    462. D(C  21,N  20,C  19,C  18)    176.0517         0.028777   
    463. D(H  68,C  21,N  20,H  67)    121.5554         0.015295   
    464. D(H  68,C  21,N  20,C  19)    -39.0598         0.015295   
    465. D(C  27,C  21,N  20,H  67)   -118.1509         0.015295   
    466. D(C  27,C  21,N  20,C  19)     81.2339         0.015295   
    467. D(C  22,C  21,N  20,H  67)      6.9809         0.015295   
    468. D(C  22,C  21,N  20,C  19)   -153.6343         0.015295   
    469. D(N  23,C  22,C  21,C  27)     58.6594         0.010064   
    470. D(N  23,C  22,C  21,N  20)    -65.2214         0.010064   
    471. D(O  26,C  22,C  21,H  68)     -0.5613         0.010064   
    472. D(O  26,C  22,C  21,C  27)   -120.8713         0.010064   
    473. D(O  26,C  22,C  21,N  20)    115.2479         0.010064   
    474. D(N  23,C  22,C  21,H  68)    178.9694         0.010064   
    475. D(H  69,N  23,C  22,O  26)   -177.2599         0.028272   
    476. D(H  69,N  23,C  22,C  21)      3.2241         0.028272   
    477. D(C  24,N  23,C  22,O  26)     -9.2373         0.028272   
    478. D(C  24,N  23,C  22,C  21)    171.2467         0.028272   
    479. D(H  70,C  24,N  23,H  69)    -25.1468         0.017034   
    480. D(H  70,C  24,N  23,C  22)    166.7501         0.017034   
    481. D(C  25,C  24,N  23,H  69)   -143.4558         0.017034   
    482. D(C  25,C  24,N  23,C  22)     48.4411         0.017034   
    483. D(C   7,C  24,N  23,H  69)     91.8002         0.017034   
    484. D(C   7,C  24,N  23,C  22)    -76.3028         0.017034   
    485. D(H  70,C  24,C   7,O   8)    134.7849         0.009385   
    486. D(H  70,C  24,C   7,N   6)    -47.5379         0.009385   
    487. D(C  25,C  24,C   7,O   8)   -106.5139         0.009385   
    488. D(C  25,C  24,C   7,N   6)     71.1632         0.009385   
    489. D(N  23,C  24,C   7,O   8)     19.0209         0.009385   
    490. D(N  23,C  24,C   7,N   6)   -163.3019         0.009385   
    491. D(H  73,C  25,C  24,H  70)    177.8230         0.010369   
    492. D(H  73,C  25,C  24,N  23)    -65.2985         0.010369   
    493. D(H  73,C  25,C  24,C   7)     59.4188         0.010369   
    494. D(H  72,C  25,C  24,H  70)     56.0353         0.010369   
    495. D(H  72,C  25,C  24,N  23)    172.9138         0.010369   
    496. D(H  72,C  25,C  24,C   7)    -62.3689         0.010369   
    497. D(H  71,C  25,C  24,H  70)    -63.2454         0.010369   
    498. D(H  71,C  25,C  24,N  23)     53.6331         0.010369   
    499. D(H  71,C  25,C  24,C   7)    178.3504         0.010369   
    500. D(H  75,C  27,C  21,H  68)     58.7277         0.010577   
    501. D(H  75,C  27,C  21,C  22)    177.1358         0.010577   
    502. D(H  75,C  27,C  21,N  20)    -60.7142         0.010577   
    503. D(H  74,C  27,C  21,H  68)    173.5212         0.010577   
    504. D(H  74,C  27,C  21,C  22)    -68.0707         0.010577   
    505. D(H  74,C  27,C  21,N  20)     54.0793         0.010577   
    506. D(C  28,C  27,C  21,H  68)    -63.4991         0.010577   
    507. D(C  28,C  27,C  21,C  22)     54.9090         0.010577   
    508. D(C  28,C  27,C  21,N  20)    177.0590         0.010577   
    509. D(H  76,C  28,C  27,H  75)    179.9317         0.010719   
    510. D(H  76,C  28,C  27,H  74)     63.3662         0.010719   
    511. D(H  76,C  28,C  27,C  21)    -59.3489         0.010719   
    512. D(C  30,C  28,C  27,H  75)     62.5812         0.010719   
    513. D(C  30,C  28,C  27,H  74)    -53.9844         0.010719   
    514. D(C  30,C  28,C  27,C  21)   -176.6995         0.010719   
    515. D(C  29,C  28,C  27,H  75)    -61.3231         0.010719   
    516. D(C  29,C  28,C  27,H  74)   -177.8886         0.010719   
    517. D(C  29,C  28,C  27,C  21)     59.3963         0.010719   
    518. D(H  79,C  29,C  28,C  30)     53.1036         0.010868   
    519. D(H  79,C  29,C  28,C  27)    176.2327         0.010868   
    520. D(H  78,C  29,C  28,H  76)    175.4834         0.010868   
    521. D(H  78,C  29,C  28,C  30)    -66.3933         0.010868   
    522. D(H  78,C  29,C  28,C  27)     56.7358         0.010868   
    523. D(H  77,C  29,C  28,H  76)     54.8294         0.010868   
    524. D(H  77,C  29,C  28,C  30)    172.9527         0.010868   
    525. D(H  79,C  29,C  28,H  76)    -65.0197         0.010868   
    526. D(H  77,C  29,C  28,C  27)    -63.9182         0.010868   
    527. D(H  82,C  30,C  28,H  76)    179.7128         0.010956   
    528. D(H  82,C  30,C  28,C  29)     61.5524         0.010956   
    529. D(H  82,C  30,C  28,C  27)    -62.8959         0.010956   
    530. D(H  81,C  30,C  28,H  76)     60.0575         0.010956   
    531. D(H  81,C  30,C  28,C  29)    -58.1029         0.010956   
    532. D(H  81,C  30,C  28,C  27)    177.4488         0.010956   
    533. D(H  80,C  30,C  28,H  76)    -60.4485         0.010956   
    534. D(H  80,C  30,C  28,C  29)   -178.6089         0.010956   
    535. D(H  80,C  30,C  28,C  27)     56.9428         0.010956   
    536. D(O  42,C  32,C  18,H  66)    -15.9476         0.009496   
    537. D(O  42,C  32,C  18,C  19)     97.1364         0.009496   
    538. D(O  42,C  32,C  18,C  17)   -136.0202         0.009496   
    539. D(C  33,C  32,C  18,H  66)    166.5004         0.009496   
    540. D(C  33,C  32,C  18,C  19)    -80.4157         0.009496   
    541. D(C  33,C  32,C  18,C  17)     46.4278         0.009496   
    542. D(H  84,C  33,C  32,O  42)     60.1027         0.011304   
    543. D(H  84,C  33,C  32,C  18)   -122.3721         0.011304   
    544. D(H  83,C  33,C  32,O  42)    175.6412         0.011304   
    545. D(H  83,C  33,C  32,C  18)     -6.8336         0.011304   
    546. D(C  34,C  33,C  32,O  42)    -60.2645         0.011304   
    547. D(C  34,C  33,C  32,C  18)    117.2608         0.011304   
    548. D(H  86,C  34,C  33,H  84)   -171.1022         0.010632   
    549. D(H  86,C  34,C  33,H  83)     71.9148         0.010632   
    550. D(H  86,C  34,C  33,C  32)    -52.3788         0.010632   
    551. D(H  85,C  34,C  33,H  84)    -55.0651         0.010632   
    552. D(H  85,C  34,C  33,H  83)   -172.0481         0.010632   
    553. D(H  85,C  34,C  33,C  32)     63.6582         0.010632   
    554. D(C  35,C  34,C  33,H  84)     67.4670         0.010632   
    555. D(C  35,C  34,C  33,H  83)    -49.5160         0.010632   
    556. D(C  35,C  34,C  33,C  32)   -173.8096         0.010632   
    557. D(H  88,C  35,C  34,H  86)     73.9353         0.010729   
    558. D(H  88,C  35,C  34,H  85)    -43.2101         0.010729   
    559. D(H  88,C  35,C  34,C  33)   -164.5631         0.010729   
    560. D(H  87,C  35,C  34,H  86)   -169.9561         0.010729   
    561. D(H  87,C  35,C  34,H  85)     72.8985         0.010729   
    562. D(H  87,C  35,C  34,C  33)    -48.4544         0.010729   
    563. D(C  36,C  35,C  34,H  86)    -48.4604         0.010729   
    564. D(C  36,C  35,C  34,H  85)   -165.6058         0.010729   
    565. D(C  36,C  35,C  34,C  33)     73.0413         0.010729   
    566. D(H  90,C  36,C  35,H  87)     79.3490         0.010788   
    567. D(H  90,C  36,C  35,C  34)    -42.1900         0.010788   
    568. D(H  89,C  36,C  35,H  88)    -48.7503         0.010788   
    569. D(H  89,C  36,C  35,H  87)   -164.7476         0.010788   
    570. D(H  89,C  36,C  35,C  34)     73.7134         0.010788   
    571. D(C  37,C  36,C  35,H  88)     73.9057         0.010788   
    572. D(C  37,C  36,C  35,H  87)    -42.0917         0.010788   
    573. D(H  90,C  36,C  35,H  88)   -164.6537         0.010788   
    574. D(C  37,C  36,C  35,C  34)   -163.6307         0.010788   
    575. D(H  92,C  37,C  36,H  90)    -63.8788         0.011071   
    576. D(H  92,C  37,C  36,H  89)    179.9610         0.011071   
    577. D(H  92,C  37,C  36,C  35)     57.8422         0.011071   
    578. D(H  91,C  37,C  36,H  90)     50.8038         0.011071   
    579. D(H  91,C  37,C  36,H  89)    -65.3563         0.011071   
    580. D(H  91,C  37,C  36,C  35)    172.5249         0.011071   
    581. D(C  38,C  37,C  36,H  90)    172.8763         0.011071   
    582. D(C  38,C  37,C  36,H  89)     56.7161         0.011071   
    583. D(C  38,C  37,C  36,C  35)    -65.4027         0.011071   
    584. D(H  94,C  38,C  37,H  92)   -176.8344         0.011189   
    585. D(H  94,C  38,C  37,H  91)     68.3388         0.011189   
    586. D(H  94,C  38,C  37,C  36)    -53.9395         0.011189   
    587. D(H  93,C  38,C  37,H  92)    -60.9698         0.011189   
    588. D(H  93,C  38,C  37,H  91)   -175.7967         0.011189   
    589. D(H  93,C  38,C  37,C  36)     61.9251         0.011189   
    590. D(C  39,C  38,C  37,H  92)     61.1772         0.011189   
    591. D(C  39,C  38,C  37,H  91)    -53.6497         0.011189   
    592. D(C  39,C  38,C  37,C  36)   -175.9279         0.011189   
    593. D(H  95,C  39,C  38,H  94)    -63.9228         0.011148   
    594. D(H  95,C  39,C  38,H  93)   -179.6138         0.011148   
    595. D(H  95,C  39,C  38,C  37)     57.9900         0.011148   
    596. D(C  40,C  39,C  38,H  94)     58.2623         0.011148   
    597. D(C  40,C  39,C  38,H  93)    -57.4287         0.011148   
    598. D(C  40,C  39,C  38,C  37)   -179.8249         0.011148   
    599. D(H  96,C  39,C  38,H  94)   -179.2794         0.011148   
    600. D(H  96,C  39,C  38,H  93)     65.0296         0.011148   
    601. D(H  96,C  39,C  38,C  37)    -57.3665         0.011148   
    602. D(H  98,C  40,C  39,H  95)     65.0731         0.011095   
    603. D(H  98,C  40,C  39,C  38)    -57.1446         0.011095   
    604. D(H  97,C  40,C  39,H  96)    -64.2529         0.011095   
    605. D(H  97,C  40,C  39,H  95)   -179.5833         0.011095   
    606. D(H  97,C  40,C  39,C  38)     58.1990         0.011095   
    607. D(C  41,C  40,C  39,H  96)     58.0357         0.011095   
    608. D(C  41,C  40,C  39,H  95)    -57.2948         0.011095   
    609. D(H  98,C  40,C  39,H  96)   -179.5965         0.011095   
    610. D(C  41,C  40,C  39,C  38)   -179.5124         0.011095   
    611. D(H 101,C  41,C  40,H  98)    -62.1632         0.011171   
    612. D(H 101,C  41,C  40,H  97)   -178.1447         0.011171   
    613. D(H 101,C  41,C  40,C  39)     59.9005         0.011171   
    614. D(H 100,C  41,C  40,H  98)    178.2027         0.011171   
    615. D(H 100,C  41,C  40,H  97)     62.2212         0.011171   
    616. D(H 100,C  41,C  40,C  39)    -59.7336         0.011171   
    617. D(H  99,C  41,C  40,H  98)     58.0066         0.011171   
    618. D(H  99,C  41,C  40,H  97)    -57.9749         0.011171   
    619. D(H  99,C  41,C  40,C  39)   -179.9297         0.011171   
    620. D(H 102,O  43,C  17,H  65)    -58.2124         0.020240   
    621. D(H 102,O  43,C  17,C  18)   -176.8775         0.020240   
    622. D(H 102,O  43,C  17,C  16)     60.2884         0.020240   
    623. D(H 104,C  45,C  13,H  61)    179.4959         0.010961   
    624. D(H 104,C  45,C  13,C  14)    -63.6659         0.010961   
    625. D(H 104,C  45,C  13,N  12)     62.6336         0.010961   
    626. D(H 103,C  45,C  13,H  61)    -66.1816         0.010961   
    627. D(H 103,C  45,C  13,C  14)     50.6566         0.010961   
    628. D(H 103,C  45,C  13,N  12)    176.9561         0.010961   
    629. D(C  46,C  45,C  13,H  61)     56.2719         0.010961   
    630. D(C  46,C  45,C  13,C  14)    173.1101         0.010961   
    631. D(C  46,C  45,C  13,N  12)    -60.5904         0.010961   
    632. D(H 107,C  46,C  45,H 104)    -60.5012         0.011348   
    633. D(H 107,C  46,C  45,H 103)   -178.6261         0.011348   
    634. D(H 107,C  46,C  45,C  13)     61.2623         0.011348   
    635. D(H 106,C  46,C  45,H 104)    178.8142         0.011348   
    636. D(H 106,C  46,C  45,H 103)     60.6893         0.011348   
    637. D(H 106,C  46,C  45,C  13)    -59.4223         0.011348   
    638. D(H 105,C  46,C  45,H 104)     59.0880         0.011348   
    639. D(H 105,C  46,C  45,H 103)    -59.0369         0.011348   
    640. D(H 105,C  46,C  45,C  13)   -179.1485         0.011348   
    641. D(H 108,C  48,C  10,H  59)    -67.1141         0.010253   
    642. D(H 108,C  48,C  10,C  11)     51.2458         0.010253   
    643. D(H 108,C  48,C  10,N   9)    176.2389         0.010253   
    644. D(C  50,C  48,C  10,H  59)     50.9419         0.010253   
    645. D(C  50,C  48,C  10,C  11)    169.3019         0.010253   
    646. D(C  50,C  48,C  10,N   9)    -65.7051         0.010253   
    647. D(C  49,C  48,C  10,H  59)    175.2163         0.010253   
    648. D(C  49,C  48,C  10,C  11)    -66.4238         0.010253   
    649. D(C  49,C  48,C  10,N   9)     58.5693         0.010253   
    650. D(H 111,C  49,C  48,C  50)     63.8814         0.011330   
    651. D(H 111,C  49,C  48,C  10)    -60.0310         0.011330   
    652. D(H 110,C  49,C  48,H 108)     65.0599         0.011330   
    653. D(H 110,C  49,C  48,C  50)    -54.8394         0.011330   
    654. D(H 110,C  49,C  48,C  10)   -178.7519         0.011330   
    655. D(H 109,C  49,C  48,H 108)    -54.3251         0.011330   
    656. D(H 109,C  49,C  48,C  50)   -174.2244         0.011330   
    657. D(H 111,C  49,C  48,H 108)   -176.2193         0.011330   
    658. D(H 109,C  49,C  48,C  10)     61.8631         0.011330   
    659. D(H 114,C  50,C  48,H 108)    -60.0037         0.011047   
    660. D(H 114,C  50,C  48,C  49)     59.2656         0.011047   
    661. D(H 114,C  50,C  48,C  10)   -175.8780         0.011047   
    662. D(H 113,C  50,C  48,H 108)   -179.0472         0.011047   
    663. D(H 113,C  50,C  48,C  49)    -59.7778         0.011047   
    664. D(H 113,C  50,C  48,C  10)     65.0785         0.011047   
    665. D(H 112,C  50,C  48,H 108)     60.8132         0.011047   
    666. D(H 112,C  50,C  48,C  49)   -179.9175         0.011047   
    667. D(H 112,C  50,C  48,C  10)    -55.0611         0.011047   
    -----------------------------------------------------------------

Number of atoms                         .... 115
Number of degrees of freedom            .... 667

         *************************************************************
         *                GEOMETRY OPTIMIZATION CYCLE   1            *
         *************************************************************
---------------------------------
CARTESIAN COORDINATES (ANGSTROEM)
---------------------------------
  O      0.250423    4.611329   -1.893245
  C      0.009038    3.407834   -1.809456
  C     -1.285545    2.781537   -2.396935
  C     -2.319112    3.859216   -2.719725
  C     -3.053370    4.023823   -1.382907
  C     -3.190763    2.583446   -0.876135
  N     -2.017810    1.894219   -1.459335
  C     -1.694990    0.584985   -1.295526
  O     -0.586824    0.129622   -1.632189
  N      0.844722    2.491239   -1.257498
  C      2.098205    2.846278   -0.609261
  C      3.222498    1.920028   -1.113201
  N      3.190919    1.669447   -2.450673
  C      4.231190    0.904913   -3.146779
  C      4.368498   -0.526808   -2.565619
  N      3.192002   -1.070950   -2.133286
  C      3.130083   -2.269167   -1.317704
  C      2.840694   -1.902278    0.146859
  C      2.546798   -3.151900    0.986642
  C      1.279599   -3.908652    0.554730
  N      0.185583   -3.124002    0.290261
  C     -1.059577   -3.711453   -0.212871
  C     -1.808363   -2.633978   -1.010120
  N     -2.224925   -1.579514   -0.233420
  C     -2.794147   -0.335737   -0.718248
  C     -3.915029   -0.567682   -1.749211
  O     -2.007367   -2.735939   -2.214881
  C     -1.893372   -4.314674    0.929525
  C     -3.249662   -4.888927    0.494931
  C     -3.095307   -6.004674   -0.545887
  C     -4.019670   -5.383604    1.724077
  O      1.236402   -5.133009    0.503527
  C      2.431266   -2.846095    2.495559
  C      1.589506   -1.658680    2.928136
  C      0.384352   -2.061904    3.792338
  C     -0.528112   -0.861999    4.084526
  C     -1.342204   -0.423279    2.859755
  C     -1.962324    0.973294    2.953665
  C     -3.033951    1.125135    4.034242
  C     -3.694736    2.505005    4.026427
  C     -4.768115    2.679908    5.103512
  C     -5.426737    4.060184    5.074320
  O      2.967886   -3.571390    3.311119
  O      3.920465   -1.225956    0.768185
  O      5.441825   -1.116528   -2.558150
  C      5.583732    1.624582   -3.177443
  C      5.518741    2.970776   -3.896080
  O      4.084487    1.446344   -0.366134
  C      1.992030    2.874648    0.928950
  C      1.548969    1.527944    1.497861
  C      1.051687    3.996713    1.377796
  H     -0.992165    2.179275   -3.270740
  H     -3.002348    3.500923   -3.503107
  H     -1.829662    4.780015   -3.054180
  H     -2.434048    4.616579   -0.694964
  H     -4.027682    4.518249   -1.477091
  H     -3.171016    2.513471    0.221026
  H     -4.127288    2.131776   -1.234086
  H      0.528055    1.508828   -1.287242
  H      2.336220    3.867004   -0.956178
  H      2.466385    2.130487   -2.992463
  H      3.868374    0.786463   -4.181973
  H      2.364551   -0.480018   -2.157782
  H      4.103962   -2.770721   -1.390251
  H      2.351032   -2.944864   -1.703531
  H      1.949713   -1.233141    0.142594
  H      3.372347   -3.868174    0.885157
  H      0.321019   -2.125391    0.153523
  H     -0.798800   -4.498620   -0.931836
  H     -1.957291   -1.596968    0.747051
  H     -3.228022    0.163937    0.161894
  H     -4.663206   -1.247134   -1.320893
  H     -4.413279    0.374513   -2.006650
  H     -3.510216   -1.028800   -2.654189
  H     -2.051357   -3.544098    1.704231
  H     -1.283370   -5.104385    1.395466
  H     -3.834180   -4.071432    0.034173
  H     -2.656252   -5.634549   -1.482117
  H     -2.450249   -6.809406   -0.160302
  H     -4.073265   -6.443966   -0.790382
  H     -4.155294   -4.580581    2.464358
  H     -5.014680   -5.758841    1.444340
  H     -3.477879   -6.205699    2.217282
  H      1.255741   -1.084233    2.056172
  H      2.251730   -0.996015    3.506521
  H      0.752767   -2.508366    4.726014
  H     -0.194084   -2.846771    3.277181
  H      0.087329   -0.013909    4.432681
  H     -1.210828   -1.108168    4.912025
  H     -2.143539   -1.167912    2.691266
  H     -0.686311   -0.448141    1.973566
  H     -2.405892    1.237151    1.976374
  H     -1.159622    1.711090    3.122238
  H     -2.590953    0.939120    5.026540
  H     -3.805998    0.347429    3.894216
  H     -4.144531    2.687340    3.033118
  H     -2.919865    3.281511    4.153512
  H     -4.316228    2.505069    6.094431
  H     -5.536905    1.898484    4.978472
  H     -6.191624    4.160093    5.857230
  H     -4.683769    4.857226    5.229225
  H     -5.914603    4.246450    4.105236
  H      4.105312   -0.389030    0.283111
  H      6.296523    0.948294   -3.667487
  H      5.934474    1.747121   -2.143527
  H      6.506287    3.451314   -3.912690
  H      5.187970    2.855537   -4.940461
  H      4.825059    3.665235   -3.398880
  H      3.009169    3.084913    1.294846
  H      2.272268    0.737583    1.265892
  H      1.460198    1.582300    2.591633
  H      0.560532    1.242777    1.104219
  H      1.355212    4.972991    0.976006
  H      0.021930    3.803830    1.039651
  H      1.034086    4.063044    2.474823

----------------------------
CARTESIAN COORDINATES (A.U.)
----------------------------
  NO LB      ZA    FRAG     MASS         X           Y           Z
   0 O     8.0000    0    15.999    0.473231    8.714148   -3.577714
   1 C     6.0000    0    12.011    0.017079    6.439873   -3.419376
   2 C     6.0000    0    12.011   -2.429328    5.256343   -4.529550
   3 C     6.0000    0    12.011   -4.382487    7.292862   -5.139536
   4 C     6.0000    0    12.011   -5.770033    7.603924   -2.613316
   5 C     6.0000    0    12.011   -6.029669    4.882005   -1.655655
   6 N     7.0000    0    14.007   -3.813107    3.579556   -2.757744
   7 C     6.0000    0    12.011   -3.203066    1.105461   -2.448189
   8 O     8.0000    0    15.999   -1.108937    0.244951   -3.084390
   9 N     7.0000    0    14.007    1.596292    4.707760   -2.376327
  10 C     6.0000    0    12.011    3.965032    5.378687   -1.151336
  11 C     6.0000    0    12.011    6.089638    3.628327   -2.103645
  12 N     7.0000    0    14.007    6.029963    3.154797   -4.631101
  13 C     6.0000    0    12.011    7.995790    1.710038   -5.946550
  14 C     6.0000    0    12.011    8.255265   -0.995523   -4.848317
  15 N     7.0000    0    14.007    6.032010   -2.023802   -4.031326
  16 C     6.0000    0    12.011    5.915000   -4.288104   -2.490100
  17 C     6.0000    0    12.011    5.368133   -3.594785    0.277523
  18 C     6.0000    0    12.011    4.812751   -5.956228    1.864484
  19 C     6.0000    0    12.011    2.418091   -7.386282    1.048288
  20 N     7.0000    0    14.007    0.350702   -5.903509    0.548514
  21 C     6.0000    0    12.011   -2.002310   -7.013630   -0.402267
  22 C     6.0000    0    12.011   -3.417311   -4.977496   -1.908851
  23 N     7.0000    0    14.007   -4.204499   -2.984849   -0.441101
  24 C     6.0000    0    12.011   -5.280173   -0.634450   -1.357292
  25 C     6.0000    0    12.011   -7.398332   -1.072764   -3.305529
  26 O     8.0000    0    15.999   -3.793374   -5.170176   -4.185518
  27 C     6.0000    0    12.011   -3.577954   -8.153551    1.756547
  28 C     6.0000    0    12.011   -6.140970   -9.238732    0.935285
  29 C     6.0000    0    12.011   -5.849283  -11.347190   -1.031577
  30 C     6.0000    0    12.011   -7.596076  -10.173537    3.258033
  31 O     8.0000    0    15.999    2.336460   -9.699981    0.951529
  32 C     6.0000    0    12.011    4.594427   -5.378340    4.715924
  33 C     6.0000    0    12.011    3.003732   -3.134451    5.533376
  34 C     6.0000    0    12.011    0.726320   -3.896434    7.166481
  35 C     6.0000    0    12.011   -0.997986   -1.628943    7.718636
  36 C     6.0000    0    12.011   -2.536397   -0.799882    5.404154
  37 C     6.0000    0    12.011   -3.708255    1.839260    5.581619
  38 C     6.0000    0    12.011   -5.733337    2.126197    7.623613
  39 C     6.0000    0    12.011   -6.982040    4.733773    7.608844
  40 C     6.0000    0    12.011   -9.010432    5.064293    9.644241
  41 C     6.0000    0    12.011  -10.255047    7.672636    9.589075
  42 O     8.0000    0    15.999    5.608492   -6.748948    6.257109
  43 O     8.0000    0    15.999    7.408605   -2.316721    1.451659
  44 O     8.0000    0    15.999   10.283559   -2.109932   -4.834203
  45 C     6.0000    0    12.011   10.551725    3.070014   -6.004497
  46 C     6.0000    0    12.011   10.428908    5.613953   -7.362525
  47 O     8.0000    0    15.999    7.718563    2.733195   -0.691893
  48 C     6.0000    0    12.011    3.764391    5.432298    1.755462
  49 C     6.0000    0    12.011    2.927128    2.887396    2.830546
  50 C     6.0000    0    12.011    1.987401    7.552693    2.603657
  51 H     1.0000    0     1.008   -1.874920    4.118234   -6.180803
  52 H     1.0000    0     1.008   -5.673615    6.615786   -6.619913
  53 H     1.0000    0     1.008   -3.457559    9.032919   -5.771564
  54 H     1.0000    0     1.008   -4.599685    8.724070   -1.313292
  55 H     1.0000    0     1.008   -7.611215    8.538253   -2.791298
  56 H     1.0000    0     1.008   -5.992353    4.749772    0.417679
  57 H     1.0000    0     1.008   -7.799444    4.028473   -2.332085
  58 H     1.0000    0     1.008    0.997879    2.851271   -2.432535
  59 H     1.0000    0     1.008    4.414816    7.307579   -1.806915
  60 H     1.0000    0     1.008    4.660791    4.026037   -5.654936
  61 H     1.0000    0     1.008    7.310167    1.486200   -7.902783
  62 H     1.0000    0     1.008    4.468353   -0.907102   -4.077617
  63 H     1.0000    0     1.008    7.755365   -5.235904   -2.627194
  64 H     1.0000    0     1.008    4.442807   -5.564987   -3.219206
  65 H     1.0000    0     1.008    3.684424   -2.330299    0.269464
  66 H     1.0000    0     1.008    6.372813   -7.309790    1.672704
  67 H     1.0000    0     1.008    0.606638   -4.016406    0.290117
  68 H     1.0000    0     1.008   -1.509513   -8.501160   -1.760916
  69 H     1.0000    0     1.008   -3.698743   -3.017833    1.411722
  70 H     1.0000    0     1.008   -6.100078    0.309796    0.305935
  71 H     1.0000    0     1.008   -8.812182   -2.356742   -2.496126
  72 H     1.0000    0     1.008   -8.339889    0.707728   -3.792020
  73 H     1.0000    0     1.008   -6.633346   -1.944150   -5.015690
  74 H     1.0000    0     1.008   -3.876503   -6.697376    3.220531
  75 H     1.0000    0     1.008   -2.425218   -9.645889    2.637048
  76 H     1.0000    0     1.008   -7.245550   -7.693892    0.064578
  77 H     1.0000    0     1.008   -5.019589  -10.647754   -2.800795
  78 H     1.0000    0     1.008   -4.630299  -12.867912   -0.302928
  79 H     1.0000    0     1.008   -7.697356  -12.177331   -1.493606
  80 H     1.0000    0     1.008   -7.852368   -8.656043    4.656961
  81 H     1.0000    0     1.008   -9.476372  -10.882632    2.729407
  82 H     1.0000    0     1.008   -6.572239  -11.727073    4.190055
  83 H     1.0000    0     1.008    2.373007   -2.048904    3.885602
  84 H     1.0000    0     1.008    4.255153   -1.882196    6.626364
  85 H     1.0000    0     1.008    1.422523   -4.740124    8.930873
  86 H     1.0000    0     1.008   -0.366767   -5.379617    6.192974
  87 H     1.0000    0     1.008    0.165027   -0.026285    8.376554
  88 H     1.0000    0     1.008   -2.288132   -2.094133    9.282382
  89 H     1.0000    0     1.008   -4.050703   -2.207034    5.085756
  90 H     1.0000    0     1.008   -1.296940   -0.846865    3.729499
  91 H     1.0000    0     1.008   -4.546478    2.337877    3.734805
  92 H     1.0000    0     1.008   -2.191369    3.233492    5.900176
  93 H     1.0000    0     1.008   -4.896192    1.774679    9.498784
  94 H     1.0000    0     1.008   -7.192293    0.656546    7.359002
  95 H     1.0000    0     1.008   -7.832029    5.078336    5.731762
  96 H     1.0000    0     1.008   -5.517745    6.201157    7.849000
  97 H     1.0000    0     1.008   -8.156488    4.733894   11.516806
  98 H     1.0000    0     1.008  -10.463233    3.587614    9.407948
  99 H     1.0000    0     1.008  -11.700474    7.861436   11.068561
 100 H     1.0000    0     1.008   -8.851040    9.178827    9.881803
 101 H     1.0000    0     1.008  -11.176980    8.024628    7.757771
 102 H     1.0000    0     1.008    7.757915   -0.735161    0.535002
 103 H     1.0000    0     1.008   11.898705    1.792016   -6.930545
 104 H     1.0000    0     1.008   11.214530    3.301580   -4.050680
 105 H     1.0000    0     1.008   12.295101    6.522039   -7.393912
 106 H     1.0000    0     1.008    9.803842    5.396182   -9.336118
 107 H     1.0000    0     1.008    9.118039    6.926290   -6.422952
 108 H     1.0000    0     1.008    5.686505    5.829640    2.446904
 109 H     1.0000    0     1.008    4.293965    1.393830    2.392190
 110 H     1.0000    0     1.008    2.759374    2.990113    4.897477
 111 H     1.0000    0     1.008    1.059253    2.348509    2.086671
 112 H     1.0000    0     1.008    2.560979    9.397590    1.844384
 113 H     1.0000    0     1.008    0.041441    7.188197    1.964656
 114 H     1.0000    0     1.008    1.954140    7.678040    4.676738

--------------------------------
INTERNAL COORDINATES (ANGSTROEM)
--------------------------------
 O      0   0   0     0.000000000000     0.00000000     0.00000000
 C      1   0   0     1.230319816524     0.00000000     0.00000000
 C      2   1   0     1.553487952403   122.14810131     0.00000000
 C      3   2   1     1.527693523030   111.05756359   344.91029247
 C      4   3   2     1.534051125773   102.43857789   273.22881669
 C      5   4   3     1.533095778186   103.30517117   319.40011117
 N      6   5   4     1.480194803941   103.66330453    29.01195785
 C      7   6   5     1.358360151260   126.12883587   179.93201279
 O      8   7   6     1.244479118888   122.11848497   192.00160913
 N      2   1   3     1.357633892761   124.56500159   177.22486370
 C     10   2   1     1.455157865028   123.13546321     4.48808580
 C     11  10   2     1.541405294249   109.63634240   226.98149646
 N     12  11  10     1.361110072208   114.51704610    41.47058444
 C     13  12  11     1.466709959171   123.08413260   174.81423101
 C     14  13  12     1.551265480467   111.47303862    59.12755601
 N     15  14  13     1.366434857122   114.19574513    34.05226876
 C     16  15  14     1.450769329023   122.92310876   192.89807184
 C     17  16  15     1.537302395159   110.27306101   103.22512438
 C     18  17  16     1.534003161282   111.29647244   170.85896883
 C     19  18  17     1.537860935028   113.88945651   296.26422362
 N     20  19  18     1.372037918784   115.45180803   315.87861613
 C     21  20  19     1.465832006002   120.95051753   176.05168603
 C     22  21  20     1.535331158799   108.13557031   206.36570748
 N     23  22  21     1.374292693609   113.13018371   294.77864069
 C     24  23  22     1.451224877937   125.99237703   171.24665659
 C     25  24  23     1.540473105300   112.32990079    48.44114137
 O     23  22  21     1.225335162335   122.09738771   115.24794605
 C     22  21  20     1.537581559462   111.27506959    81.23391987
 C     28  22  21     1.535630000129   114.54363466   177.05897906
 C     29  28  22     1.533630105315   112.03867162    59.39625716
 C     29  28  22     1.532454762154   109.72496173   183.30054954
 O     20  19  18     1.226188122681   122.14760284   138.72399532
 C     19  18  17     1.543922154214   112.83129087   172.57522469
 C     33  19  18     1.518432180365   118.34626492    46.42776361
 C     34  33  19     1.536825092360   112.93849094   117.26078813
 C     35  34  33     1.535491934589   111.59071080   186.19037255
 C     36  35  34     1.534693759744   112.75263822    73.04125492
 C     37  36  35     1.530942874434   115.25772392   196.36931136
 C     38  37  36     1.529407596472   114.69092514   294.59726701
 C     39  38  37     1.529947000952   112.86476299   184.07207873
 C     40  39  38     1.530636359346   113.72459468   180.17511587
 C     41  40  39     1.529639208429   113.05573307   180.48761701
 O     33  19  18     1.216203709823   120.28067001   223.97980597
 O     18  17  16     1.417520089919   112.83349784   291.34068613
 O     15  14  13     1.224686192778   121.61967930   211.20579337
 C     14  13  12     1.532395045782   112.99849383   292.93464103
 C     46  14  13     1.527384423102   112.69235487   299.40962285
 O     12  11  10     1.235116070536   122.80321332   221.27193167
 C     11  10   2     1.542132001124   112.92490657   100.29268518
 C     49  11  10     1.527603452634   112.03816623    58.56927323
 C     49  11  10     1.531252975149   110.37350610   294.29491281
 H      3   2   1     1.101056948967   107.37295069   109.50888955
 H      4   3   2     1.099486786962   109.94298469   155.16285654
 H      4   3   2     1.095121688031   110.81124520    33.95323367
 H      5   4   3     1.099174441129   109.48641181    77.14140739
 H      5   4   3     1.096635970944   113.50229323   198.06259714
 H      6   5   4     1.099567919133   112.83085142   148.50686101
 H      6   5   4     1.099642168181   110.77048224   270.10773462
 H     10   2   1     1.032615473205   116.22136755   182.25528183
 H     11  10   2     1.104030900653   105.74190400   342.23630332
 H     13  12  11     1.015403729419   117.21103669     2.09472662
 H     14  13  12     1.103309823949   105.54708245   174.18050931
 H     16  15  14     1.017092590883   117.48224210   355.21540611
 H     17  16  15     1.097843410742   107.59665044   343.47294923
 H     17  16  15     1.101067512195   109.88003508   225.03047267
 H     18  17  16     1.114275185350   106.86949483    51.03141543
 H     19  18  17     1.097669947943   109.68589453    54.63526144
 H     21  20  19     1.016988457869   118.76914467    15.69187223
 H     22  21  20     1.097519016226   108.08644131   320.94023471
 H     24  23  22     1.016492686682   116.88198182     3.22408631
 H     25  24  23     1.101168229459   106.04686493   166.75014502
 H     26  25  24     1.097670305013   109.14772353    53.63310783
 H     26  25  24     1.096476761633   111.00129068   172.91383198
 H     26  25  24     1.093384134632   110.36717601   294.70149097
 H     28  22  21     1.104045194926   108.97326032    54.07930195
 H     28  22  21     1.101293170586   107.17559922   299.28581798
 H     29  28  22     1.105557195149   107.96251788   300.65106968
 H     30  29  28     1.098311715846   111.93619102   296.08180154
 H     30  29  28     1.101076400951   110.67199491    56.73580771
 H     30  29  28     1.099616630324   110.61141424   176.23272752
 H     31  29  28     1.100570499568   111.46261057    56.94281092
 H     31  29  28     1.099591073484   111.14842536   177.44879000
 H     31  29  28     1.101194690333   110.67127936   297.10409713
 H     34  33  19     1.096225528806   110.60767253   353.16639371
 H     34  33  19     1.100996409151   106.67188500   237.62794873
 H     35  34  33     1.098548283223   108.75836434    63.65824864
 H     35  34  33     1.102720037179   109.59629772   307.62118937
 H     36  35  34     1.104189802182   109.20723532   311.54557596
 H     36  35  34     1.100660754267   109.68741333   195.43694425
 H     37  36  35     1.106800093576   108.25341422    73.71335448
 H     37  36  35     1.102789406415   108.62478318   317.80998814
 H     38  37  36     1.105202277245   109.03301754   172.52485980
 H     38  37  36     1.103217856071   108.94878819    57.84217396
 H     39  38  37     1.102498507442   109.73178278    61.92507124
 H     39  38  37     1.104757764574   109.28217579   306.06049980
 H     40  39  38     1.105542425219   109.21174882    57.99003196
 H     40  39  38     1.104327088942   109.30130740   302.63345447
 H     41  40  39     1.103037519271   109.07198204    58.19903849
 H     41  40  39     1.103311474545   109.14500294   302.85543973
 H     42  41  40     1.099082467596   111.59730544   180.07028655
 H     42  41  40     1.100578630893   111.10842149   300.26638293
 H     42  41  40     1.100832782971   111.11886479    59.90052722
 H     44  18  17     0.984840069592   109.42295439    60.28842295
 H     46  14  13     1.097988519472   107.01684986   176.95611676
 H     46  14  13     1.098643273425   108.38075978    62.63360863
 H     47  46  14     1.098381169839   110.76005358   180.85150255
 H     47  46  14     1.101553445349   111.50938196   300.57770939
 H     47  46  14     1.100307200846   111.74623006    61.26234182
 H     49  11  10     1.101209330198   105.74413007   176.23886189
 H     50  49  11     1.096194261932   111.43470209    61.86314991
 H     50  49  11     1.098714359620   110.52189956   181.24813261
 H     50  49  11     1.101490799769   110.81851939   299.96896941
 H     51  49  11     1.098490320491   111.98438536   304.93885324
 H     51  49  11     1.100884465925   110.85483669    65.07852413
 H     51  49  11     1.099171480983   110.27981013   184.12196130

---------------------------
INTERNAL COORDINATES (A.U.)
---------------------------
 O      0   0   0     0.000000000000     0.00000000     0.00000000
 C      1   0   0     2.324967510367     0.00000000     0.00000000
 C      2   1   0     2.935666782388   122.14810131     0.00000000
 C      3   2   1     2.886922375092   111.05756359   344.91029247
 C      4   3   2     2.898936503144   102.43857789   273.22881669
 C      5   4   3     2.897131157842   103.30517117   319.40011117
 N      6   5   4     2.797162804301   103.66330453    29.01195785
 C      7   6   5     2.566928677114   126.12883587   179.93201279
 O      8   7   6     2.351724714082   122.11848497   192.00160913
 N      2   1   3     2.565556247448   124.56500159   177.22486370
 C     10   2   1     2.749849846525   123.13546321     4.48808580
 C     11  10   2     2.912833867507   109.63634240   226.98149646
 N     12  11  10     2.572125274594   114.51704610    41.47058444
 C     13  12  11     2.771680140729   123.08413260   174.81423101
 C     14  13  12     2.931466919089   111.47303862    59.12755601
 N     15  14  13     2.582187659804   114.19574513    34.05226876
 C     16  15  14     2.741556715345   122.92310876   192.89807184
 C     17  16  15     2.905080511872   110.27306101   103.22512438
 C     18  17  16     2.898845863392   111.29647244   170.85896883
 C     19  18  17     2.906135999258   113.88945651   296.26422362
 N     20  19  18     2.592775911856   115.45180803   315.87861613
 C     21  20  19     2.770021049680   120.95051753   176.05168603
 C     22  21  20     2.901355415007   108.13557031   206.36570748
 N     23  22  21     2.597036818770   113.13018371   294.77864069
 C     24  23  22     2.742417578034   125.99237703   171.24665659
 C     25  24  23     2.911072285688   112.32990079    48.44114137
 O     23  22  21     2.315547879077   122.09738771   115.24794605
 C     22  21  20     2.905608055951   111.27506959    81.23391987
 C     28  22  21     2.901920143278   114.54363466   177.05897906
 C     29  28  22     2.898140889782   112.03867162    59.39625716
 C     29  28  22     2.895919813095   109.72496173   183.30054954
 O     20  19  18     2.317159740535   122.14760284   138.72399532
 C     19  18  17     2.917590043559   112.83129087   172.57522469
 C     33  19  18     2.869420973823   118.34626492    46.42776361
 C     34  33  19     2.904178540299   112.93849094   117.26078813
 C     35  34  33     2.901659237219   111.59071080   186.19037255
 C     36  35  34     2.900150905354   112.75263822    73.04125492
 C     37  36  35     2.893062759359   115.25772392   196.36931136
 C     38  37  36     2.890161504471   114.69092514   294.59726701
 C     39  38  37     2.891180831214   112.86476299   184.07207873
 C     40  39  38     2.892483529786   113.72459468   180.17511587
 C     41  40  39     2.890599187640   113.05573307   180.48761701
 O     33  19  18     2.298291934624   120.28067001   223.97980597
 O     18  17  16     2.678724759279   112.83349784   291.34068613
 O     15  14  13     2.314321504346   121.61967930   211.20579337
 C     14  13  12     2.895806965506   112.99849383   292.93464103
 C     46  14  13     2.886338260880   112.69235487   299.40962285
 O     12  11  10     2.334031116918   122.80321332   221.27193167
 C     11  10   2     2.914207144479   112.92490657   100.29268518
 C     49  11  10     2.886752166710   112.03816623    58.56927323
 C     49  11  10     2.893648764785   110.37350610   294.29491281
 H      3   2   1     2.080696091398   107.37295069   109.50888955
 H      4   3   2     2.077728915224   109.94298469   155.16285654
 H      4   3   2     2.069480073695   110.81124520    33.95323367
 H      5   4   3     2.077138667139   109.48641181    77.14140739
 H      5   4   3     2.072341653690   113.50229323   198.06259714
 H      6   5   4     2.077882232806   112.83085142   148.50686101
[...]
freq.      79.30  E(vib)   ...       0.49 
freq.      85.36  E(vib)   ...       0.48 
freq.      90.73  E(vib)   ...       0.47 
freq.     100.56  E(vib)   ...       0.46 
freq.     103.18  E(vib)   ...       0.46 
freq.     107.83  E(vib)   ...       0.45 
freq.     113.84  E(vib)   ...       0.44 
freq.     117.43  E(vib)   ...       0.44 
freq.     121.94  E(vib)   ...       0.44 
freq.     131.15  E(vib)   ...       0.42 
freq.     132.54  E(vib)   ...       0.42 
freq.     135.68  E(vib)   ...       0.42 
freq.     140.59  E(vib)   ...       0.41 
freq.     147.09  E(vib)   ...       0.41 
freq.     150.96  E(vib)   ...       0.40 
freq.     158.07  E(vib)   ...       0.39 
freq.     162.55  E(vib)   ...       0.39 
freq.     164.66  E(vib)   ...       0.39 
freq.     181.74  E(vib)   ...       0.37 
freq.     185.99  E(vib)   ...       0.37 
freq.     200.13  E(vib)   ...       0.35 
freq.     203.79  E(vib)   ...       0.35 
freq.     209.00  E(vib)   ...       0.34 
freq.     215.15  E(vib)   ...       0.34 
freq.     221.99  E(vib)   ...       0.33 
freq.     224.20  E(vib)   ...       0.33 
freq.     228.21  E(vib)   ...       0.32 
freq.     231.94  E(vib)   ...       0.32 
freq.     233.72  E(vib)   ...       0.32 
freq.     236.55  E(vib)   ...       0.32 
freq.     244.81  E(vib)   ...       0.31 
freq.     245.32  E(vib)   ...       0.31 
freq.     250.58  E(vib)   ...       0.30 
freq.     251.23  E(vib)   ...       0.30 
freq.     261.93  E(vib)   ...       0.29 
freq.     265.21  E(vib)   ...       0.29 
freq.     280.19  E(vib)   ...       0.28 
freq.     282.86  E(vib)   ...       0.28 
freq.     284.49  E(vib)   ...       0.28 
freq.     296.08  E(vib)   ...       0.27 
freq.     302.94  E(vib)   ...       0.26 
freq.     308.02  E(vib)   ...       0.26 
freq.     318.51  E(vib)   ...       0.25 
freq.     327.43  E(vib)   ...       0.24 
freq.     334.76  E(vib)   ...       0.24 
freq.     341.45  E(vib)   ...       0.23 
freq.     347.14  E(vib)   ...       0.23 
freq.     349.61  E(vib)   ...       0.23 
freq.     360.62  E(vib)   ...       0.22 
freq.     373.81  E(vib)   ...       0.21 
freq.     380.03  E(vib)   ...       0.21 
freq.     384.00  E(vib)   ...       0.20 
freq.     397.88  E(vib)   ...       0.20 
freq.     408.60  E(vib)   ...       0.19 
freq.     415.58  E(vib)   ...       0.18 
freq.     424.02  E(vib)   ...       0.18 
freq.     427.23  E(vib)   ...       0.18 
freq.     428.96  E(vib)   ...       0.18 
freq.     438.67  E(vib)   ...       0.17 
freq.     449.24  E(vib)   ...       0.17 
freq.     454.56  E(vib)   ...       0.16 
freq.     468.03  E(vib)   ...       0.16 
freq.     489.32  E(vib)   ...       0.15 
freq.     495.33  E(vib)   ...       0.14 
freq.     510.36  E(vib)   ...       0.14 
freq.     516.39  E(vib)   ...       0.13 
freq.     523.08  E(vib)   ...       0.13 
freq.     536.11  E(vib)   ...       0.12 
freq.     544.83  E(vib)   ...       0.12 
freq.     550.42  E(vib)   ...       0.12 
freq.     556.33  E(vib)   ...       0.12 
freq.     559.70  E(vib)   ...       0.12 
freq.     584.81  E(vib)   ...       0.11 
freq.     602.11  E(vib)   ...       0.10 
freq.     605.16  E(vib)   ...       0.10 
freq.     614.67  E(vib)   ...       0.10 
freq.     631.96  E(vib)   ...       0.09 
freq.     646.62  E(vib)   ...       0.09 
freq.     668.22  E(vib)   ...       0.08 
freq.     681.10  E(vib)   ...       0.08 
freq.     697.86  E(vib)   ...       0.07 
freq.     706.65  E(vib)   ...       0.07 
freq.     711.30  E(vib)   ...       0.07 
freq.     727.82  E(vib)   ...       0.06 
freq.     731.63  E(vib)   ...       0.06 
freq.     734.98  E(vib)   ...       0.06 
freq.     736.20  E(vib)   ...       0.06 
freq.     739.92  E(vib)   ...       0.06 
freq.     750.17  E(vib)   ...       0.06 
freq.     754.54  E(vib)   ...       0.06 
freq.     778.85  E(vib)   ...       0.05 
freq.     791.82  E(vib)   ...       0.05 
freq.     798.06  E(vib)   ...       0.05 
freq.     810.67  E(vib)   ...       0.05 
freq.     816.19  E(vib)   ...       0.05 
freq.     819.47  E(vib)   ...       0.05 
freq.     830.96  E(vib)   ...       0.04 
freq.     832.57  E(vib)   ...       0.04 
freq.     851.08  E(vib)   ...       0.04 
freq.     854.12  E(vib)   ...       0.04 
freq.     857.32  E(vib)   ...       0.04 
freq.     862.90  E(vib)   ...       0.04 
freq.     869.10  E(vib)   ...       0.04 
freq.     869.88  E(vib)   ...       0.04 
freq.     871.62  E(vib)   ...       0.04 
freq.     882.24  E(vib)   ...       0.04 
freq.     899.08  E(vib)   ...       0.03 
freq.     900.08  E(vib)   ...       0.03 
freq.     904.21  E(vib)   ...       0.03 
freq.     911.49  E(vib)   ...       0.03 
freq.     912.17  E(vib)   ...       0.03 
freq.     916.98  E(vib)   ...       0.03 
freq.     923.69  E(vib)   ...       0.03 
freq.     931.67  E(vib)   ...       0.03 
freq.     939.49  E(vib)   ...       0.03 
freq.     942.66  E(vib)   ...       0.03 
freq.     945.09  E(vib)   ...       0.03 
freq.     946.97  E(vib)   ...       0.03 
freq.     949.42  E(vib)   ...       0.03 
freq.     954.04  E(vib)   ...       0.03 
freq.     956.46  E(vib)   ...       0.03 
freq.     960.25  E(vib)   ...       0.03 
freq.     970.42  E(vib)   ...       0.03 
freq.     992.31  E(vib)   ...       0.02 
freq.    1002.57  E(vib)   ...       0.02 
freq.    1005.62  E(vib)   ...       0.02 
freq.    1006.94  E(vib)   ...       0.02 
freq.    1018.12  E(vib)   ...       0.02 
freq.    1024.04  E(vib)   ...       0.02 
freq.    1034.62  E(vib)   ...       0.02 
freq.    1036.62  E(vib)   ...       0.02 
freq.    1038.80  E(vib)   ...       0.02 
freq.    1040.49  E(vib)   ...       0.02 
freq.    1046.10  E(vib)   ...       0.02 
freq.    1048.55  E(vib)   ...       0.02 
freq.    1055.81  E(vib)   ...       0.02 
freq.    1057.81  E(vib)   ...       0.02 
freq.    1061.78  E(vib)   ...       0.02 
freq.    1071.15  E(vib)   ...       0.02 
freq.    1072.16  E(vib)   ...       0.02 
freq.    1075.16  E(vib)   ...       0.02 
freq.    1088.38  E(vib)   ...       0.02 
freq.    1089.63  E(vib)   ...       0.02 
freq.    1095.47  E(vib)   ...       0.02 
freq.    1099.36  E(vib)   ...       0.02 
freq.    1106.28  E(vib)   ...       0.02 
freq.    1110.80  E(vib)   ...       0.01 
freq.    1120.47  E(vib)   ...       0.01 
freq.    1122.65  E(vib)   ...       0.01 
freq.    1124.09  E(vib)   ...       0.01 
freq.    1130.13  E(vib)   ...       0.01 
freq.    1134.81  E(vib)   ...       0.01 
freq.    1146.56  E(vib)   ...       0.01 
freq.    1158.60  E(vib)   ...       0.01 
freq.    1159.92  E(vib)   ...       0.01 
freq.    1165.49  E(vib)   ...       0.01 
freq.    1166.61  E(vib)   ...       0.01 
freq.    1173.52  E(vib)   ...       0.01 
freq.    1177.44  E(vib)   ...       0.01 
freq.    1182.73  E(vib)   ...       0.01 
freq.    1189.92  E(vib)   ...       0.01 
freq.    1198.06  E(vib)   ...       0.01 
freq.    1198.83  E(vib)   ...       0.01 
freq.    1201.61  E(vib)   ...       0.01 
freq.    1210.08  E(vib)   ...       0.01 
freq.    1225.98  E(vib)   ...       0.01 
freq.    1228.56  E(vib)   ...       0.01 
freq.    1231.63  E(vib)   ...       0.01 
freq.    1232.73  E(vib)   ...       0.01 
freq.    1232.82  E(vib)   ...       0.01 
freq.    1239.03  E(vib)   ...       0.01 
freq.    1245.14  E(vib)   ...       0.01 
freq.    1247.22  E(vib)   ...       0.01 
freq.    1249.24  E(vib)   ...       0.01 
freq.    1251.92  E(vib)   ...       0.01 
freq.    1257.11  E(vib)   ...       0.01 
freq.    1262.66  E(vib)   ...       0.01 
freq.    1265.24  E(vib)   ...       0.01 
freq.    1267.16  E(vib)   ...       0.01 
freq.    1268.37  E(vib)   ...       0.01 
freq.    1277.29  E(vib)   ...       0.01 
freq.    1282.68  E(vib)   ...       0.01 
freq.    1283.59  E(vib)   ...       0.01 
freq.    1289.09  E(vib)   ...       0.01 
freq.    1289.60  E(vib)   ...       0.01 
freq.    1290.04  E(vib)   ...       0.01 
freq.    1293.55  E(vib)   ...       0.01 
freq.    1301.41  E(vib)   ...       0.01 
freq.    1302.94  E(vib)   ...       0.01 
freq.    1303.10  E(vib)   ...       0.01 
freq.    1305.56  E(vib)   ...       0.01 
freq.    1308.17  E(vib)   ...       0.01 
freq.    1311.54  E(vib)   ...       0.01 
freq.    1312.35  E(vib)   ...       0.01 
freq.    1315.15  E(vib)   ...       0.01 
freq.    1315.50  E(vib)   ...       0.01 
freq.    1319.40  E(vib)   ...       0.01 
freq.    1328.70  E(vib)   ...       0.01 
freq.    1329.79  E(vib)   ...       0.01 
freq.    1331.16  E(vib)   ...       0.01 
freq.    1333.98  E(vib)   ...       0.01 
freq.    1336.51  E(vib)   ...       0.01 
freq.    1340.04  E(vib)   ...       0.01 
freq.    1344.93  E(vib)   ...       0.01 
freq.    1346.86  E(vib)   ...       0.01 
freq.    1350.22  E(vib)   ...       0.01 
freq.    1351.33  E(vib)   ...       0.01 
freq.    1352.25  E(vib)   ...       0.01 
freq.    1353.77  E(vib)   ...       0.01 
freq.    1364.66  E(vib)   ...       0.01 
freq.    1365.11  E(vib)   ...       0.01 
freq.    1371.82  E(vib)   ...       0.01 
freq.    1373.61  E(vib)   ...       0.01 
freq.    1387.95  E(vib)   ...       0.00 
freq.    1400.52  E(vib)   ...       0.00 
freq.    1418.82  E(vib)   ...       0.00 
freq.    1423.57  E(vib)   ...       0.00 
freq.    1426.22  E(vib)   ...       0.00 
freq.    1427.86  E(vib)   ...       0.00 
freq.    1428.58  E(vib)   ...       0.00 
freq.    1433.08  E(vib)   ...       0.00 
freq.    1434.63  E(vib)   ...       0.00 
freq.    1435.45  E(vib)   ...       0.00 
freq.    1438.54  E(vib)   ...       0.00 
freq.    1438.62  E(vib)   ...       0.00 
freq.    1441.46  E(vib)   ...       0.00 
freq.    1442.38  E(vib)   ...       0.00 
freq.    1444.32  E(vib)   ...       0.00 
freq.    1445.75  E(vib)   ...       0.00 
freq.    1446.95  E(vib)   ...       0.00 
freq.    1450.91  E(vib)   ...       0.00 
freq.    1451.54  E(vib)   ...       0.00 
freq.    1452.10  E(vib)   ...       0.00 
freq.    1453.32  E(vib)   ...       0.00 
freq.    1454.62  E(vib)   ...       0.00 
freq.    1456.91  E(vib)   ...       0.00 
freq.    1457.48  E(vib)   ...       0.00 
freq.    1458.80  E(vib)   ...       0.00 
freq.    1459.23  E(vib)   ...       0.00 
freq.    1460.35  E(vib)   ...       0.00 
freq.    1462.87  E(vib)   ...       0.00 
freq.    1463.05  E(vib)   ...       0.00 
freq.    1465.26  E(vib)   ...       0.00 
freq.    1470.88  E(vib)   ...       0.00 
freq.    1478.21  E(vib)   ...       0.00 
freq.    1492.59  E(vib)   ...       0.00 
freq.    1499.48  E(vib)   ...       0.00 
freq.    1535.39  E(vib)   ...       0.00 
freq.    1613.14  E(vib)   ...       0.00 
freq.    1662.26  E(vib)   ...       0.00 
freq.    1681.74  E(vib)   ...       0.00 
freq.    1688.17  E(vib)   ...       0.00 
freq.    1708.07  E(vib)   ...       0.00 
freq.    1708.86  E(vib)   ...       0.00 
freq.    1727.11  E(vib)   ...       0.00 
freq.    2812.28  E(vib)   ...       0.00 
freq.    2905.89  E(vib)   ...       0.00 
freq.    2920.14  E(vib)   ...       0.00 
freq.    2922.29  E(vib)   ...       0.00 
freq.    2925.29  E(vib)   ...       0.00 
freq.    2932.93  E(vib)   ...       0.00 
freq.    2939.54  E(vib)   ...       0.00 
freq.    2940.78  E(vib)   ...       0.00 
freq.    2942.97  E(vib)   ...       0.00 
freq.    2950.88  E(vib)   ...       0.00 
freq.    2953.39  E(vib)   ...       0.00 
freq.    2956.20  E(vib)   ...       0.00 
freq.    2956.95  E(vib)   ...       0.00 
freq.    2958.09  E(vib)   ...       0.00 
freq.    2958.19  E(vib)   ...       0.00 
freq.    2959.11  E(vib)   ...       0.00 
freq.    2959.34  E(vib)   ...       0.00 
freq.    2960.98  E(vib)   ...       0.00 
freq.    2961.37  E(vib)   ...       0.00 
freq.    2961.99  E(vib)   ...       0.00 
freq.    2965.61  E(vib)   ...       0.00 
freq.    2969.41  E(vib)   ...       0.00 
freq.    2974.46  E(vib)   ...       0.00 
freq.    2975.98  E(vib)   ...       0.00 
freq.    2976.79  E(vib)   ...       0.00 
freq.    2981.46  E(vib)   ...       0.00 
freq.    2981.57  E(vib)   ...       0.00 
freq.    2983.53  E(vib)   ...       0.00 
freq.    2990.72  E(vib)   ...       0.00 
freq.    2991.16  E(vib)   ...       0.00 
freq.    2994.02  E(vib)   ...       0.00 
freq.    2997.07  E(vib)   ...       0.00 
freq.    2997.63  E(vib)   ...       0.00 
freq.    2997.93  E(vib)   ...       0.00 
freq.    3002.28  E(vib)   ...       0.00 
freq.    3009.83  E(vib)   ...       0.00 
freq.    3010.63  E(vib)   ...       0.00 
freq.    3017.64  E(vib)   ...       0.00 
freq.    3017.83  E(vib)   ...       0.00 
freq.    3021.00  E(vib)   ...       0.00 
freq.    3022.76  E(vib)   ...       0.00 
freq.    3024.00  E(vib)   ...       0.00 
freq.    3024.95  E(vib)   ...       0.00 
freq.    3028.26  E(vib)   ...       0.00 
freq.    3028.60  E(vib)   ...       0.00 
freq.    3031.33  E(vib)   ...       0.00 
freq.    3031.49  E(vib)   ...       0.00 
freq.    3037.53  E(vib)   ...       0.00 
freq.    3041.14  E(vib)   ...       0.00 
freq.    3042.00  E(vib)   ...       0.00 
freq.    3046.43  E(vib)   ...       0.00 
freq.    3047.78  E(vib)   ...       0.00 
freq.    3048.34  E(vib)   ...       0.00 
freq.    3051.67  E(vib)   ...       0.00 
freq.    3060.94  E(vib)   ...       0.00 
freq.    3064.48  E(vib)   ...       0.00 
freq.    3071.10  E(vib)   ...       0.00 
freq.    3098.70  E(vib)   ...       0.00 
freq.    3205.94  E(vib)   ...       0.00 
freq.    3471.01  E(vib)   ...       0.00 
freq.    3476.51  E(vib)   ...       0.00 
freq.    3487.27  E(vib)   ...       0.00 
freq.    3487.73  E(vib)   ...       0.00 
freq.    3513.11  E(vib)   ...       0.00 

------------
INNER ENERGY
------------

The inner energy is: U= E(el) + E(ZPE) + E(vib) + E(rot) + E(trans)
    E(el)   - is the total energy from the electronic structure calculation
              = E(kin-el) + E(nuc-el) + E(el-el) + E(nuc-nuc)
    E(ZPE)  - the the zero temperature vibrational energy from the frequency calculation
    E(vib)  - the the finite temperature correction to E(ZPE) due to population
              of excited vibrational states
    E(rot)  - is the rotational thermal energy
    E(trans)- is the translational thermal energy

Summary of contributions to the inner energy U:
Electronic energy                ...  -2380.06573613 Eh
Zero point energy                ...      0.97705676 Eh     613.11 kcal/mol
Thermal vibrational correction   ...      0.05575074 Eh      34.98 kcal/mol
Thermal rotational correction    ...      0.00141627 Eh       0.89 kcal/mol
Thermal translational correction ...      0.00141627 Eh       0.89 kcal/mol
-----------------------------------------------------------------------
Total thermal energy                  -2379.03009609 Eh


Summary of corrections to the electronic energy:
(perhaps to be used in another calculation)
Total thermal correction                  0.05858329 Eh      36.76 kcal/mol
Non-thermal (ZPE) correction              0.97705676 Eh     613.11 kcal/mol
-----------------------------------------------------------------------
Total correction                          1.03564004 Eh     649.87 kcal/mol


--------
ENTHALPY
--------

The enthalpy is H = U + kB*T
                kB is Boltzmann's constant
Total free energy                 ...  -2379.03009609 Eh 
Thermal Enthalpy correction       ...      0.00094421 Eh       0.59 kcal/mol
-----------------------------------------------------------------------
Total Enthalpy                    ...  -2379.02915188 Eh


Note: Only C1 symmetry has been detected, increase convergence thresholds 
      if your molecule has a higher symmetry. Symmetry factor of 1.0 is   
      used for the rotational entropy correction. 
 

Note: Rotational entropy computed according to Herzberg 
Infrared and Raman Spectra, Chapter V,1, Van Nostrand Reinhold, 1945 
Point Group:  C1, Symmetry Number:   1  
Rotational constants in cm-1:     0.001904     0.001644     0.001247 

Vibrational entropy computed according to the QRRHO of S. Grimme
Chem.Eur.J. 2012 18 9955


-------
ENTROPY
-------

The entropy contributions are T*S = T*(S(el)+S(vib)+S(rot)+S(trans))
     S(el)   - electronic entropy
     S(vib)  - vibrational entropy
     S(rot)  - rotational entropy
     S(trans)- translational entropy
The entropies will be listed as mutliplied by the temperature to get
units of energy

Electronic entropy                ...      0.00000000 Eh      0.00 kcal/mol
Vibrational entropy               ...      0.10254029 Eh     64.34 kcal/mol
Rotational entropy                ...      0.01865108 Eh     11.70 kcal/mol
Translational entropy             ...      0.02166895 Eh     13.60 kcal/mol
-----------------------------------------------------------------------
Final entropy term                ...      0.14286032 Eh     89.65 kcal/mol

In case the symmetry of your molecule has not been determined correctly
or in case you have a reason to use a different symmetry number we print 
out the resulting rotational entropy values for sn=1,12 :
 --------------------------------------------------------
|  sn= 1 | S(rot)=       0.01865108 Eh     11.70 kcal/mol|
|  sn= 2 | S(rot)=       0.01799663 Eh     11.29 kcal/mol|
|  sn= 3 | S(rot)=       0.01761379 Eh     11.05 kcal/mol|
|  sn= 4 | S(rot)=       0.01734217 Eh     10.88 kcal/mol|
|  sn= 5 | S(rot)=       0.01713148 Eh     10.75 kcal/mol|
|  sn= 6 | S(rot)=       0.01695934 Eh     10.64 kcal/mol|
|  sn= 7 | S(rot)=       0.01681379 Eh     10.55 kcal/mol|
|  sn= 8 | S(rot)=       0.01668771 Eh     10.47 kcal/mol|
|  sn= 9 | S(rot)=       0.01657650 Eh     10.40 kcal/mol|
|  sn=10 | S(rot)=       0.01647703 Eh     10.34 kcal/mol|
|  sn=11 | S(rot)=       0.01638704 Eh     10.28 kcal/mol|
|  sn=12 | S(rot)=       0.01630488 Eh     10.23 kcal/mol|
 --------------------------------------------------------


-------------------
GIBBS FREE ENERGY
-------------------

The Gibbs free energy is G = H - T*S

Total enthalpy                    ...  -2379.02915188 Eh 
Total entropy correction          ...     -0.14286032 Eh    -89.65 kcal/mol
-----------------------------------------------------------------------
Final Gibbs free energy         ...  -2379.17201220 Eh

For completeness - the Gibbs free energy minus the electronic energy
G-E(el)                           ...      0.89372393 Eh    560.82 kcal/mol

--------------------------------------------------------------------------
WARNING: No preset parameters were found for the device that Open MPI
detected:

  Local host:            eu-g1-019-1
  Device name:           mlx5_0
  Device vendor ID:      0x02c9
  Device vendor part ID: 4123

Default device parameters will be used, which may result in lower
performance.  You can edit any of the files specified by the
btl_openib_device_param_files MCA parameter to set values for your
device.

NOTE: You can turn off this warning by setting the MCA parameter
      btl_openib_warn_no_device_params_found to 0.
--------------------------------------------------------------------------
--------------------------------------------------------------------------
WARNING: There was an error initializing an OpenFabrics device.

  Local host:   eu-g1-019-1
  Local device: mlx5_0
--------------------------------------------------------------------------

Timings for individual modules:

Sum of individual times         ...    25889.357 sec (= 431.489 min)
GTO integral calculation        ...       12.317 sec (=   0.205 min)   0.0 %
SCF iterations                  ...      375.468 sec (=   6.258 min)   1.5 %
SCF Gradient evaluation         ...       72.845 sec (=   1.214 min)   0.3 %
Geometry relaxation             ...        4.031 sec (=   0.067 min)   0.0 %
Analytical frequency calculation...    25424.695 sec (= 423.745 min)  98.2 %
                             ****ORCA TERMINATED NORMALLY****
TOTAL RUN TIME: 0 days 7 hours 11 minutes 47 seconds 463 msec
