
                                 *****************
                                 * O   R   C   A *
                                 *****************

           --- An Ab Initio, DFT and Semiempirical electronic structure package ---

                  #######################################################
                  #                        -***-                        #
                  #          Department of theory and spectroscopy      #
                  #               Directorship: Frank Neese             #
                  #        Max Planck Institute fuer Kohlenforschung    #
                  #                Kaiser Wilhelm Platz 1               #
                  #                 D-45470 Muelheim/Ruhr               #
                  #                      Germany                        #
                  #                                                     #
                  #                  All rights reserved                #
                  #                        -***-                        #
                  #######################################################


                         Program Version 4.2.0 -  RELEASE  -


 With contributions from (in alphabetic order):
   Daniel Aravena         : Magnetic Suceptibility
   Michael Atanasov       : Ab Initio Ligand Field Theory (pilot matlab implementation)
   Alexander A. Auer      : GIAO ZORA, VPT2
   Ute Becker             : Parallelization
   Giovanni Bistoni       : ED, misc. LED, open-shell LED, HFLED
   Martin Brehm           : Molecular dynamics
   Dmytro Bykov           : SCF Hessian
   Vijay G. Chilkuri      : MRCI spin determinant printing, contributions to CSF-ICE
   Dipayan Datta          : RHF DLPNO-CCSD density
   Achintya Kumar Dutta   : EOM-CC, STEOM-CC
   Dmitry Ganyushin       : Spin-Orbit,Spin-Spin,Magnetic field MRCI
   Miquel Garcia          : C-PCM Hessian, Gaussian charge scheme
   Yang Guo               : DLPNO-NEVPT2, CIM, IAO-localization
   Andreas Hansen         : Spin unrestricted coupled pair/coupled cluster methods
   Benjamin Helmich-Paris : CASSCF linear response (MC-RPA)
   Lee Huntington         : MR-EOM, pCC
   Robert Izsak           : Overlap fitted RIJCOSX, COSX-SCS-MP3, EOM
   Christian Kollmar      : KDIIS, OOCD, Brueckner-CCSD(T), CCSD density
   Simone Kossmann        : Meta GGA functionals, TD-DFT gradient, OOMP2, MP2 Hessian
   Martin Krupicka        : AUTO-CI
   Lucas Lang             : DCDCAS
   Dagmar Lenk            : GEPOL surface, SMD
   Dimitrios Liakos       : Extrapolation schemes; Compound Job, initial MDCI parallelization
   Dimitrios Manganas     : Further ROCIS development; embedding schemes
   Dimitrios Pantazis     : SARC Basis sets
   Taras Petrenko         : DFT Hessian,TD-DFT gradient, ASA, ECA, R-Raman, ABS, FL, XAS/XES, NRVS
   Peter Pinski           : DLPNO-MP2, DLPNO-MP2 Gradient
   Christoph Reimann      : Effective Core Potentials
   Marius Retegan         : Local ZFS, SOC
   Christoph Riplinger    : Optimizer, TS searches, QM/MM, DLPNO-CCSD(T), (RO)-DLPNO pert. Triples
   Tobias Risthaus        : Range-separated hybrids, TD-DFT gradient, RPA, STAB
   Michael Roemelt        : Original ROCIS implementation
   Masaaki Saitow         : Open-shell DLPNO-CCSD energy and density
   Barbara Sandhoefer     : DKH picture change effects
   Avijit Sen             : IP-ROCIS
   Kantharuban Sivalingam : CASSCF convergence, NEVPT2, FIC-MRCI
   Bernardo de Souza      : ESD, SOC TD-DFT
   Georgi Stoychev        : AutoAux, RI-MP2 NMR
   Willem Van den Heuvel  : Paramagnetic NMR
   Boris Wezisla          : Elementary symmetry handling
   Frank Wennmohs         : Technical directorship


 We gratefully acknowledge several colleagues who have allowed us to
 interface, adapt or use parts of their codes:
   Stefan Grimme, W. Hujo, H. Kruse,             : VdW corrections, initial TS optimization,
                  C. Bannwarth                     DFT functionals, gCP, sTDA/sTD-DF
   Ed Valeev, F. Pavosevic, A. Kumar             : LibInt (2-el integral package), F12 methods
   Garnet Chan, S. Sharma, J. Yang, R. Olivares  : DMRG
   Ulf Ekstrom                                   : XCFun DFT Library
   Mihaly Kallay                                 : mrcc  (arbitrary order and MRCC methods)
   Andreas Klamt, Michael Diedenhofen            : otool_cosmo (COSMO solvation model)
   Jiri Pittner, Ondrej Demel                    : Mk-CCSD
   Frank Weinhold                                : gennbo (NPA and NBO analysis)
   Christopher J. Cramer and Donald G. Truhlar   : smd solvation model
   Lars Goerigk                                  : TD-DFT with DH, B97 family of functionals
   V. Asgeirsson, H. Jonsson                     : NEB implementation
   FAccTs GmbH                                   : IRC, NEB, NEB-TS, Multilevel, MM, QM/MM, CI optimization
   S Lehtola, MJT Oliveira, MAL Marques          : LibXC Library


 Your calculation uses the libint2 library for the computation of 2-el integrals
 For citations please refer to: http://libint.valeyev.net

 Your ORCA version has been built with support for libXC version: 4.2.3
 For citations please refer to: https://tddft.org/programs/libxc/

 This ORCA versions uses:
   CBLAS   interface :  Fast vector & matrix operations
   LAPACKE interface :  Fast linear algebra routines
   SCALAPACK package :  Parallel linear algebra routines




***************************************
The coordinates will be read from file: 34.xyz
***************************************


Your calculation utilizes the atom-pairwise dispersion correction
with the Becke-Johnson damping scheme (D3BJ)
Cite in your paper:
S.Grimme, S.Ehrlich, L.Goerigk, J Comput Chem, (2011), 32, 1456–1465 
S.Grimme, J.Antony, S.Ehrlich and H.Krieg, J.Chem.Phys., 132, (2010), 154104 
   

----- Orbital basis set information -----
Your calculation utilizes the basis: def2-TZVP
   F. Weigend and R. Ahlrichs, Phys. Chem. Chem. Phys. 7, 3297 (2005).

----- AuxJ basis set information -----
Your calculation utilizes the auxiliary basis: def2/J
   F. Weigend, Phys. Chem. Chem. Phys. 8, 1057 (2006).

================================================================================
                                        WARNINGS
                       Please study these warnings very carefully!
================================================================================


WARNING: Geometry Optimization
  ===> : Switching off AutoStart
         For restart on a previous wavefunction, please use MOREAD

INFO   : the flag for use of LIBINT has been found!

================================================================================
                                       INPUT FILE
================================================================================
NAME = 34.inp
|  1> !RI BP86 def2-tzvp def2/J D3BJ TIGHTSCF TightOpt Grid5 FinalGrid6 freq
|  2> %maxcore 4000
|  3> %pal nprocs 24
|  4> end
|  5> * xyzfile 0 1 34.xyz 
|  6> 
|  7>                          ****END OF INPUT****
================================================================================

                       *****************************
                       * Geometry Optimization Run *
                       *****************************

Geometry optimization settings:
Update method            Update   .... BFGS
Choice of coordinates    CoordSys .... Z-matrix Internals
Initial Hessian          InHess   .... Almoef's Model

Convergence Tolerances:
Energy Change            TolE     ....  1.0000e-06 Eh
Max. Gradient            TolMAXG  ....  1.0000e-04 Eh/bohr
RMS Gradient             TolRMSG  ....  3.0000e-05 Eh/bohr
Max. Displacement        TolMAXD  ....  1.0000e-03 bohr
RMS Displacement         TolRMSD  ....  6.0000e-04 bohr
Strict Convergence                ....  False
------------------------------------------------------------------------------
                        ORCA OPTIMIZATION COORDINATE SETUP
------------------------------------------------------------------------------

The optimization will be done in new redundant internal coordinates
Making redundant internal coordinates   ...  (new redundants) done
Evaluating the initial hessian          ...  (Almloef) done
Evaluating the coordinates              ...  done
Calculating the B-matrix                .... done
Calculating the G-matrix                .... done
Diagonalizing the G-matrix              .... done
Small eigenvalue found = 8.294e-04
Small eigenvalue found = 1.569e-03
Small eigenvalue found = 2.934e-03
Small eigenvalue found = 4.452e-03
Small eigenvalue found = 4.867e-03
Small eigenvalue found = 5.822e-03
Small eigenvalue found = 6.165e-03
Small eigenvalue found = 6.892e-03
Small eigenvalue found = 9.386e-03
Small eigenvalue found = 1.094e-02
Small eigenvalue found = 1.236e-02
Small eigenvalue found = 1.317e-02
Small eigenvalue found = 1.648e-02
Small eigenvalue found = 1.758e-02
Small eigenvalue found = 1.981e-02
Small eigenvalue found = 2.274e-02
Small eigenvalue found = 2.576e-02
Small eigenvalue found = 2.811e-02
Small eigenvalue found = 2.928e-02
The first mode is                       ....  327
The number of degrees of freedom        ....  339

    -----------------------------------------------------------------
                    Redundant Internal Coordinates


    -----------------------------------------------------------------
         Definition                    Initial Value    Approx d2E/dq
    -----------------------------------------------------------------
      1. B(C   1,O   0)                  1.2373         0.980751   
      2. B(C   2,C   1)                  1.5271         0.377560   
      3. B(C   3,C   2)                  1.5424         0.357002   
      4. B(C   4,C   3)                  1.5338         0.368394   
      5. B(C   5,C   4)                  1.5316         0.371449   
      6. B(N   6,C   5)                  1.4786         0.404059   
      7. B(N   6,C   2)                  1.4735         0.411703   
      8. B(C   7,N   6)                  1.3596         0.625801   
      9. B(O   8,C   7)                  1.2418         0.964436   
     10. B(N   9,C   1)                  1.3556         0.634980   
     11. B(C  10,N   9)                  1.4626         0.428621   
     12. B(C  11,C  10)                  1.5558         0.339776   
     13. B(N  12,C  11)                  1.3574         0.630779   
     14. B(C  13,N  12)                  1.4614         0.430474   
     15. B(C  14,C  13)                  1.5421         0.357320   
     16. B(N  15,C  14)                  1.3523         0.642827   
     17. B(C  16,N  15)                  1.4630         0.428022   
     18. B(C  17,C  16)                  1.5463         0.351836   
     19. B(C  18,C  17)                  1.5387         0.361790   
     20. B(C  19,C  18)                  1.5276         0.376830   
     21. B(N  20,C  19)                  1.3761         0.589019   
     22. B(C  21,N  20)                  1.4584         0.435324   
     23. B(C  22,C  21)                  1.5387         0.361843   
     24. B(N  23,C  22)                  1.3703         0.601552   
     25. B(C  24,N  23)                  1.4626         0.428663   
     26. B(C  24,C   7)                  1.5288         0.375244   
     27. B(C  25,C  24)                  1.5269         0.377844   
     28. B(O  26,C  22)                  1.2297         1.008525   
     29. B(C  27,C  21)                  1.5373         0.363650   
     30. B(C  28,C  27)                  1.5359         0.365615   
     31. B(C  29,C  28)                  1.5317         0.371301   
     32. B(C  30,C  28)                  1.5327         0.369861   
     33. B(O  31,C  19)                  1.2289         1.011412   
     34. B(C  32,C  18)                  1.5464         0.351761   
     35. B(C  33,C  32)                  1.5204         0.386946   
     36. B(C  34,C  33)                  1.5446         0.354046   
     37. B(C  35,C  34)                  1.5285         0.375615   
     38. B(C  36,C  35)                  1.5279         0.376431   
     39. B(C  37,C  36)                  1.5352         0.366550   
     40. B(C  38,C  37)                  1.5369         0.364173   
     41. B(C  39,C  38)                  1.5399         0.360174   
     42. B(C  40,C  39)                  1.5380         0.362756   
     43. B(C  41,C  40)                  1.5307         0.372586   
     44. B(O  42,C  32)                  1.2173         1.055389   
     45. B(O  43,C  17)                  1.4163         0.508011   
     46. B(O  44,C  14)                  1.2402         0.970326   
     47. B(C  45,C  13)                  1.5339         0.368294   
     48. B(C  46,C  45)                  1.5278         0.376586   
     49. B(O  47,C  11)                  1.2336         0.993934   
     50. B(C  48,C  10)                  1.5392         0.361128   
     51. B(C  49,C  48)                  1.5331         0.369301   
     52. B(C  50,C  48)                  1.5334         0.368896   
     53. B(H  51,C   2)                  1.1001         0.346967   
     54. B(H  52,C   3)                  1.0955         0.352850   
     55. B(H  53,C   3)                  1.1006         0.346332   
     56. B(H  54,C   4)                  1.0970         0.350933   
     57. B(H  55,C   4)                  1.1001         0.347026   
     58. B(H  56,C   5)                  1.1018         0.344809   
     59. B(H  57,C   5)                  1.0957         0.352656   
     60. B(H  58,N   9)                  1.0175         0.420903   
     61. B(H  59,C  10)                  1.1021         0.344505   
     62. B(H  60,N  12)                  1.0250         0.409583   
     63. B(H  61,C  13)                  1.1036         0.342565   
     64. B(H  62,O   8)                  2.0218         0.010519   
     65. B(H  62,N  15)                  1.0250         0.409443   
     66. B(H  63,C  16)                  1.1015         0.345178   
     67. B(H  64,C  16)                  1.0986         0.348962   
     68. B(H  65,C  17)                  1.1098         0.334813   
     69. B(H  66,C  18)                  1.0976         0.350208   
     70. B(H  67,N  20)                  1.0168         0.421984   
     71. B(H  68,C  21)                  1.1010         0.345819   
     72. B(H  69,N  23)                  1.0183         0.419757   
     73. B(H  70,C  24)                  1.0966         0.351467   
     74. B(H  71,C  25)                  1.0968         0.351262   
     75. B(H  72,C  25)                  1.0991         0.348258   
     76. B(H  73,C  25)                  1.0970         0.350962   
     77. B(H  74,C  27)                  1.1014         0.345316   
     78. B(H  75,C  27)                  1.1038         0.342271   
     79. B(H  76,C  28)                  1.1008         0.346034   
     80. B(H  77,C  29)                  1.0980         0.349622   
     81. B(H  78,C  29)                  1.1022         0.344361   
     82. B(H  79,C  29)                  1.0994         0.347893   
     83. B(H  80,C  30)                  1.1005         0.346506   
     84. B(H  81,C  30)                  1.0993         0.347994   
     85. B(H  82,C  30)                  1.1016         0.345071   
     86. B(H  83,C  33)                  1.1007         0.346253   
     87. B(H  84,C  33)                  1.0997         0.347513   
     88. B(H  85,C  34)                  1.0992         0.348103   
     89. B(H  86,C  34)                  1.1028         0.343569   
     90. B(H  87,C  35)                  1.1052         0.340605   
     91. B(H  88,C  35)                  1.1012         0.345611   
     92. B(H  89,C  36)                  1.1021         0.344492   
     93. B(H  90,C  36)                  1.1040         0.342083   
     94. B(H  91,C  37)                  1.1032         0.343106   
     95. B(H  92,H  80)                  2.5197         0.000361   
     96. B(H  92,C  37)                  1.1036         0.342509   
     97. B(H  93,C  38)                  1.1019         0.344641   
     98. B(H  94,C  38)                  1.1022         0.344337   
     99. B(H  95,C  39)                  1.1035         0.342638   
    100. B(H  96,C  39)                  1.1033         0.342969   
    101. B(H  97,C  40)                  1.1007         0.346162   
    102. B(H  98,C  40)                  1.1021         0.344412   
    103. B(H  99,C  41)                  1.0991         0.348275   
    104. B(H 100,C  41)                  1.1001         0.347047   
    105. B(H 101,C  41)                  1.1009         0.345985   
    106. B(H 102,O  43)                  0.9944         0.458205   
    107. B(H 103,C  45)                  1.0983         0.349224   
    108. B(H 104,C  45)                  1.0996         0.347669   
    109. B(H 105,C  46)                  1.0985         0.348966   
    110. B(H 106,C  46)                  1.1013         0.345496   
    111. B(H 107,C  46)                  1.0998         0.347411   
    112. B(H 108,C  48)                  1.1043         0.341678   
    113. B(H 109,C  49)                  1.1001         0.346934   
    114. B(H 110,C  49)                  1.0991         0.348221   
    115. B(H 111,H  65)                  4.4335         0.000000   
    116. B(H 111,H 100)                  3.1632         0.000034   
    117. B(H 111,C  49)                  1.0967         0.351295   
    118. B(H 112,H  74)                  2.2454         0.000989   
    119. B(H 112,C  50)                  1.1015         0.345260   
    120. B(H 113,H  87)                  2.3834         0.000596   
    121. B(H 113,C  50)                  1.0973         0.350617   
    122. B(H 114,C  50)                  1.0991         0.348267   
    123. A(O   0,C   1,N   9)          123.5824         0.467574   
    124. A(C   2,C   1,N   9)          116.0815         0.396543   
    125. A(O   0,C   1,C   2)          120.2556         0.428343   
    126. A(C   1,C   2,H  51)          105.6315         0.322909   
    127. A(N   6,C   2,H  51)          109.8612         0.325575   
    128. A(C   1,C   2,N   6)          114.0765         0.367814   
    129. A(C   1,C   2,C   3)          112.2094         0.361201   
    130. A(C   3,C   2,H  51)          111.7194         0.319964   
    131. A(C   3,C   2,N   6)          103.4881         0.364303   
    132. A(C   4,C   3,H  53)          110.2702         0.321515   
    133. A(C   4,C   3,H  52)          113.9154         0.322499   
    134. A(C   2,C   3,C   4)          103.5644         0.359691   
    135. A(C   2,C   3,H  53)          109.4963         0.319868   
    136. A(C   2,C   3,H  52)          111.5692         0.320845   
    137. A(H  52,C   3,H  53)          107.9545         0.288147   
    138. A(H  54,C   4,H  55)          108.0239         0.287992   
    139. A(C   3,C   4,H  55)          110.2577         0.321621   
    140. A(C   3,C   4,C   5)          103.4237         0.362133   
    141. A(C   3,C   4,H  54)          113.0898         0.322211   
    142. A(C   5,C   4,H  55)          109.7789         0.322056   
    143. A(C   5,C   4,H  54)          112.2188         0.322647   
    144. A(H  56,C   5,H  57)          107.7451         0.287924   
    145. A(C   4,C   5,N   6)          102.9042         0.365610   
    146. A(C   4,C   5,H  56)          111.8954         0.321718   
    147. A(N   6,C   5,H  57)          111.1534         0.325443   
    148. A(N   6,C   5,H  56)          110.4970         0.324241   
    149. A(C   4,C   5,H  57)          112.6517         0.322907   
    150. A(C   5,N   6,C   7)          127.6788         0.397712   
    151. A(C   2,N   6,C   7)          119.7167         0.399025   
    152. A(C   2,N   6,C   5)          112.3307         0.369798   
    153. A(O   8,C   7,C  24)          121.1583         0.426586   
    154. A(N   6,C   7,O   8)          121.1601         0.464899   
    155. A(N   6,C   7,C  24)          117.4919         0.395105   
    156. A(C   1,N   9,C  10)          122.9256         0.402896   
    157. A(C  10,N   9,H  58)          117.4894         0.335505   
    158. A(C   1,N   9,H  58)          117.5198         0.358438   
    159. A(C  48,C  10,H  59)          108.5706         0.320192   
    160. A(C  11,C  10,H  59)          106.3415         0.317025   
    161. A(N   9,C  10,C  11)          110.7151         0.363732   
    162. A(N   9,C  10,C  48)          110.1631         0.367548   
    163. A(N   9,C  10,H  59)          105.5994         0.327357   
    164. A(C  11,C  10,C  48)          114.9382         0.355474   
    165. A(N  12,C  11,O  47)          123.6257         0.468150   
    166. A(C  10,C  11,O  47)          123.6449         0.421343   
    167. A(C  10,C  11,N  12)          112.7268         0.388840   
    168. A(C  13,N  12,H  60)          118.8249         0.334228   
    169. A(C  11,N  12,C  13)          123.3401         0.402731   
    170. A(C  11,N  12,H  60)          117.3407         0.356378   
    171. A(C  14,C  13,C  45)          111.0832         0.359729   
    172. A(N  12,C  13,H  61)          105.6328         0.327285   
    173. A(C  14,C  13,H  61)          106.8893         0.319344   
    174. A(N  12,C  13,C  14)          111.7018         0.367151   
    175. A(C  45,C  13,H  61)          109.0574         0.320926   
    176. A(N  12,C  13,C  45)          112.1581         0.369062   
    177. A(C  13,C  14,N  15)          116.3715         0.393577   
    178. A(N  15,C  14,O  44)          123.2322         0.467711   
    179. A(C  13,C  14,O  44)          120.3506         0.423327   
    180. A(C  14,N  15,H  62)          119.4587         0.357505   
    181. A(C  16,N  15,H  62)          118.5649         0.333892   
    182. A(C  14,N  15,C  16)          121.6321         0.403670   
    183. A(H  63,C  16,H  64)          107.3319         0.287499   
    184. A(C  17,C  16,H  64)          110.6156         0.319502   
    185. A(N  15,C  16,H  63)          110.4442         0.327387   
    186. A(C  17,C  16,H  63)          108.3503         0.318934   
    187. A(N  15,C  16,C  17)          112.8441         0.365822   
    188. A(N  15,C  16,H  64)          107.1213         0.327976   
    189. A(O  43,C  17,H  65)          110.6039         0.335108   
    190. A(C  18,C  17,H  65)          109.6282         0.318799   
    191. A(C  16,C  17,H  65)          105.9583         0.317353   
    192. A(C  16,C  17,C  18)          113.1702         0.357697   
    193. A(C  18,C  17,O  43)          105.0718         0.378590   
    194. A(C  16,C  17,O  43)          112.4683         0.376767   
    195. A(C  19,C  18,H  66)          105.9411         0.323300   
    196. A(C  17,C  18,H  66)          109.6314         0.321150   
    197. A(C  17,C  18,C  32)          111.3651         0.357684   
    198. A(C  17,C  18,C  19)          112.6204         0.361904   
    199. A(C  19,C  18,C  32)          110.4883         0.360173   
    200. A(C  32,C  18,H  66)          106.4641         0.319677   
    201. A(C  18,C  19,N  20)          115.8872         0.391225   
    202. A(N  20,C  19,O  31)          121.2292         0.463793   
    203. A(C  18,C  19,O  31)          122.8548         0.430566   
    204. A(C  19,N  20,H  67)          119.3735         0.354048   
    205. A(C  19,N  20,C  21)          121.2141         0.398689   
    206. A(C  21,N  20,H  67)          118.2465         0.336516   
    207. A(C  27,C  21,H  68)          109.8576         0.320757   
    208. A(C  22,C  21,H  68)          103.6456         0.320495   
    209. A(N  20,C  21,H  68)          107.5057         0.328402   
    210. A(N  20,C  21,C  22)          112.8375         0.368653   
    211. A(C  22,C  21,C  27)          113.3507         0.359722   
    212. A(N  20,C  21,C  27)          109.3361         0.368968   
    213. A(C  21,C  22,N  23)          115.5694         0.389892   
    214. A(C  21,C  22,O  26)          121.3408         0.427224   
    215. A(N  23,C  22,O  26)          123.0866         0.465340   
    216. A(C  22,N  23,C  24)          120.3166         0.399084   
    217. A(C  24,N  23,H  69)          117.4054         0.335358   
    218. A(C  22,N  23,H  69)          115.9013         0.354995   
    219. A(C  25,C  24,H  70)          109.9357         0.323633   
    220. A(N  23,C  24,H  70)          104.6264         0.328444   
    221. A(C   7,C  24,H  70)          111.6059         0.323266   
    222. A(N  23,C  24,C  25)          112.3373         0.370421   
    223. A(C   7,C  24,N  23)          106.2100         0.369982   
    224. A(C   7,C  24,C  25)          111.8672         0.364336   
    225. A(H  71,C  25,H  73)          109.0460         0.288543   
    226. A(C  24,C  25,H  73)          110.8602         0.323556   
    227. A(H  71,C  25,H  72)          109.1200         0.288194   
    228. A(C  24,C  25,H  72)          110.3169         0.323146   
    229. A(C  24,C  25,H  71)          109.7133         0.323602   
    230. A(H  72,C  25,H  73)          107.7377         0.288156   
    231. A(C  28,C  27,H  75)          108.4210         0.320498   
    232. A(C  21,C  27,C  28)          116.5446         0.360359   
    233. A(H  74,C  27,H  75)          106.4391         0.286649   
    234. A(C  21,C  27,H  75)          106.8497         0.320216   
    235. A(C  28,C  27,H  74)          109.2301         0.320963   
    236. A(C  21,C  27,H  74)          108.8823         0.320680   
    237. A(C  29,C  28,C  30)          111.0332         0.362354   
    238. A(C  27,C  28,C  30)          109.1013         0.361401   
    239. A(C  27,C  28,C  29)          111.9844         0.361640   
    240. A(C  30,C  28,H  76)          108.6443         0.321679   
    241. A(C  29,C  28,H  76)          107.8334         0.321884   
    242. A(C  27,C  28,H  76)          108.1406         0.321072   
    243. A(C  28,C  29,H  79)          110.5972         0.322167   
    244. A(H  78,C  29,H  79)          107.6601         0.287254   
    245. A(H  77,C  29,H  79)          107.3609         0.287936   
    246. A(H  77,C  29,H  78)          108.4544         0.287477   
    247. A(C  28,C  29,H  78)          110.9673         0.321629   
    248. A(C  28,C  29,H  77)          111.6401         0.322429   
    249. A(H  81,C  30,H  82)          107.6478         0.287360   
    250. A(H  80,C  30,H  82)          107.6257         0.287168   
    251. A(C  28,C  30,H  82)          111.0649         0.321533   
    252. A(H  80,C  30,H  81)          107.8551         0.287546   
    253. A(C  28,C  30,H  81)          110.9645         0.321977   
    254. A(C  28,C  30,H  80)          111.5102         0.321751   
    255. A(C  33,C  32,O  42)          121.3423         0.435946   
    256. A(C  18,C  32,O  42)          119.8734         0.428540   
    257. A(C  18,C  32,C  33)          118.7169         0.361803   
    258. A(C  32,C  33,C  34)          113.0556         0.362204   
    259. A(C  34,C  33,H  84)          110.5755         0.319612   
    260. A(H  83,C  33,H  84)          105.0787         0.287451   
    261. A(C  32,C  33,H  84)          106.7499         0.324297   
    262. A(C  34,C  33,H  83)          110.0195         0.319422   
    263. A(C  32,C  33,H  83)          111.0190         0.324103   
    264. A(C  33,C  34,C  35)          110.7126         0.360372   
    265. A(H  85,C  34,H  86)          105.5077         0.287178   
    266. A(C  35,C  34,H  86)          109.4367         0.322116   
    267. A(C  33,C  34,H  86)          110.1010         0.319017   
    268. A(C  35,C  34,H  85)          110.9388         0.322809   
    269. A(C  33,C  34,H  85)          110.0182         0.319700   
    270. A(C  34,C  35,C  36)          114.4652         0.364164   
    271. A(H  87,C  35,H  88)          105.0379         0.286469   
    272. A(C  36,C  35,H  88)          110.3047         0.322544   
    273. A(C  34,C  35,H  88)          109.1587         0.322429   
    274. A(C  36,C  35,H  87)          108.6771         0.321774   
    275. A(C  34,C  35,H  87)          108.7609         0.321660   
    276. A(C  35,C  36,C  37)          113.4180         0.362646   
    277. A(H  89,C  36,H  90)          105.5602         0.286517   
    278. A(C  37,C  36,H  90)          108.2098         0.320604   
    279. A(C  35,C  36,H  90)          109.0095         0.322002   
    280. A(C  37,C  36,H  89)          110.6161         0.320972   
    281. A(C  35,C  36,H  89)          109.7033         0.322372   
    282. A(C  36,C  37,C  38)          116.9537         0.360604   
    283. A(H  91,C  37,H  92)          105.7648         0.286393   
    284. A(C  38,C  37,H  92)          108.0703         0.320328   
    285. A(C  36,C  37,H  92)          107.8610         0.320669   
    286. A(C  38,C  37,H  91)          108.6795         0.320419   
    287. A(C  36,C  37,H  91)          108.9473         0.320760   
    288. A(C  37,C  38,C  39)          115.7514         0.359527   
    289. A(H  93,C  38,H  94)          105.2999         0.286830   
    290. A(C  39,C  38,H  94)          109.8905         0.320029   
    291. A(C  37,C  38,H  94)          109.8392         0.320607   
    292. A(C  39,C  38,H  93)          108.4361         0.320075   
    293. A(C  37,C  38,H  93)          107.0614         0.320653   
    294. A(C  38,C  39,C  40)          116.2624         0.359288   
    295. A(H  95,C  39,H  96)          105.7931         0.286392   
    296. A(C  40,C  39,H  96)          107.5301         0.320194   
    297. A(C  38,C  39,H  96)          108.6798         0.319821   
    298. A(C  40,C  39,H  95)          109.3256         0.320144   
    299. A(C  38,C  39,H  95)          108.7459         0.319770   
    300. A(C  39,C  40,C  41)          113.6563         0.361369   
    301. A(H  97,C  40,H  98)          105.6971         0.287037   
    302. A(C  41,C  40,H  98)          108.9126         0.321819   
    303. A(C  39,C  40,H  98)          108.2836         0.320414   
    304. A(C  41,C  40,H  97)          109.6225         0.322086   
    305. A(C  39,C  40,H  97)          110.3426         0.320679   
    306. A(H 100,C  41,H 101)          107.3149         0.287356   
    307. A(H  99,C  41,H 101)          107.7814         0.287515   
    308. A(C  40,C  41,H 101)          110.9536         0.322059   
    309. A(H  99,C  41,H 100)          107.2177         0.287653   
    310. A(C  40,C  41,H 100)          112.0664         0.322221   
    311. A(C  40,C  41,H  99)          111.2867         0.322407   
    312. A(C  17,O  43,H 102)          105.6613         0.350142   
    313. A(C  13,C  45,C  46)          112.5453         0.362966   
    314. A(C  46,C  45,H 104)          111.0228         0.322880   
    315. A(C  13,C  45,H 104)          108.0576         0.321704   
    316. A(C  46,C  45,H 103)          110.8341         0.323116   
    317. A(C  13,C  45,H 103)          107.8712         0.321939   
    318. A(H 103,C  45,H 104)          106.2426         0.287856   
    319. A(H 106,C  46,H 107)          107.6296         0.287340   
    320. A(H 105,C  46,H 107)          107.4870         0.287789   
    321. A(C  45,C  46,H 107)          111.7403         0.322840   
    322. A(H 105,C  46,H 106)          107.5930         0.287541   
    323. A(C  45,C  46,H 106)          111.4481         0.322548   
    324. A(C  45,C  46,H 105)          110.7439         0.323077   
    325. A(C  50,C  48,H 108)          107.8033         0.320876   
    326. A(C  49,C  48,H 108)          107.8768         0.320934   
    327. A(C  10,C  48,H 108)          104.6733         0.319762   
    328. A(C  49,C  48,C  50)          111.2630         0.361858   
    329. A(C  10,C  48,C  50)          113.1539         0.360480   
    330. A(C  10,C  48,C  49)          111.6457         0.360547   
    331. A(H 110,C  49,H 111)          108.4929         0.288194   
    332. A(H 109,C  49,H 111)          108.3743         0.288027   
    333. A(C  48,C  49,H 111)          110.8004         0.322395   
    334. A(H 109,C  49,H 110)          107.7372         0.287631   
    335. A(C  48,C  49,H 110)          110.1083         0.321932   
    336. A(C  48,C  49,H 109)          111.2269         0.321736   
    337. A(H 113,C  50,H 114)          108.5507         0.288113   
    338. A(H 112,C  50,H 114)          106.9196         0.287420   
    339. A(C  48,C  50,H 114)          110.0284         0.321881   
    340. A(H 112,C  50,H 113)          108.3224         0.287722   
    341. A(C  48,C  50,H 113)          110.1588         0.322235   
    342. A(C  48,C  50,H 112)          112.7241         0.321424   
    343. D(H  51,C   2,C   1,N   9)   -152.0087         0.010646   
    344. D(C   3,C   2,C   1,N   9)     86.0327         0.010646   
    345. D(N   6,C   2,C   1,N   9)    -31.2496         0.010646   
    346. D(N   6,C   2,C   1,O   0)    151.8979         0.010646   
    347. D(C   3,C   2,C   1,O   0)    -90.8198         0.010646   
    348. D(H  51,C   2,C   1,O   0)     31.1387         0.010646   
    349. D(C   4,C   3,C   2,N   6)    -27.8987         0.010237   
    350. D(H  53,C   3,C   2,H  51)   -152.1466         0.010237   
    351. D(H  53,C   3,C   2,C   1)    -33.7273         0.010237   
    352. D(C   4,C   3,C   2,H  51)     90.2411         0.010237   
    353. D(H  53,C   3,C   2,N   6)     89.7136         0.010237   
    354. D(H  52,C   3,C   2,H  51)    -32.7012         0.010237   
    355. D(C   4,C   3,C   2,C   1)   -151.3396         0.010237   
    356. D(H  52,C   3,C   2,C   1)     85.7180         0.010237   
    357. D(H  52,C   3,C   2,N   6)   -150.8410         0.010237   
    358. D(H  55,C   4,C   3,H  53)    163.5898         0.010855   
    359. D(H  55,C   4,C   3,H  52)     42.0389         0.010855   
    360. D(H  54,C   4,C   3,H  52)    -79.0175         0.010855   
    361. D(H  55,C   4,C   3,C   2)    -79.3392         0.010855   
    362. D(H  54,C   4,C   3,H  53)     42.5333         0.010855   
    363. D(C   5,C   4,C   3,C   2)     37.9782         0.010855   
    364. D(H  54,C   4,C   3,C   2)    159.6043         0.010855   
    365. D(C   5,C   4,C   3,H  53)    -79.0928         0.010855   
    366. D(C   5,C   4,C   3,H  52)    159.3564         0.010855   
    367. D(N   6,C   5,C   4,C   3)    -32.8823         0.011025   
    368. D(H  57,C   5,C   4,C   3)   -152.6689         0.011025   
    369. D(H  56,C   5,C   4,H  55)   -156.5939         0.011025   
    370. D(H  56,C   5,C   4,C   3)     85.7533         0.011025   
    371. D(H  57,C   5,C   4,H  54)     85.1213         0.011025   
    372. D(H  56,C   5,C   4,H  54)    -36.4564         0.011025   
    373. D(H  57,C   5,C   4,H  55)    -35.0161         0.011025   
    374. D(N   6,C   5,C   4,H  54)   -155.0920         0.011025   
    375. D(N   6,C   5,C   4,H  55)     84.7705         0.011025   
    376. D(C   5,N   6,C   2,C   3)      7.4813         0.014458   
    377. D(C   7,N   6,C   5,H  57)    -37.1085         0.013934   
    378. D(C   7,N   6,C   5,H  56)     82.4650         0.013934   
    379. D(C   7,N   6,C   5,C   4)   -157.9260         0.013934   
    380. D(C   2,N   6,C   5,H  57)    136.7931         0.013934   
    381. D(C   2,N   6,C   5,H  56)   -103.6335         0.013934   
    382. D(C   7,N   6,C   2,H  51)     62.5015         0.014458   
    383. D(C   2,N   6,C   5,C   4)     15.9756         0.013934   
    384. D(C   7,N   6,C   2,C   3)   -178.0744         0.014458   
    385. D(C   5,N   6,C   2,C   1)    129.6849         0.014458   
    386. D(C   7,N   6,C   2,C   1)    -55.8708         0.014458   
    387. D(C   5,N   6,C   2,H  51)   -111.9428         0.014458   
    388. D(C  24,C   7,N   6,C   5)     -9.9106         0.031759   
    389. D(C  24,C   7,N   6,C   2)    176.5863         0.031759   
    390. D(O   8,C   7,N   6,C   5)    175.0392         0.031759   
    391. D(O   8,C   7,N   6,C   2)      1.5362         0.031759   
    392. D(H  58,N   9,C   1,O   0)   -168.3170         0.032775   
    393. D(C  10,N   9,C   1,C   2)    178.1740         0.032775   
    394. D(H  58,N   9,C   1,C   2)     14.9465         0.032775   
    395. D(C  10,N   9,C   1,O   0)     -5.0895         0.032775   
    396. D(H  59,C  10,N   9,C   1)     34.2983         0.015663   
    397. D(C  48,C  10,N   9,H  58)    -45.4201         0.015663   
    398. D(C  48,C  10,N   9,C   1)    151.3476         0.015663   
    399. D(C  11,C  10,N   9,C   1)    -80.4036         0.015663   
    400. D(H  59,C  10,N   9,H  58)   -162.4695         0.015663   
    401. D(C  11,C  10,N   9,H  58)     82.8287         0.015663   
    402. D(O  47,C  11,C  10,N   9)   -122.3026         0.008773   
    403. D(N  12,C  11,C  10,H  59)    -57.1139         0.008773   
    404. D(N  12,C  11,C  10,C  48)   -177.2692         0.008773   
    405. D(N  12,C  11,C  10,N   9)     57.1212         0.008773   
    406. D(O  47,C  11,C  10,H  59)    123.4623         0.008773   
    407. D(O  47,C  11,C  10,C  48)      3.3070         0.008773   
    408. D(H  60,N  12,C  11,O  47)   -176.6963         0.032307   
    409. D(H  60,N  12,C  11,C  10)      3.8797         0.032307   
    410. D(C  13,N  12,C  11,O  47)     -4.8709         0.032307   
    411. D(C  13,N  12,C  11,C  10)    175.7051         0.032307   
    412. D(H  61,C  13,N  12,C  11)    162.1330         0.015799   
    413. D(H  61,C  13,N  12,H  60)    -26.1562         0.015799   
    414. D(C  45,C  13,N  12,H  60)     92.5324         0.015799   
    415. D(C  45,C  13,N  12,C  11)    -79.1784         0.015799   
    416. D(C  14,C  13,N  12,C  11)     46.2800         0.015799   
    417. D(C  14,C  13,N  12,H  60)   -142.0091         0.015799   
    418. D(O  44,C  14,C  13,C  45)     -9.6786         0.009613   
    419. D(O  44,C  14,C  13,N  12)   -135.7287         0.009613   
    420. D(N  15,C  14,C  13,H  61)    -68.4330         0.009613   
    421. D(N  15,C  14,C  13,C  45)    172.7006         0.009613   
    422. D(O  44,C  14,C  13,H  61)    109.1878         0.009613   
    423. D(N  15,C  14,C  13,N  12)     46.6505         0.009613   
    424. D(H  62,N  15,C  14,O  44)   -179.0235         0.033659   
    425. D(H  62,N  15,C  14,C  13)     -1.4782         0.033659   
    426. D(C  16,N  15,C  14,O  44)      7.8127         0.033659   
    427. D(C  16,N  15,C  14,C  13)   -174.6419         0.033659   
    428. D(H  64,C  16,N  15,H  62)      8.7170         0.015619   
    429. D(H  64,C  16,N  15,C  14)   -178.0600         0.015619   
    430. D(H  63,C  16,N  15,H  62)    125.3009         0.015619   
    431. D(H  63,C  16,N  15,C  14)    -61.4762         0.015619   
    432. D(C  17,C  16,N  15,C  14)     59.9649         0.015619   
    433. D(C  17,C  16,N  15,H  62)   -113.2580         0.015619   
    434. D(H  65,C  17,C  16,H  64)    -85.6408         0.009965   
    435. D(H  65,C  17,C  16,H  63)    156.9644         0.009965   
    436. D(H  65,C  17,C  16,N  15)     34.3447         0.009965   
    437. D(O  43,C  17,C  16,H  64)    153.4059         0.009965   
    438. D(O  43,C  17,C  16,H  63)     36.0111         0.009965   
    439. D(O  43,C  17,C  16,N  15)    -86.6086         0.009965   
    440. D(C  18,C  17,C  16,H  64)     34.5193         0.009965   
    441. D(C  18,C  17,C  16,H  63)    -82.8754         0.009965   
    442. D(C  18,C  17,C  16,N  15)    154.5049         0.009965   
    443. D(H  66,C  18,C  17,H  65)    174.4675         0.010494   
    444. D(H  66,C  18,C  17,O  43)    -66.6532         0.010494   
    445. D(H  66,C  18,C  17,C  16)     56.4238         0.010494   
    446. D(C  32,C  18,C  17,O  43)     50.9050         0.010494   
    447. D(C  32,C  18,C  17,C  16)    173.9820         0.010494   
    448. D(C  32,C  18,C  17,H  65)    -67.9742         0.010494   
    449. D(C  19,C  18,C  17,H  65)     56.7878         0.010494   
    450. D(C  19,C  18,C  17,O  43)    175.6671         0.010494   
    451. D(C  19,C  18,C  17,C  16)    -61.2560         0.010494   
    452. D(O  31,C  19,C  18,H  66)     -8.2438         0.010607   
    453. D(O  31,C  19,C  18,C  32)   -123.1656         0.010607   
    454. D(O  31,C  19,C  18,C  17)    111.5936         0.010607   
    455. D(N  20,C  19,C  18,H  66)    173.6896         0.010607   
    456. D(N  20,C  19,C  18,C  17)    -66.4731         0.010607   
    457. D(N  20,C  19,C  18,C  32)     58.7677         0.010607   
    458. D(H  67,N  20,C  19,O  31)    176.2438         0.027884   
    459. D(H  67,N  20,C  19,C  18)     -5.6555         0.027884   
    460. D(C  21,N  20,C  19,O  31)      8.8001         0.027884   
    461. D(C  21,N  20,C  19,C  18)   -173.0992         0.027884   
    462. D(H  68,C  21,N  20,H  67)   -131.0025         0.016158   
    463. D(H  68,C  21,N  20,C  19)     36.5785         0.016158   
    464. D(C  27,C  21,N  20,H  67)    -11.7835         0.016158   
    465. D(C  27,C  21,N  20,C  19)    155.7975         0.016158   
    466. D(C  22,C  21,N  20,H  67)    115.3417         0.016158   
    467. D(C  22,C  21,N  20,C  19)    -77.0774         0.016158   
    468. D(N  23,C  22,C  21,C  27)    114.1064         0.009837   
    469. D(N  23,C  22,C  21,N  20)    -10.8627         0.009837   
    470. D(O  26,C  22,C  21,H  68)     52.5143         0.009837   
    471. D(O  26,C  22,C  21,C  27)    -66.5336         0.009837   
    472. D(O  26,C  22,C  21,N  20)    168.4973         0.009837   
    473. D(N  23,C  22,C  21,H  68)   -126.8457         0.009837   
    474. D(H  69,N  23,C  22,O  26)   -171.0258         0.029169   
    475. D(H  69,N  23,C  22,C  21)      8.3218         0.029169   
    476. D(C  24,N  23,C  22,O  26)    -19.7798         0.029169   
    477. D(C  24,N  23,C  22,C  21)    159.5678         0.029169   
    478. D(H  70,C  24,N  23,H  69)    172.4646         0.015666   
    479. D(H  70,C  24,N  23,C  22)     21.6365         0.015666   
    480. D(C  25,C  24,N  23,H  69)     53.2420         0.015666   
    481. D(C  25,C  24,N  23,C  22)    -97.5861         0.015666   
    482. D(C   7,C  24,N  23,H  69)    -69.3597         0.015666   
    483. D(C   7,C  24,N  23,C  22)    139.8122         0.015666   
    484. D(H  70,C  24,C   7,O   8)   -165.6018         0.010524   
    485. D(H  70,C  24,C   7,N   6)     19.3479         0.010524   
    486. D(C  25,C  24,C   7,O   8)    -41.9523         0.010524   
    487. D(C  25,C  24,C   7,N   6)    142.9975         0.010524   
    488. D(N  23,C  24,C   7,O   8)     80.9462         0.010524   
    489. D(N  23,C  24,C   7,N   6)    -94.1040         0.010524   
    490. D(H  73,C  25,C  24,H  70)    175.6469         0.011385   
    491. D(H  73,C  25,C  24,N  23)    -68.2854         0.011385   
    492. D(H  73,C  25,C  24,C   7)     51.0623         0.011385   
    493. D(H  72,C  25,C  24,H  70)     56.3886         0.011385   
    494. D(H  72,C  25,C  24,N  23)    172.4563         0.011385   
    495. D(H  72,C  25,C  24,C   7)    -68.1961         0.011385   
    496. D(H  71,C  25,C  24,H  70)    -63.8557         0.011385   
    497. D(H  71,C  25,C  24,N  23)     52.2121         0.011385   
    498. D(H  71,C  25,C  24,C   7)    171.5597         0.011385   
    499. D(H  75,C  27,C  21,H  68)     65.8883         0.010595   
    500. D(H  75,C  27,C  21,C  22)   -178.6996         0.010595   
    501. D(H  75,C  27,C  21,N  20)    -51.8651         0.010595   
    502. D(H  74,C  27,C  21,H  68)   -179.5232         0.010595   
    503. D(H  74,C  27,C  21,C  22)    -64.1111         0.010595   
    504. D(H  74,C  27,C  21,N  20)     62.7234         0.010595   
    505. D(C  28,C  27,C  21,H  68)    -55.4691         0.010595   
    506. D(C  28,C  27,C  21,C  22)     59.9430         0.010595   
    507. D(C  28,C  27,C  21,N  20)   -173.2225         0.010595   
    508. D(H  76,C  28,C  27,H  75)   -179.4891         0.010702   
    509. D(H  76,C  28,C  27,H  74)     64.9108         0.010702   
    510. D(H  76,C  28,C  27,C  21)    -58.9650         0.010702   
    511. D(C  30,C  28,C  27,H  75)     62.5106         0.010702   
    512. D(C  30,C  28,C  27,H  74)    -53.0896         0.010702   
    513. D(C  30,C  28,C  27,C  21)   -176.9653         0.010702   
    514. D(C  29,C  28,C  27,H  75)    -60.8161         0.010702   
    515. D(C  29,C  28,C  27,H  74)   -176.4163         0.010702   
    516. D(C  29,C  28,C  27,C  21)     59.7079         0.010702   
    517. D(H  79,C  29,C  28,C  30)     53.5926         0.011016   
    518. D(H  79,C  29,C  28,C  27)    175.8233         0.011016   
    519. D(H  78,C  29,C  28,H  76)    175.2660         0.011016   
    520. D(H  78,C  29,C  28,C  30)    -65.8193         0.011016   
    521. D(H  78,C  29,C  28,C  27)     56.4113         0.011016   
    522. D(H  77,C  29,C  28,H  76)     54.1526         0.011016   
    523. D(H  77,C  29,C  28,C  30)    173.0673         0.011016   
    524. D(H  79,C  29,C  28,H  76)    -65.3220         0.011016   
    525. D(H  77,C  29,C  28,C  27)    -64.7021         0.011016   
    526. D(H  82,C  30,C  28,H  76)    179.9714         0.010936   
    527. D(H  82,C  30,C  28,C  29)     61.5453         0.010936   
    528. D(H  82,C  30,C  28,C  27)    -62.3454         0.010936   
    529. D(H  81,C  30,C  28,H  76)     60.2698         0.010936   
    530. D(H  81,C  30,C  28,C  29)    -58.1562         0.010936   
    531. D(H  81,C  30,C  28,C  27)    177.9531         0.010936   
    532. D(H  80,C  30,C  28,H  76)    -59.9908         0.010936   
    533. D(H  80,C  30,C  28,C  29)   -178.4168         0.010936   
    534. D(H  80,C  30,C  28,C  27)     57.6925         0.010936   
    535. D(O  42,C  32,C  18,H  66)    -22.4184         0.009341   
    536. D(O  42,C  32,C  18,C  19)     92.1739         0.009341   
    537. D(O  42,C  32,C  18,C  17)   -141.8770         0.009341   
    538. D(C  33,C  32,C  18,H  66)    160.5256         0.009341   
    539. D(C  33,C  32,C  18,C  19)    -84.8821         0.009341   
    540. D(C  33,C  32,C  18,C  17)     41.0670         0.009341   
    541. D(H  84,C  33,C  32,O  42)     64.2421         0.011149   
    542. D(H  84,C  33,C  32,C  18)   -118.7470         0.011149   
    543. D(H  83,C  33,C  32,O  42)    178.2386         0.011149   
    544. D(H  83,C  33,C  32,C  18)     -4.7504         0.011149   
    545. D(C  34,C  33,C  32,O  42)    -57.5588         0.011149   
    546. D(C  34,C  33,C  32,C  18)    119.4521         0.011149   
    547. D(H  86,C  34,C  33,H  84)   -148.3604         0.010081   
    548. D(H  86,C  34,C  33,H  83)     96.0122         0.010081   
    549. D(H  86,C  34,C  33,C  32)    -28.7352         0.010081   
    550. D(H  85,C  34,C  33,H  84)    -32.4892         0.010081   
    551. D(H  85,C  34,C  33,H  83)   -148.1165         0.010081   
    552. D(H  85,C  34,C  33,C  32)     87.1361         0.010081   
    553. D(C  35,C  34,C  33,H  84)     90.4940         0.010081   
    554. D(C  35,C  34,C  33,H  83)    -25.1333         0.010081   
    555. D(C  35,C  34,C  33,C  32)   -149.8807         0.010081   
    556. D(H  88,C  35,C  34,H  86)   -175.3707         0.011259   
    557. D(H  88,C  35,C  34,H  85)     68.6149         0.011259   
    558. D(H  88,C  35,C  34,C  33)    -53.8330         0.011259   
    559. D(H  87,C  35,C  34,H  86)    -61.2856         0.011259   
    560. D(H  87,C  35,C  34,H  85)   -177.3000         0.011259   
    561. D(H  87,C  35,C  34,C  33)     60.2521         0.011259   
    562. D(C  36,C  35,C  34,H  86)     60.4575         0.011259   
    563. D(C  36,C  35,C  34,H  85)    -55.5569         0.011259   
    564. D(C  36,C  35,C  34,C  33)   -178.0048         0.011259   
    565. D(H  90,C  36,C  35,H  87)     76.0469         0.011305   
    566. D(H  90,C  36,C  35,C  34)    -45.7421         0.011305   
    567. D(H  89,C  36,C  35,H  88)    -54.1668         0.011305   
    568. D(H  89,C  36,C  35,H  87)   -168.8186         0.011305   
    569. D(H  89,C  36,C  35,C  34)     69.3925         0.011305   
    570. D(C  37,C  36,C  35,H  88)     70.0744         0.011305   
    571. D(C  37,C  36,C  35,H  87)    -44.5773         0.011305   
    572. D(H  90,C  36,C  35,H  88)   -169.3014         0.011305   
    573. D(C  37,C  36,C  35,C  34)   -166.3663         0.011305   
    574. D(H  92,C  37,C  36,H  90)    -54.8016         0.010753   
    575. D(H  92,C  37,C  36,H  89)   -169.9822         0.010753   
    576. D(H  92,C  37,C  36,C  35)     66.2735         0.010753   
    577. D(H  91,C  37,C  36,H  90)     59.5556         0.010753   
    578. D(H  91,C  37,C  36,H  89)    -55.6251         0.010753   
    579. D(H  91,C  37,C  36,C  35)   -179.3693         0.010753   
    580. D(C  38,C  37,C  36,H  90)   -176.7710         0.010753   
    581. D(C  38,C  37,C  36,H  89)     68.0483         0.010753   
    582. D(C  38,C  37,C  36,C  35)    -55.6960         0.010753   
    583. D(H  94,C  38,C  37,H  92)    -61.7735         0.010623   
    584. D(H  94,C  38,C  37,H  91)   -176.1031         0.010623   
    585. D(H  94,C  38,C  37,C  36)     60.0870         0.010623   
    586. D(H  93,C  38,C  37,H  92)     52.0652         0.010623   
    587. D(H  93,C  38,C  37,H  91)    -62.2644         0.010623   
    588. D(H  93,C  38,C  37,C  36)    173.9257         0.010623   
    589. D(C  39,C  38,C  37,H  92)    173.0841         0.010623   
    590. D(C  39,C  38,C  37,H  91)     58.7545         0.010623   
    591. D(C  39,C  38,C  37,C  36)    -65.0554         0.010623   
    592. D(H  95,C  39,C  38,H  94)   -162.0376         0.010407   
    593. D(H  95,C  39,C  38,H  93)     83.3548         0.010407   
    594. D(H  95,C  39,C  38,C  37)    -36.9215         0.010407   
    595. D(C  40,C  39,C  38,H  94)    -38.1786         0.010407   
    596. D(C  40,C  39,C  38,H  93)   -152.7862         0.010407   
    597. D(C  40,C  39,C  38,C  37)     86.9375         0.010407   
    598. D(H  96,C  39,C  38,H  94)     83.2458         0.010407   
    599. D(H  96,C  39,C  38,H  93)    -31.3619         0.010407   
    600. D(H  96,C  39,C  38,C  37)   -151.6382         0.010407   
    601. D(H  98,C  40,C  39,H  95)    -50.1791         0.010546   
    602. D(H  98,C  40,C  39,C  38)   -173.7384         0.010546   
    603. D(H  97,C  40,C  39,H  96)    179.4680         0.010546   
    604. D(H  97,C  40,C  39,H  95)     65.0595         0.010546   
    605. D(H  97,C  40,C  39,C  38)    -58.4997         0.010546   
    606. D(C  41,C  40,C  39,H  96)    -56.9293         0.010546   
    607. D(C  41,C  40,C  39,H  95)   -171.3378         0.010546   
    608. D(H  98,C  40,C  39,H  96)     64.2293         0.010546   
    609. D(C  41,C  40,C  39,C  38)     65.1030         0.010546   
    610. D(H 101,C  41,C  40,H  98)    -62.3652         0.011088   
    611. D(H 101,C  41,C  40,H  97)   -177.5651         0.011088   
    612. D(H 101,C  41,C  40,C  39)     58.4410         0.011088   
    613. D(H 100,C  41,C  40,H  98)    177.6930         0.011088   
    614. D(H 100,C  41,C  40,H  97)     62.4930         0.011088   
    615. D(H 100,C  41,C  40,C  39)    -61.5008         0.011088   
    616. D(H  99,C  41,C  40,H  98)     57.6449         0.011088   
    617. D(H  99,C  41,C  40,H  97)    -57.5550         0.011088   
    618. D(H  99,C  41,C  40,C  39)    178.4511         0.011088   
    619. D(H 102,O  43,C  17,H  65)    -75.2671         0.020424   
    620. D(H 102,O  43,C  17,C  18)    166.5105         0.020424   
    621. D(H 102,O  43,C  17,C  16)     42.9840         0.020424   
    622. D(H 104,C  45,C  13,H  61)    179.7516         0.010849   
    623. D(H 104,C  45,C  13,C  14)    -62.6932         0.010849   
    624. D(H 104,C  45,C  13,N  12)     63.1034         0.010849   
    625. D(H 103,C  45,C  13,H  61)    -65.7773         0.010849   
    626. D(H 103,C  45,C  13,C  14)     51.7779         0.010849   
    627. D(H 103,C  45,C  13,N  12)    177.5745         0.010849   
    628. D(C  46,C  45,C  13,H  61)     56.8024         0.010849   
    629. D(C  46,C  45,C  13,C  14)    174.3576         0.010849   
    630. D(C  46,C  45,C  13,N  12)    -59.8458         0.010849   
    631. D(H 107,C  46,C  45,H 104)    -60.6732         0.011314   
    632. D(H 107,C  46,C  45,H 103)   -178.5041         0.011314   
    633. D(H 107,C  46,C  45,C  13)     60.5988         0.011314   
    634. D(H 106,C  46,C  45,H 104)    178.8644         0.011314   
    635. D(H 106,C  46,C  45,H 103)     61.0334         0.011314   
    636. D(H 106,C  46,C  45,C  13)    -59.8636         0.011314   
    637. D(H 105,C  46,C  45,H 104)     59.1254         0.011314   
    638. D(H 105,C  46,C  45,H 103)    -58.7056         0.011314   
    639. D(H 105,C  46,C  45,C  13)   -179.6026         0.011314   
    640. D(H 108,C  48,C  10,H  59)     60.2129         0.010458   
    641. D(H 108,C  48,C  10,C  11)    179.1310         0.010458   
    642. D(H 108,C  48,C  10,N   9)    -54.9737         0.010458   
    643. D(C  50,C  48,C  10,H  59)    177.3245         0.010458   
    644. D(C  50,C  48,C  10,C  11)    -63.7574         0.010458   
    645. D(C  50,C  48,C  10,N   9)     62.1379         0.010458   
    646. D(C  49,C  48,C  10,H  59)    -56.2303         0.010458   
    647. D(C  49,C  48,C  10,C  11)     62.6879         0.010458   
    648. D(C  49,C  48,C  10,N   9)   -171.4168         0.010458   
    649. D(H 111,C  49,C  48,C  50)     59.9479         0.010905   
    650. D(H 111,C  49,C  48,C  10)    -67.5235         0.010905   
    651. D(H 110,C  49,C  48,H 108)     57.9713         0.010905   
    652. D(H 110,C  49,C  48,C  50)    -60.0788         0.010905   
    653. D(H 110,C  49,C  48,C  10)    172.4498         0.010905   
    654. D(H 109,C  49,C  48,H 108)    -61.3853         0.010905   
    655. D(H 109,C  49,C  48,C  50)   -179.4354         0.010905   
    656. D(H 111,C  49,C  48,H 108)    177.9980         0.010905   
    657. D(H 109,C  49,C  48,C  10)     53.0933         0.010905   
    658. D(H 114,C  50,C  48,H 108)    -60.2901         0.010883   
    659. D(H 114,C  50,C  48,C  49)     57.8043         0.010883   
    660. D(H 114,C  50,C  48,C  10)   -175.5475         0.010883   
    661. D(H 113,C  50,C  48,H 108)   -179.9297         0.010883   
    662. D(H 113,C  50,C  48,C  49)    -61.8353         0.010883   
    663. D(H 113,C  50,C  48,C  10)     64.8129         0.010883   
    664. D(H 112,C  50,C  48,H 108)     58.9519         0.010883   
    665. D(H 112,C  50,C  48,C  49)    177.0463         0.010883   
    666. D(H 112,C  50,C  48,C  10)    -56.3055         0.010883   
    -----------------------------------------------------------------

Number of atoms                         .... 115
Number of degrees of freedom            .... 666

         *************************************************************
         *                GEOMETRY OPTIMIZATION CYCLE   1            *
         *************************************************************
---------------------------------
CARTESIAN COORDINATES (ANGSTROEM)
---------------------------------
  O      2.514455    4.283029   -1.577900
  C      1.622831    3.502590   -1.933904
  C      1.353512    3.267703   -3.418615
  C      0.295223    4.239165   -3.979982
  C     -0.350565    3.446227   -5.123116
  C     -0.410831    2.017381   -4.575008
  N      0.796951    1.938303   -3.725651
  C      1.463250    0.821047   -3.330436
  O      2.523073    0.898484   -2.687850
  N      0.794708    2.865852   -1.069945
  C      0.941065    2.953927    0.382630
  C      2.051470    1.986124    0.883546
  N      3.252774    2.216869    0.295178
  C      4.475673    1.504549    0.659642
  C      4.239635   -0.015596    0.767106
  N      3.548926   -0.589170   -0.244097
  C      3.159667   -1.998846   -0.204667
  C      2.250332   -2.337082    0.999413
  C      1.350109   -3.560501    0.753403
  C      0.390692   -3.357985   -0.417999
  N     -0.578494   -2.397216   -0.241593
  C     -1.643969   -2.209998   -1.219613
  C     -1.176184   -1.452846   -2.474784
  N      0.064466   -0.877166   -2.390172
  C      0.801389   -0.529470   -3.604719
  C      1.823980   -1.596448   -3.988529
  O     -1.878156   -1.389804   -3.482417
  C     -2.856779   -1.560979   -0.533138
  C     -4.135455   -1.434687   -1.374514
  C     -4.646386   -2.798301   -1.849374
  C     -5.203989   -0.701413   -0.556118
  O      0.486638   -3.979914   -1.473533
  C      0.570439   -3.952084    2.030142
  C     -0.020170   -2.848189    2.892867
  C     -1.556830   -2.937610    3.021375
  C     -2.165808   -1.547651    3.204473
  C     -3.682539   -1.540619    3.388968
  C     -4.308962   -0.147123    3.238956
  C     -3.758710    0.965304    4.145548
  C     -4.000123    0.778942    5.654991
  C     -2.947657   -0.044950    6.415886
  C     -1.565118    0.610908    6.455209
  O      0.394526   -5.126711    2.296820
  O      2.990573   -2.652921    2.164861
  O      4.710208   -0.657111    1.718444
  C      5.106124    2.057202    1.944119
  C      5.481203    3.533414    1.824397
  O      1.858535    1.097474    1.717162
  C     -0.427535    2.780307    1.065271
  C     -0.351541    3.075395    2.567816
  C     -1.064804    1.411228    0.798960
  H      2.325348    3.390747   -3.919258
  H      0.745502    5.186672   -4.295705
  H     -0.450048    4.460634   -3.200964
  H     -1.341159    3.825085   -5.403549
  H      0.290502    3.475455   -6.016607
  H     -1.317667    1.846111   -3.973093
  H     -0.387657    1.260363   -5.366788
  H      0.219329    2.112218   -1.439187
  H      1.305965    3.974450    0.582380
  H      3.317567    3.013880   -0.345991
  H      5.173301    1.662061   -0.180843
  H      3.198215   -0.005093   -1.009976
  H      4.051823   -2.643173   -0.157251
  H      2.646676   -2.219288   -1.150745
  H      1.620727   -1.438839    1.168112
  H      1.969720   -4.427092    0.489226
  H     -0.669228   -1.940367    0.662289
  H     -1.919440   -3.204394   -1.603706
  H      0.609166   -1.113833   -1.563028
  H      0.032308   -0.451681   -4.382542
  H      1.336592   -2.578096   -4.029923
  H      2.261355   -1.369946   -4.971090
  H      2.642352   -1.633574   -3.258948
  H     -2.566210   -0.565131   -0.163053
  H     -3.084486   -2.171214    0.358034
  H     -3.900963   -0.833323   -2.266275
  H     -3.937905   -3.279234   -2.536721
  H     -4.817924   -3.474242   -0.995882
  H     -5.600177   -2.688808   -2.385051
  H     -4.855078    0.291495   -0.234497
  H     -6.122501   -0.561868   -1.143775
  H     -5.469690   -1.270832    0.348702
  H      0.269315   -1.855269    2.516313
  H      0.455659   -2.929320    3.880953
  H     -1.826698   -3.597997    3.857648
  H     -1.985486   -3.410500    2.122053
  H     -1.913615   -0.930208    2.323269
  H     -1.675225   -1.047184    4.053859
  H     -3.939904   -1.978518    4.367001
  H     -4.139384   -2.207032    2.636678
  H     -5.398004   -0.225097    3.396652
  H     -4.179884    0.170893    2.190045
  H     -4.237398    1.906227    3.829631
  H     -2.682872    1.107230    3.952568
  H     -4.995194    0.324938    5.801600
  H     -4.050820    1.773353    6.130151
  H     -2.865954   -1.054012    5.983732
  H     -3.303343   -0.190837    7.448787
  H     -0.851785    0.003981    7.030355
  H     -1.142010    0.743893    5.448529
  H     -1.614531    1.605807    6.923908
  H      3.723540   -1.982235    2.207299
  H      5.989707    1.447161    2.175414
  H      4.396734    1.896070    2.768644
  H      5.935668    3.896227    2.756405
  H      6.207196    3.699930    1.013225
  H      4.602251    4.161666    1.618906
  H     -1.071088    3.548324    0.601100
  H      0.096587    4.061998    2.757817
  H     -1.360307    3.076154    3.004256
  H      0.250105    2.317272    3.083672
  H     -1.178788    1.196698   -0.275372
  H     -0.454671    0.616626    1.246547
  H     -2.070082    1.371463    1.241502

----------------------------
CARTESIAN COORDINATES (A.U.)
----------------------------
  NO LB      ZA    FRAG     MASS         X           Y           Z
   0 O     8.0000    0    15.999    4.751631    8.093752   -2.981799
   1 C     6.0000    0    12.011    3.066705    6.618936   -3.654550
   2 C     6.0000    0    12.011    2.557767    6.175064   -6.460246
   3 C     6.0000    0    12.011    0.557890    8.010862   -7.521077
   4 C     6.0000    0    12.011   -0.662472    6.512426   -9.681286
   5 C     6.0000    0    12.011   -0.776358    3.812298   -8.645513
   6 N     7.0000    0    14.007    1.506019    3.662861   -7.040460
   7 C     6.0000    0    12.011    2.765142    1.551554   -6.293613
   8 O     8.0000    0    15.999    4.767917    1.697888   -5.079300
   9 N     7.0000    0    14.007    1.501780    5.415676   -2.021903
  10 C     6.0000    0    12.011    1.778356    5.582113    0.723065
  11 C     6.0000    0    12.011    3.876716    3.753230    1.669661
  12 N     7.0000    0    14.007    6.146852    4.189274    0.557806
  13 C     6.0000    0    12.011    8.457797    2.843185    1.246543
  14 C     6.0000    0    12.011    8.011749   -0.029473    1.449620
  15 N     7.0000    0    14.007    6.706497   -1.113369   -0.461276
  16 C     6.0000    0    12.011    5.970906   -3.777271   -0.386764
  17 C     6.0000    0    12.011    4.252510   -4.416444    1.888617
  18 C     6.0000    0    12.011    2.551337   -6.728371    1.423725
  19 C     6.0000    0    12.011    0.738300   -6.345672   -0.789905
  20 N     7.0000    0    14.007   -1.093195   -4.530081   -0.456544
  21 C     6.0000    0    12.011   -3.106651   -4.176290   -2.304735
  22 C     6.0000    0    12.011   -2.222665   -2.745482   -4.676664
  23 N     7.0000    0    14.007    0.121823   -1.657604   -4.516771
  24 C     6.0000    0    12.011    1.514405   -1.000554   -6.811932
  25 C     6.0000    0    12.011    3.446822   -3.016849   -7.537228
  26 O     8.0000    0    15.999   -3.549201   -2.626349   -6.580815
  27 C     6.0000    0    12.011   -5.398531   -2.949824   -1.007485
  28 C     6.0000    0    12.011   -7.814876   -2.711165   -2.597455
  29 C     6.0000    0    12.011   -8.780398   -5.288023   -3.494810
  30 C     6.0000    0    12.011   -9.834114   -1.325479   -1.050910
  31 O     8.0000    0    15.999    0.919613   -7.520947   -2.784574
  32 C     6.0000    0    12.011    1.077973   -7.468356    3.836412
  33 C     6.0000    0    12.011   -0.038115   -5.382296    5.466727
  34 C     6.0000    0    12.011   -2.941983   -5.551278    5.709572
  35 C     6.0000    0    12.011   -4.092785   -2.924636    6.055577
  36 C     6.0000    0    12.011   -6.958991   -2.911347    6.404221
  37 C     6.0000    0    12.011   -8.142757   -0.278022    6.120739
  38 C     6.0000    0    12.011   -7.102932    1.824160    7.833950
  39 C     6.0000    0    12.011   -7.559137    1.471988   10.686384
  40 C     6.0000    0    12.011   -5.570265   -0.084942   12.124267
  41 C     6.0000    0    12.011   -2.957645    1.154448   12.198576
  42 O     8.0000    0    15.999    0.745546   -9.688079    4.340360
  43 O     8.0000    0    15.999    5.651365   -5.013293    4.090994
  44 O     8.0000    0    15.999    8.901003   -1.241761    3.247389
  45 C     6.0000    0    12.011    9.649175    3.887549    3.673852
  46 C     6.0000    0    12.011   10.357972    6.677184    3.447611
  47 O     8.0000    0    15.999    3.512122    2.073926    3.244966
  48 C     6.0000    0    12.011   -0.807924    5.254018    2.013071
  49 C     6.0000    0    12.011   -0.664317    5.811653    4.852470
  50 C     6.0000    0    12.011   -2.012188    2.666835    1.509815
  51 H     1.0000    0     1.008    4.394271    6.407584   -7.406324
  52 H     1.0000    0     1.008    1.408794    9.801389   -8.117706
  53 H     1.0000    0     1.008   -0.850468    8.429377   -6.048946
  54 H     1.0000    0     1.008   -2.534423    7.228363  -10.211228
  55 H     1.0000    0     1.008    0.548969    6.567657  -11.369739
  56 H     1.0000    0     1.008   -2.490030    3.488645   -7.508057
  57 H     1.0000    0     1.008   -0.732565    2.381741  -10.141760
  58 H     1.0000    0     1.008    0.414471    3.991513   -2.719670
  59 H     1.0000    0     1.008    2.467916    7.510621    1.100539
  60 H     1.0000    0     1.008    6.269292    5.695408   -0.653828
  61 H     1.0000    0     1.008    9.776121    3.140841   -0.341743
  62 H     1.0000    0     1.008    6.043750   -0.009625   -1.908579
  63 H     1.0000    0     1.008    7.656836   -4.994872   -0.297162
  64 H     1.0000    0     1.008    5.001492   -4.193846   -2.174593
  65 H     1.0000    0     1.008    3.062731   -2.719012    2.207413
  66 H     1.0000    0     1.008    3.722231   -8.365992    0.924504
  67 H     1.0000    0     1.008   -1.264657   -3.666761    1.251545
  68 H     1.0000    0     1.008   -3.627217   -6.055426   -3.030564
  69 H     1.0000    0     1.008    1.151157   -2.104840   -2.953695
  70 H     1.0000    0     1.008    0.061054   -0.853553   -8.281803
  71 H     1.0000    0     1.008    2.525794   -4.871895   -7.615451
  72 H     1.0000    0     1.008    4.273341   -2.588823   -9.393999
  73 H     1.0000    0     1.008    4.993322   -3.087008   -6.158519
  74 H     1.0000    0     1.008   -4.849434   -1.067943   -0.308126
  75 H     1.0000    0     1.008   -5.828834   -4.103000    0.676587
  76 H     1.0000    0     1.008   -7.371751   -1.574751   -4.282638
  77 H     1.0000    0     1.008   -7.441561   -6.196854   -4.793707
  78 H     1.0000    0     1.008   -9.104557   -6.565366   -1.881945
  79 H     1.0000    0     1.008  -10.582800   -5.081112   -4.507092
  80 H     1.0000    0     1.008   -9.174769    0.550846   -0.443136
  81 H     1.0000    0     1.008  -11.569851   -1.061777   -2.161422
  82 H     1.0000    0     1.008  -10.336215   -2.401524    0.658951
  83 H     1.0000    0     1.008    0.508932   -3.505951    4.755143
  84 H     1.0000    0     1.008    0.861070   -5.535613    7.333938
  85 H     1.0000    0     1.008   -3.451960   -6.799228    7.289898
  86 H     1.0000    0     1.008   -3.752025   -6.444910    4.010100
  87 H     1.0000    0     1.008   -3.616208   -1.757839    4.390342
  88 H     1.0000    0     1.008   -3.165716   -1.978891    7.660683
  89 H     1.0000    0     1.008   -7.445339   -3.738857    8.252436
  90 H     1.0000    0     1.008   -7.822301   -4.170687    4.982599
  91 H     1.0000    0     1.008  -10.200749   -0.425371    6.418742
  92 H     1.0000    0     1.008   -7.898836    0.322941    4.138586
  93 H     1.0000    0     1.008   -8.007522    3.602246    7.236955
  94 H     1.0000    0     1.008   -5.069894    2.092361    7.469271
  95 H     1.0000    0     1.008   -9.439548    0.614043   10.963435
  96 H     1.0000    0     1.008   -7.654940    3.351151   11.584307
  97 H     1.0000    0     1.008   -5.415869   -1.991795   11.307614
  98 H     1.0000    0     1.008   -6.242413   -0.360631   14.076167
  99 H     1.0000    0     1.008   -1.609641    0.007523   13.285445
 100 H     1.0000    0     1.008   -2.158085    1.405755   10.296227
 101 H     1.0000    0     1.008   -3.051021    3.034536   13.084290
 102 H     1.0000    0     1.008    7.036471   -3.745880    4.171191
 103 H     1.0000    0     1.008   11.318907    2.734737    4.110936
 104 H     1.0000    0     1.008    8.308622    3.583053    5.231978
 105 H     1.0000    0     1.008   11.216786    7.362801    5.208851
 106 H     1.0000    0     1.008   11.729900    6.991855    1.914718
 107 H     1.0000    0     1.008    8.696995    7.864409    3.059289
 108 H     1.0000    0     1.008   -2.024063    6.705361    1.135914
 109 H     1.0000    0     1.008    0.182523    7.676063    5.211519
 110 H     1.0000    0     1.008   -2.570608    5.813089    5.677221
 111 H     1.0000    0     1.008    0.472631    4.379010    5.827295
 112 H     1.0000    0     1.008   -2.227586    2.261432   -0.520378
 113 H     1.0000    0     1.008   -0.859203    1.165255    2.355632
 114 H     1.0000    0     1.008   -3.911888    2.591689    2.346100

--------------------------------
INTERNAL COORDINATES (ANGSTROEM)
--------------------------------
 O      0   0   0     0.000000000000     0.00000000     0.00000000
 C      1   0   0     1.237262166534     0.00000000     0.00000000
 C      2   1   0     1.527111588437   120.25562447     0.00000000
 C      3   2   1     1.542351879583   112.20935374   269.18016955
 C      4   3   2     1.533801663802   103.56441457   208.66036075
 C      5   4   3     1.531553261594   103.42374206    37.97822103
 N      3   2   1     1.473545476191   114.07651812   151.89788149
 C      7   3   2     1.359562622833   119.71672988   304.12919191
 O      8   7   3     1.241828750452   121.16011603     1.53617237
 N      2   1   3     1.355598960219   123.58237545   183.39358385
 C     10   2   1     1.462583295179   122.92560811   354.91051142
 C     11  10   2     1.555814313986   110.71511203   279.59641206
 N     12  11  10     1.357405780379   112.72678225    57.12123528
 C     13  12  11     1.461409226353   123.34012312   175.70514267
 C     14  13  12     1.542109976740   111.70175223    46.28003326
 N     15  14  13     1.352255841807   116.37149997    46.65047555
 C     16  15  14     1.462963874169   121.63207499   185.35807751
 C     17  16  15     1.546319440567   112.84410120    59.96490947
 C     18  17  16     1.538725258125   113.17019492   154.50489357
 C     19  18  17     1.527638221635   112.62044146   298.74400261
 N     20  19  18     1.376051400932   115.88716707   293.52692905
 C     21  20  19     1.458359449921   121.21409443   186.90081230
 C     22  21  20     1.538685629395   112.83748961   282.92264871
 N     23  22  21     1.370320366283   115.56936508   349.13730711
 C     24  23  22     1.462556572541   120.31658006   159.56778611
 C     25  24  23     1.526906872609   112.33730724   262.41387710
 O     23  22  21     1.229660631254   121.34077902   168.49728934
 C     22  21  20     1.537329536365   109.33613472   155.79747759
 C     28  22  21     1.535862400846   116.54457150   186.77750663
 C     29  28  22     1.531661947728   111.98435183    59.70794581
 C     29  28  22     1.532719288495   109.10128707   183.03465272
 O     20  19  18     1.228882497194   122.85481254   111.59357007
 C     19  18  17     1.546378146450   111.36507532   173.98197714
 C     33  19  18     1.520427159156   118.71691643    41.06704841
 C     34  33  19     1.544615355068   113.05562449   119.45214821
 C     35  34  33     1.528517289877   110.71262181   210.11928099
 C     36  35  34     1.527926889555   114.46521823   181.99517373
 C     37  36  35     1.535167605041   113.41801231   193.63373087
 C     38  37  36     1.536938555737   116.95369654   304.30403372
 C     39  38  37     1.539944361677   115.75141672   294.94459268
 C     40  39  38     1.537999934337   116.26236592    86.93746601
 C     41  40  39     1.530721387930   113.65627814    65.10297026
 O     33  19  18     1.217296583120   119.87340657   218.12303765
 O     18  17  16     1.416326496130   112.46828796   273.39142972
 O     15  14  13     1.240171301074   120.35058842   224.27125316
 C     14  13  12     1.533875663171   112.15806863   280.82160340
 C     46  14  13     1.527814694401   112.54533117   300.15421184
 O     12  11  10     1.233627739134   123.64487262   237.69739678
 C     11  10   2     1.539224109335   110.16313984   151.34764490
 C     49  11  10     1.533132126801   111.64567686   188.58319365
 C     49  11  10     1.533430601522   113.15385910    62.13791736
 H      3   2   1     1.100112814451   105.63153383    31.13871120
 H      4   3   2     1.095536605757   111.56924252    85.71802414
 H      4   3   2     1.100611707729   109.49634545   326.27266588
 H      5   4   3     1.097019508228   113.08981025   159.60433236
 H      5   4   3     1.100066696475   110.25769299   280.66075688
 H      6   5   4     1.101811230999   111.89536685    85.75331801
 H      6   5   4     1.095685990391   112.65173058   207.33105930
 H     10   2   1     1.017529605774   117.51982714   191.68301629
 H     11  10   2     1.102051974068   105.59941356    34.29825146
 H     13  12  11     1.024950559330   117.34071157     3.87974765
 H     14  13  12     1.103589053868   105.63283041   162.13299907
 H     16  15  14     1.025043687524   119.45866234   358.52184194
 H     17  16  15     1.101520685807   110.44416268   298.52379429
 H     17  16  15     1.098552889964   107.12125936   181.93997335
 H     18  17  16     1.109819771494   105.95832775    34.34474104
 H     19  18  17     1.097582296272   109.63139164    56.42377617
 H     21  20  19     1.016831545275   119.37353920   354.34450329
 H     22  21  20     1.101015436301   107.50571194    36.57846249
 H     24  23  22     1.018271615964   115.90129435     8.32182355
 H     25  24  23     1.096605461757   104.62640308    21.63650885
 H     26  25  24     1.096764393617   109.71331282    52.21206447
 H     26  25  24     1.099102186047   110.31687507   172.45628642
 H     26  25  24     1.096996545947   110.86018942   291.71460763
 H     28  22  21     1.101411598138   108.88228658    62.72337708
 H     28  22  21     1.103822872855   106.84972793   308.13492482
 H     29  28  22     1.100846056387   108.14062766   301.03498352
 H     30  29  28     1.098038081423   111.64007055   295.29792271
 H     30  29  28     1.102165537222   110.96731825    56.41134588
 H     30  29  28     1.099387949990   110.59724009   175.82330051
 H     31  29  28     1.100474856573   111.51018759    57.69249645
 H     31  29  28     1.099308618370   110.96447972   177.95306042
 H     31  29  28     1.101604797999   111.06491360   297.65464858
 H     34  33  19     1.100673793265   111.01896632   355.24955154
 H     34  33  19     1.099685259880   106.74985004   241.25304704
 H     35  34  33     1.099223225464   110.01821780    87.13610703
 H     35  34  33     1.102792127293   110.10101506   331.26483655
 H     36  35  34     1.105150632839   108.76087825    60.25206504
 H     36  35  34     1.101178968735   109.15874274   306.16697143
 H     37  36  35     1.102062183432   109.70327099    69.39246762
 H     37  36  35     1.103971836753   109.00953762   314.25792208
 H     38  37  36     1.103159476441   108.94727298   180.63066899
 H     38  37  36     1.103633687335   107.86101688    66.27349819
 H     39  38  37     1.101944200006   107.06136324   173.92565625
 H     39  38  37     1.102184327906   109.83921776    60.08695425
 H     40  39  38     1.103530534844   108.74586025   323.07845192
 H     40  39  38     1.103267693591   108.67983812   208.36181040
 H     41  40  39     1.100745396202   110.34260243   301.50025962
 H     41  40  39     1.102125405769   108.28359626   186.26164058
 H     42  41  40     1.099089192921   111.28671008   178.45112033
 H     42  41  40     1.100050453619   112.06641686   298.49916857
 H     42  41  40     1.100884312056   110.95358474    58.44101130
 H     44  18  17     0.994414725066   105.66134920    42.98395772
 H     46  14  13     1.098347892344   107.87120297   177.57449258
 H     46  14  13     1.099563089920   108.05756836    63.10340705
 H     47  46  14     1.098549324980   110.74389180   180.39739565
 H     47  46  14     1.101269392110   111.44811384   300.13636352
 H     47  46  14     1.099764859690   111.74025125    60.59881886
 H     49  11  10     1.104294326412   104.67333489   305.02631312
 H     50  49  11     1.100138705800   111.22686942    53.09326087
 H     50  49  11     1.099130885140   110.10831458   172.44982435
 H     50  49  11     1.096738383492   110.80043278   292.47653256
 H     51  49  11     1.101455828686   112.72411681   303.69446619
 H     51  49  11     1.097264401017   110.15880855    64.81288884
 H     51  49  11     1.099094886345   110.02839843   184.45251683

---------------------------
INTERNAL COORDINATES (A.U.)
---------------------------
 O      0   0   0     0.000000000000     0.00000000     0.00000000
 C      1   0   0     2.338086650612     0.00000000     0.00000000
 C      2   1   0     2.885822678083   120.25562447     0.00000000
 C      3   2   1     2.914622654551   112.20935374   269.18016955
 C      4   3   2     2.898465088339   103.56441457   208.66036075
 C      5   4   3     2.894216223927   103.42374206    37.97822103
 N      3   2   1     2.784597395880   114.07651812   151.89788149
 C      7   3   2     2.569201019070   119.71672988   304.12919191
 O      8   7   3     2.346716243584   121.16011603     1.53617237
 N      2   1   3     2.561710782243   123.58237545   183.39358385
 C     10   2   1     2.763881875937   122.92560811   354.91051142
 C     11  10   2     2.940062968667   110.71511203   279.59641206
 N     12  11  10     2.565125177517   112.72678225    57.12123528
 C     13  12  11     2.761663207393   123.34012312   175.70514267
 C     14  13  12     2.914165524426   111.70175223    46.28003326
 N     15  14  13     2.555393204010   116.37149997    46.65047555
 C     16  15  14     2.764601065999   121.63207499   185.35807751
 C     17  16  15     2.922120258229   112.84410120    59.96490947
 C     18  17  16     2.907769333204   113.17019492   154.50489357
 C     19  18  17     2.886817870600   112.62044146   298.74400261
 N     20  19  18     2.600360293959   115.88716707   293.52692905
 C     21  20  19     2.755899965166   121.21409443   186.90081230
 C     22  21  20     2.907694445758   112.83748961   282.92264871
 N     23  22  21     2.589530208009   115.56936508   349.13730711
 C     24  23  22     2.763831377470   120.31658006   159.56778611
 C     25  24  23     2.885435821234   112.33730724   262.41387710
 O     23  22  21     2.323721830736   121.34077902   168.49728934
 C     22  21  20     2.905131801319   109.33613472   155.79747759
 C     28  22  21     2.902359316985   116.54457150   186.77750663
 C     29  28  22     2.894421610954   111.98435183    59.70794581
 C     29  28  22     2.896419695435   109.10128707   183.03465272
 O     20  19  18     2.322251370466   122.85481254   111.59357007
 C     19  18  17     2.922231196271   111.36507532   173.98197714
 C     33  19  18     2.873190937381   118.71691643    41.06704841
 C     34  33  19     2.918900003328   113.05562449   119.45214821
 C     35  34  33     2.888479068831   110.71262181   210.11928099
 C     36  35  34     2.887363373913   114.46521823   181.99517373
 C     37  36  35     2.901046343196   113.41801231   193.63373087
 C     38  37  36     2.904392955008   116.95369654   304.30403372
 C     39  38  37     2.910073105045   115.75141672   294.94459268
 C     40  39  38     2.906398669886   116.26236592    86.93746601
 C     41  40  39     2.892644210523   113.65627814    65.10297026
 O     33  19  18     2.300357165855   119.87340657   218.12303765
 O     18  17  16     2.676469193901   112.46828796   273.39142972
 O     15  14  13     2.343584118178   120.35058842   224.27125316
 C     14  13  12     2.898604926881   112.15806863   280.82160340
 C     46  14  13     2.887151355799   112.54533117   300.15421184
 O     12  11  10     2.331218578171   123.64487262   237.69739678
 C     11  10   2     2.908712025372   110.16313984   151.34764490
 C     49  11  10     2.897199846770   111.64567686   188.58319365
 C     49  11  10     2.897763882251   113.15385910    62.13791736
 H      3   2   1     2.078911935730   105.63153383    31.13871120
 H      4   3   2     2.070264154567   111.56924252    85.71802414
 H      4   3   2     2.079854707395   109.49634545   326.27266588
 H      5   4   3     2.073066434120   113.08981025   159.60433236
 H      5   4   3     2.078824785386   110.25769299   280.66075688
 H      6   5   4     2.082121477867   111.89536685    85.75331801
[...]
      equations for an ideal gas
  (5) All vibrations are strictly harmonic

freq.       8.17  E(vib)   ...       0.58 
freq.      10.99  E(vib)   ...       0.58 
freq.      16.66  E(vib)   ...       0.57 
freq.      21.77  E(vib)   ...       0.56 
freq.      24.86  E(vib)   ...       0.56 
freq.      29.42  E(vib)   ...       0.55 
freq.      33.21  E(vib)   ...       0.55 
freq.      37.11  E(vib)   ...       0.54 
freq.      38.88  E(vib)   ...       0.54 
freq.      43.99  E(vib)   ...       0.53 
freq.      49.64  E(vib)   ...       0.52 
freq.      52.69  E(vib)   ...       0.52 
freq.      57.44  E(vib)   ...       0.51 
freq.      58.98  E(vib)   ...       0.51 
freq.      60.62  E(vib)   ...       0.51 
freq.      63.78  E(vib)   ...       0.51 
freq.      67.57  E(vib)   ...       0.50 
freq.      69.24  E(vib)   ...       0.50 
freq.      77.13  E(vib)   ...       0.49 
freq.      81.96  E(vib)   ...       0.48 
freq.      85.29  E(vib)   ...       0.48 
freq.      89.04  E(vib)   ...       0.47 
freq.      95.16  E(vib)   ...       0.47 
freq.      99.03  E(vib)   ...       0.46 
freq.     108.80  E(vib)   ...       0.45 
freq.     110.64  E(vib)   ...       0.45 
freq.     115.41  E(vib)   ...       0.44 
freq.     117.50  E(vib)   ...       0.44 
freq.     122.84  E(vib)   ...       0.43 
freq.     131.03  E(vib)   ...       0.42 
freq.     133.83  E(vib)   ...       0.42 
freq.     140.01  E(vib)   ...       0.41 
freq.     150.63  E(vib)   ...       0.40 
freq.     157.41  E(vib)   ...       0.40 
freq.     160.24  E(vib)   ...       0.39 
freq.     165.08  E(vib)   ...       0.39 
freq.     171.02  E(vib)   ...       0.38 
freq.     177.76  E(vib)   ...       0.37 
freq.     184.98  E(vib)   ...       0.37 
freq.     192.55  E(vib)   ...       0.36 
freq.     206.55  E(vib)   ...       0.35 
freq.     212.54  E(vib)   ...       0.34 
freq.     215.71  E(vib)   ...       0.34 
freq.     222.19  E(vib)   ...       0.33 
freq.     226.12  E(vib)   ...       0.33 
freq.     227.49  E(vib)   ...       0.33 
freq.     227.94  E(vib)   ...       0.33 
freq.     232.40  E(vib)   ...       0.32 
freq.     234.04  E(vib)   ...       0.32 
freq.     236.46  E(vib)   ...       0.32 
freq.     243.07  E(vib)   ...       0.31 
freq.     245.81  E(vib)   ...       0.31 
freq.     251.90  E(vib)   ...       0.30 
freq.     257.61  E(vib)   ...       0.30 
freq.     263.46  E(vib)   ...       0.29 
freq.     269.58  E(vib)   ...       0.29 
freq.     272.61  E(vib)   ...       0.29 
freq.     280.32  E(vib)   ...       0.28 
freq.     286.19  E(vib)   ...       0.27 
freq.     288.55  E(vib)   ...       0.27 
freq.     293.70  E(vib)   ...       0.27 
freq.     302.30  E(vib)   ...       0.26 
freq.     313.80  E(vib)   ...       0.25 
freq.     315.83  E(vib)   ...       0.25 
freq.     339.28  E(vib)   ...       0.23 
freq.     343.35  E(vib)   ...       0.23 
freq.     349.92  E(vib)   ...       0.23 
freq.     366.31  E(vib)   ...       0.22 
freq.     375.27  E(vib)   ...       0.21 
freq.     387.04  E(vib)   ...       0.20 
freq.     387.66  E(vib)   ...       0.20 
freq.     391.46  E(vib)   ...       0.20 
freq.     395.59  E(vib)   ...       0.20 
freq.     404.65  E(vib)   ...       0.19 
freq.     417.87  E(vib)   ...       0.18 
freq.     420.56  E(vib)   ...       0.18 
freq.     430.37  E(vib)   ...       0.18 
freq.     440.46  E(vib)   ...       0.17 
freq.     445.57  E(vib)   ...       0.17 
freq.     449.75  E(vib)   ...       0.17 
freq.     454.62  E(vib)   ...       0.16 
freq.     473.69  E(vib)   ...       0.15 
freq.     484.75  E(vib)   ...       0.15 
freq.     488.71  E(vib)   ...       0.15 
freq.     511.95  E(vib)   ...       0.14 
freq.     521.83  E(vib)   ...       0.13 
freq.     526.08  E(vib)   ...       0.13 
freq.     538.07  E(vib)   ...       0.12 
freq.     557.14  E(vib)   ...       0.12 
freq.     575.07  E(vib)   ...       0.11 
freq.     585.51  E(vib)   ...       0.11 
freq.     590.81  E(vib)   ...       0.10 
freq.     604.50  E(vib)   ...       0.10 
freq.     619.38  E(vib)   ...       0.09 
freq.     637.92  E(vib)   ...       0.09 
freq.     648.70  E(vib)   ...       0.08 
freq.     668.77  E(vib)   ...       0.08 
freq.     684.00  E(vib)   ...       0.07 
freq.     689.54  E(vib)   ...       0.07 
freq.     692.35  E(vib)   ...       0.07 
freq.     699.13  E(vib)   ...       0.07 
freq.     700.03  E(vib)   ...       0.07 
freq.     713.09  E(vib)   ...       0.07 
freq.     715.69  E(vib)   ...       0.07 
freq.     722.50  E(vib)   ...       0.07 
freq.     724.96  E(vib)   ...       0.06 
freq.     739.39  E(vib)   ...       0.06 
freq.     746.03  E(vib)   ...       0.06 
freq.     752.25  E(vib)   ...       0.06 
freq.     755.64  E(vib)   ...       0.06 
freq.     766.34  E(vib)   ...       0.06 
freq.     777.90  E(vib)   ...       0.05 
freq.     778.47  E(vib)   ...       0.05 
freq.     797.38  E(vib)   ...       0.05 
freq.     805.56  E(vib)   ...       0.05 
freq.     812.80  E(vib)   ...       0.05 
freq.     818.25  E(vib)   ...       0.05 
freq.     828.06  E(vib)   ...       0.04 
freq.     840.44  E(vib)   ...       0.04 
freq.     845.11  E(vib)   ...       0.04 
freq.     857.11  E(vib)   ...       0.04 
freq.     862.17  E(vib)   ...       0.04 
freq.     873.96  E(vib)   ...       0.04 
freq.     876.42  E(vib)   ...       0.04 
freq.     883.16  E(vib)   ...       0.04 
freq.     886.48  E(vib)   ...       0.04 
freq.     898.74  E(vib)   ...       0.03 
freq.     901.22  E(vib)   ...       0.03 
freq.     902.80  E(vib)   ...       0.03 
freq.     906.29  E(vib)   ...       0.03 
freq.     910.49  E(vib)   ...       0.03 
freq.     920.62  E(vib)   ...       0.03 
freq.     922.31  E(vib)   ...       0.03 
freq.     922.65  E(vib)   ...       0.03 
freq.     938.70  E(vib)   ...       0.03 
freq.     943.00  E(vib)   ...       0.03 
freq.     948.01  E(vib)   ...       0.03 
freq.     948.64  E(vib)   ...       0.03 
freq.     955.30  E(vib)   ...       0.03 
freq.     959.31  E(vib)   ...       0.03 
freq.     963.92  E(vib)   ...       0.03 
freq.     971.85  E(vib)   ...       0.03 
freq.     983.67  E(vib)   ...       0.02 
freq.     988.17  E(vib)   ...       0.02 
freq.     996.29  E(vib)   ...       0.02 
freq.    1005.02  E(vib)   ...       0.02 
freq.    1019.46  E(vib)   ...       0.02 
freq.    1021.28  E(vib)   ...       0.02 
freq.    1027.51  E(vib)   ...       0.02 
freq.    1034.37  E(vib)   ...       0.02 
freq.    1035.42  E(vib)   ...       0.02 
freq.    1036.76  E(vib)   ...       0.02 
freq.    1044.57  E(vib)   ...       0.02 
freq.    1044.74  E(vib)   ...       0.02 
freq.    1055.43  E(vib)   ...       0.02 
freq.    1057.38  E(vib)   ...       0.02 
freq.    1059.26  E(vib)   ...       0.02 
freq.    1070.00  E(vib)   ...       0.02 
freq.    1076.88  E(vib)   ...       0.02 
freq.    1080.09  E(vib)   ...       0.02 
freq.    1082.87  E(vib)   ...       0.02 
freq.    1087.19  E(vib)   ...       0.02 
freq.    1089.07  E(vib)   ...       0.02 
freq.    1092.27  E(vib)   ...       0.02 
freq.    1100.13  E(vib)   ...       0.02 
freq.    1104.78  E(vib)   ...       0.02 
freq.    1108.64  E(vib)   ...       0.02 
freq.    1117.29  E(vib)   ...       0.01 
freq.    1123.12  E(vib)   ...       0.01 
freq.    1125.02  E(vib)   ...       0.01 
freq.    1131.57  E(vib)   ...       0.01 
freq.    1136.51  E(vib)   ...       0.01 
freq.    1140.00  E(vib)   ...       0.01 
freq.    1144.31  E(vib)   ...       0.01 
freq.    1160.09  E(vib)   ...       0.01 
freq.    1165.86  E(vib)   ...       0.01 
freq.    1168.54  E(vib)   ...       0.01 
freq.    1177.75  E(vib)   ...       0.01 
freq.    1181.65  E(vib)   ...       0.01 
freq.    1184.41  E(vib)   ...       0.01 
freq.    1188.23  E(vib)   ...       0.01 
freq.    1203.48  E(vib)   ...       0.01 
freq.    1207.11  E(vib)   ...       0.01 
freq.    1209.72  E(vib)   ...       0.01 
freq.    1212.79  E(vib)   ...       0.01 
freq.    1217.75  E(vib)   ...       0.01 
freq.    1221.40  E(vib)   ...       0.01 
freq.    1228.66  E(vib)   ...       0.01 
freq.    1229.98  E(vib)   ...       0.01 
freq.    1234.58  E(vib)   ...       0.01 
freq.    1238.56  E(vib)   ...       0.01 
freq.    1242.17  E(vib)   ...       0.01 
freq.    1252.13  E(vib)   ...       0.01 
freq.    1254.74  E(vib)   ...       0.01 
freq.    1257.38  E(vib)   ...       0.01 
freq.    1260.50  E(vib)   ...       0.01 
freq.    1273.47  E(vib)   ...       0.01 
freq.    1276.71  E(vib)   ...       0.01 
freq.    1285.36  E(vib)   ...       0.01 
freq.    1285.66  E(vib)   ...       0.01 
freq.    1286.31  E(vib)   ...       0.01 
freq.    1286.62  E(vib)   ...       0.01 
freq.    1288.37  E(vib)   ...       0.01 
freq.    1290.94  E(vib)   ...       0.01 
freq.    1292.83  E(vib)   ...       0.01 
freq.    1299.56  E(vib)   ...       0.01 
freq.    1300.86  E(vib)   ...       0.01 
freq.    1302.42  E(vib)   ...       0.01 
freq.    1306.80  E(vib)   ...       0.01 
freq.    1309.76  E(vib)   ...       0.01 
freq.    1311.12  E(vib)   ...       0.01 
freq.    1314.07  E(vib)   ...       0.01 
freq.    1315.97  E(vib)   ...       0.01 
freq.    1318.90  E(vib)   ...       0.01 
freq.    1321.90  E(vib)   ...       0.01 
freq.    1325.72  E(vib)   ...       0.01 
freq.    1328.50  E(vib)   ...       0.01 
freq.    1329.14  E(vib)   ...       0.01 
freq.    1329.63  E(vib)   ...       0.01 
freq.    1337.84  E(vib)   ...       0.01 
freq.    1340.11  E(vib)   ...       0.01 
freq.    1341.21  E(vib)   ...       0.01 
freq.    1344.04  E(vib)   ...       0.01 
freq.    1348.20  E(vib)   ...       0.01 
freq.    1349.57  E(vib)   ...       0.01 
freq.    1351.02  E(vib)   ...       0.01 
freq.    1354.50  E(vib)   ...       0.01 
freq.    1355.75  E(vib)   ...       0.01 
freq.    1359.12  E(vib)   ...       0.01 
freq.    1364.86  E(vib)   ...       0.01 
freq.    1365.28  E(vib)   ...       0.01 
freq.    1366.27  E(vib)   ...       0.01 
freq.    1371.13  E(vib)   ...       0.01 
freq.    1409.20  E(vib)   ...       0.00 
freq.    1420.69  E(vib)   ...       0.00 
freq.    1423.66  E(vib)   ...       0.00 
freq.    1427.48  E(vib)   ...       0.00 
freq.    1428.51  E(vib)   ...       0.00 
freq.    1432.97  E(vib)   ...       0.00 
freq.    1433.39  E(vib)   ...       0.00 
freq.    1433.67  E(vib)   ...       0.00 
freq.    1434.99  E(vib)   ...       0.00 
freq.    1435.71  E(vib)   ...       0.00 
freq.    1438.10  E(vib)   ...       0.00 
freq.    1440.19  E(vib)   ...       0.00 
freq.    1441.19  E(vib)   ...       0.00 
freq.    1443.33  E(vib)   ...       0.00 
freq.    1444.39  E(vib)   ...       0.00 
freq.    1444.68  E(vib)   ...       0.00 
freq.    1446.10  E(vib)   ...       0.00 
freq.    1447.53  E(vib)   ...       0.00 
freq.    1449.71  E(vib)   ...       0.00 
freq.    1451.38  E(vib)   ...       0.00 
freq.    1451.95  E(vib)   ...       0.00 
freq.    1453.29  E(vib)   ...       0.00 
freq.    1454.18  E(vib)   ...       0.00 
freq.    1455.85  E(vib)   ...       0.00 
freq.    1456.68  E(vib)   ...       0.00 
freq.    1459.59  E(vib)   ...       0.00 
freq.    1459.75  E(vib)   ...       0.00 
freq.    1461.82  E(vib)   ...       0.00 
freq.    1464.45  E(vib)   ...       0.00 
freq.    1465.63  E(vib)   ...       0.00 
freq.    1468.57  E(vib)   ...       0.00 
freq.    1469.41  E(vib)   ...       0.00 
freq.    1484.87  E(vib)   ...       0.00 
freq.    1520.75  E(vib)   ...       0.00 
freq.    1528.68  E(vib)   ...       0.00 
freq.    1628.64  E(vib)   ...       0.00 
freq.    1650.00  E(vib)   ...       0.00 
freq.    1658.84  E(vib)   ...       0.00 
freq.    1674.05  E(vib)   ...       0.00 
freq.    1677.18  E(vib)   ...       0.00 
freq.    1681.86  E(vib)   ...       0.00 
freq.    1721.24  E(vib)   ...       0.00 
freq.    2871.97  E(vib)   ...       0.00 
freq.    2931.66  E(vib)   ...       0.00 
freq.    2934.23  E(vib)   ...       0.00 
freq.    2935.08  E(vib)   ...       0.00 
freq.    2935.98  E(vib)   ...       0.00 
freq.    2941.92  E(vib)   ...       0.00 
freq.    2944.42  E(vib)   ...       0.00 
freq.    2950.36  E(vib)   ...       0.00 
freq.    2951.32  E(vib)   ...       0.00 
freq.    2954.02  E(vib)   ...       0.00 
freq.    2954.20  E(vib)   ...       0.00 
freq.    2955.95  E(vib)   ...       0.00 
freq.    2956.48  E(vib)   ...       0.00 
freq.    2959.30  E(vib)   ...       0.00 
freq.    2959.37  E(vib)   ...       0.00 
freq.    2959.72  E(vib)   ...       0.00 
freq.    2961.45  E(vib)   ...       0.00 
freq.    2965.44  E(vib)   ...       0.00 
freq.    2968.36  E(vib)   ...       0.00 
freq.    2970.36  E(vib)   ...       0.00 
freq.    2972.18  E(vib)   ...       0.00 
freq.    2975.24  E(vib)   ...       0.00 
freq.    2975.27  E(vib)   ...       0.00 
freq.    2977.44  E(vib)   ...       0.00 
freq.    2978.09  E(vib)   ...       0.00 
freq.    2979.38  E(vib)   ...       0.00 
freq.    2981.28  E(vib)   ...       0.00 
freq.    2984.51  E(vib)   ...       0.00 
freq.    2987.36  E(vib)   ...       0.00 
freq.    2989.49  E(vib)   ...       0.00 
freq.    2992.82  E(vib)   ...       0.00 
freq.    2993.15  E(vib)   ...       0.00 
freq.    2994.98  E(vib)   ...       0.00 
freq.    2995.60  E(vib)   ...       0.00 
freq.    3002.60  E(vib)   ...       0.00 
freq.    3006.87  E(vib)   ...       0.00 
freq.    3013.80  E(vib)   ...       0.00 
freq.    3015.84  E(vib)   ...       0.00 
freq.    3018.26  E(vib)   ...       0.00 
freq.    3023.05  E(vib)   ...       0.00 
freq.    3023.54  E(vib)   ...       0.00 
freq.    3023.77  E(vib)   ...       0.00 
freq.    3029.25  E(vib)   ...       0.00 
freq.    3029.77  E(vib)   ...       0.00 
freq.    3030.37  E(vib)   ...       0.00 
freq.    3031.33  E(vib)   ...       0.00 
freq.    3032.05  E(vib)   ...       0.00 
freq.    3032.63  E(vib)   ...       0.00 
freq.    3035.83  E(vib)   ...       0.00 
freq.    3042.37  E(vib)   ...       0.00 
freq.    3042.44  E(vib)   ...       0.00 
freq.    3042.67  E(vib)   ...       0.00 
freq.    3048.57  E(vib)   ...       0.00 
freq.    3053.14  E(vib)   ...       0.00 
freq.    3054.90  E(vib)   ...       0.00 
freq.    3061.04  E(vib)   ...       0.00 
freq.    3061.71  E(vib)   ...       0.00 
freq.    3073.11  E(vib)   ...       0.00 
freq.    3279.40  E(vib)   ...       0.00 
freq.    3341.87  E(vib)   ...       0.00 
freq.    3357.87  E(vib)   ...       0.00 
freq.    3471.87  E(vib)   ...       0.00 
freq.    3480.30  E(vib)   ...       0.00 
freq.    3489.80  E(vib)   ...       0.00 

------------
INNER ENERGY
------------

The inner energy is: U= E(el) + E(ZPE) + E(vib) + E(rot) + E(trans)
    E(el)   - is the total energy from the electronic structure calculation
              = E(kin-el) + E(nuc-el) + E(el-el) + E(nuc-nuc)
    E(ZPE)  - the the zero temperature vibrational energy from the frequency calculation
    E(vib)  - the the finite temperature correction to E(ZPE) due to population
              of excited vibrational states
    E(rot)  - is the rotational thermal energy
    E(trans)- is the translational thermal energy

Summary of contributions to the inner energy U:
Electronic energy                ...  -2380.07596449 Eh
Zero point energy                ...      0.97833153 Eh     613.91 kcal/mol
Thermal vibrational correction   ...      0.05524880 Eh      34.67 kcal/mol
Thermal rotational correction    ...      0.00141627 Eh       0.89 kcal/mol
Thermal translational correction ...      0.00141627 Eh       0.89 kcal/mol
-----------------------------------------------------------------------
Total thermal energy                  -2379.03955162 Eh


Summary of corrections to the electronic energy:
(perhaps to be used in another calculation)
Total thermal correction                  0.05808134 Eh      36.45 kcal/mol
Non-thermal (ZPE) correction              0.97833153 Eh     613.91 kcal/mol
-----------------------------------------------------------------------
Total correction                          1.03641287 Eh     650.36 kcal/mol


--------
ENTHALPY
--------

The enthalpy is H = U + kB*T
                kB is Boltzmann's constant
Total free energy                 ...  -2379.03955162 Eh 
Thermal Enthalpy correction       ...      0.00094421 Eh       0.59 kcal/mol
-----------------------------------------------------------------------
Total Enthalpy                    ...  -2379.03860741 Eh


Note: Only C1 symmetry has been detected, increase convergence thresholds 
      if your molecule has a higher symmetry. Symmetry factor of 1.0 is   
      used for the rotational entropy correction. 
 

Note: Rotational entropy computed according to Herzberg 
Infrared and Raman Spectra, Chapter V,1, Van Nostrand Reinhold, 1945 
Point Group:  C1, Symmetry Number:   1  
Rotational constants in cm-1:     0.002061     0.001590     0.001436 

Vibrational entropy computed according to the QRRHO of S. Grimme
Chem.Eur.J. 2012 18 9955


-------
ENTROPY
-------

The entropy contributions are T*S = T*(S(el)+S(vib)+S(rot)+S(trans))
     S(el)   - electronic entropy
     S(vib)  - vibrational entropy
     S(rot)  - rotational entropy
     S(trans)- translational entropy
The entropies will be listed as mutliplied by the temperature to get
units of energy

Electronic entropy                ...      0.00000000 Eh      0.00 kcal/mol
Vibrational entropy               ...      0.10120224 Eh     63.51 kcal/mol
Rotational entropy                ...      0.01856275 Eh     11.65 kcal/mol
Translational entropy             ...      0.02166895 Eh     13.60 kcal/mol
-----------------------------------------------------------------------
Final entropy term                ...      0.14143394 Eh     88.75 kcal/mol

In case the symmetry of your molecule has not been determined correctly
or in case you have a reason to use a different symmetry number we print 
out the resulting rotational entropy values for sn=1,12 :
 --------------------------------------------------------
|  sn= 1 | S(rot)=       0.01856275 Eh     11.65 kcal/mol|
|  sn= 2 | S(rot)=       0.01790830 Eh     11.24 kcal/mol|
|  sn= 3 | S(rot)=       0.01752546 Eh     11.00 kcal/mol|
|  sn= 4 | S(rot)=       0.01725384 Eh     10.83 kcal/mol|
|  sn= 5 | S(rot)=       0.01704315 Eh     10.69 kcal/mol|
|  sn= 6 | S(rot)=       0.01687101 Eh     10.59 kcal/mol|
|  sn= 7 | S(rot)=       0.01672546 Eh     10.50 kcal/mol|
|  sn= 8 | S(rot)=       0.01659938 Eh     10.42 kcal/mol|
|  sn= 9 | S(rot)=       0.01648817 Eh     10.35 kcal/mol|
|  sn=10 | S(rot)=       0.01638870 Eh     10.28 kcal/mol|
|  sn=11 | S(rot)=       0.01629871 Eh     10.23 kcal/mol|
|  sn=12 | S(rot)=       0.01621655 Eh     10.18 kcal/mol|
 --------------------------------------------------------


-------------------
GIBBS FREE ENERGY
-------------------

The Gibbs free energy is G = H - T*S

Total enthalpy                    ...  -2379.03860741 Eh 
Total entropy correction          ...     -0.14143394 Eh    -88.75 kcal/mol
-----------------------------------------------------------------------
Final Gibbs free energy         ...  -2379.18004135 Eh

For completeness - the Gibbs free energy minus the electronic energy
G-E(el)                           ...      0.89592314 Eh    562.20 kcal/mol


Timings for individual modules:

Sum of individual times         ...    25706.517 sec (= 428.442 min)
GTO integral calculation        ...       13.494 sec (=   0.225 min)   0.1 %
SCF iterations                  ...      290.439 sec (=   4.841 min)   1.1 %
SCF Gradient evaluation         ...       61.073 sec (=   1.018 min)   0.2 %
Geometry relaxation             ...        2.171 sec (=   0.036 min)   0.0 %
Analytical frequency calculation...    25339.340 sec (= 422.322 min)  98.6 %
                             ****ORCA TERMINATED NORMALLY****
TOTAL RUN TIME: 0 days 7 hours 8 minutes 39 seconds 660 msec
