
                                 *****************
                                 * O   R   C   A *
                                 *****************

           --- An Ab Initio, DFT and Semiempirical electronic structure package ---

                  #######################################################
                  #                        -***-                        #
                  #          Department of theory and spectroscopy      #
                  #               Directorship: Frank Neese             #
                  #        Max Planck Institute fuer Kohlenforschung    #
                  #                Kaiser Wilhelm Platz 1               #
                  #                 D-45470 Muelheim/Ruhr               #
                  #                      Germany                        #
                  #                                                     #
                  #                  All rights reserved                #
                  #                        -***-                        #
                  #######################################################


                         Program Version 4.2.0 -  RELEASE  -


 With contributions from (in alphabetic order):
   Daniel Aravena         : Magnetic Suceptibility
   Michael Atanasov       : Ab Initio Ligand Field Theory (pilot matlab implementation)
   Alexander A. Auer      : GIAO ZORA, VPT2
   Ute Becker             : Parallelization
   Giovanni Bistoni       : ED, misc. LED, open-shell LED, HFLED
   Martin Brehm           : Molecular dynamics
   Dmytro Bykov           : SCF Hessian
   Vijay G. Chilkuri      : MRCI spin determinant printing, contributions to CSF-ICE
   Dipayan Datta          : RHF DLPNO-CCSD density
   Achintya Kumar Dutta   : EOM-CC, STEOM-CC
   Dmitry Ganyushin       : Spin-Orbit,Spin-Spin,Magnetic field MRCI
   Miquel Garcia          : C-PCM Hessian, Gaussian charge scheme
   Yang Guo               : DLPNO-NEVPT2, CIM, IAO-localization
   Andreas Hansen         : Spin unrestricted coupled pair/coupled cluster methods
   Benjamin Helmich-Paris : CASSCF linear response (MC-RPA)
   Lee Huntington         : MR-EOM, pCC
   Robert Izsak           : Overlap fitted RIJCOSX, COSX-SCS-MP3, EOM
   Christian Kollmar      : KDIIS, OOCD, Brueckner-CCSD(T), CCSD density
   Simone Kossmann        : Meta GGA functionals, TD-DFT gradient, OOMP2, MP2 Hessian
   Martin Krupicka        : AUTO-CI
   Lucas Lang             : DCDCAS
   Dagmar Lenk            : GEPOL surface, SMD
   Dimitrios Liakos       : Extrapolation schemes; Compound Job, initial MDCI parallelization
   Dimitrios Manganas     : Further ROCIS development; embedding schemes
   Dimitrios Pantazis     : SARC Basis sets
   Taras Petrenko         : DFT Hessian,TD-DFT gradient, ASA, ECA, R-Raman, ABS, FL, XAS/XES, NRVS
   Peter Pinski           : DLPNO-MP2, DLPNO-MP2 Gradient
   Christoph Reimann      : Effective Core Potentials
   Marius Retegan         : Local ZFS, SOC
   Christoph Riplinger    : Optimizer, TS searches, QM/MM, DLPNO-CCSD(T), (RO)-DLPNO pert. Triples
   Tobias Risthaus        : Range-separated hybrids, TD-DFT gradient, RPA, STAB
   Michael Roemelt        : Original ROCIS implementation
   Masaaki Saitow         : Open-shell DLPNO-CCSD energy and density
   Barbara Sandhoefer     : DKH picture change effects
   Avijit Sen             : IP-ROCIS
   Kantharuban Sivalingam : CASSCF convergence, NEVPT2, FIC-MRCI
   Bernardo de Souza      : ESD, SOC TD-DFT
   Georgi Stoychev        : AutoAux, RI-MP2 NMR
   Willem Van den Heuvel  : Paramagnetic NMR
   Boris Wezisla          : Elementary symmetry handling
   Frank Wennmohs         : Technical directorship


 We gratefully acknowledge several colleagues who have allowed us to
 interface, adapt or use parts of their codes:
   Stefan Grimme, W. Hujo, H. Kruse,             : VdW corrections, initial TS optimization,
                  C. Bannwarth                     DFT functionals, gCP, sTDA/sTD-DF
   Ed Valeev, F. Pavosevic, A. Kumar             : LibInt (2-el integral package), F12 methods
   Garnet Chan, S. Sharma, J. Yang, R. Olivares  : DMRG
   Ulf Ekstrom                                   : XCFun DFT Library
   Mihaly Kallay                                 : mrcc  (arbitrary order and MRCC methods)
   Andreas Klamt, Michael Diedenhofen            : otool_cosmo (COSMO solvation model)
   Jiri Pittner, Ondrej Demel                    : Mk-CCSD
   Frank Weinhold                                : gennbo (NPA and NBO analysis)
   Christopher J. Cramer and Donald G. Truhlar   : smd solvation model
   Lars Goerigk                                  : TD-DFT with DH, B97 family of functionals
   V. Asgeirsson, H. Jonsson                     : NEB implementation
   FAccTs GmbH                                   : IRC, NEB, NEB-TS, Multilevel, MM, QM/MM, CI optimization
   S Lehtola, MJT Oliveira, MAL Marques          : LibXC Library


 Your calculation uses the libint2 library for the computation of 2-el integrals
 For citations please refer to: http://libint.valeyev.net

 Your ORCA version has been built with support for libXC version: 4.2.3
 For citations please refer to: https://tddft.org/programs/libxc/

 This ORCA versions uses:
   CBLAS   interface :  Fast vector & matrix operations
   LAPACKE interface :  Fast linear algebra routines
   SCALAPACK package :  Parallel linear algebra routines




***************************************
The coordinates will be read from file: 35.xyz
***************************************


Your calculation utilizes the atom-pairwise dispersion correction
with the Becke-Johnson damping scheme (D3BJ)
Cite in your paper:
S.Grimme, S.Ehrlich, L.Goerigk, J Comput Chem, (2011), 32, 1456–1465 
S.Grimme, J.Antony, S.Ehrlich and H.Krieg, J.Chem.Phys., 132, (2010), 154104 
   

----- Orbital basis set information -----
Your calculation utilizes the basis: def2-TZVP
   F. Weigend and R. Ahlrichs, Phys. Chem. Chem. Phys. 7, 3297 (2005).

----- AuxJ basis set information -----
Your calculation utilizes the auxiliary basis: def2/J
   F. Weigend, Phys. Chem. Chem. Phys. 8, 1057 (2006).

================================================================================
                                        WARNINGS
                       Please study these warnings very carefully!
================================================================================


WARNING: Geometry Optimization
  ===> : Switching off AutoStart
         For restart on a previous wavefunction, please use MOREAD

INFO   : the flag for use of LIBINT has been found!

================================================================================
                                       INPUT FILE
================================================================================
NAME = 35.inp
|  1> !RI BP86 def2-tzvp def2/J D3BJ TIGHTSCF TightOpt Grid5 FinalGrid6 freq
|  2> %maxcore 4000
|  3> %pal nprocs 24
|  4> end
|  5> * xyzfile 0 1 35.xyz 
|  6> 
|  7>                          ****END OF INPUT****
================================================================================

                       *****************************
                       * Geometry Optimization Run *
                       *****************************

Geometry optimization settings:
Update method            Update   .... BFGS
Choice of coordinates    CoordSys .... Z-matrix Internals
Initial Hessian          InHess   .... Almoef's Model

Convergence Tolerances:
Energy Change            TolE     ....  1.0000e-06 Eh
Max. Gradient            TolMAXG  ....  1.0000e-04 Eh/bohr
RMS Gradient             TolRMSG  ....  3.0000e-05 Eh/bohr
Max. Displacement        TolMAXD  ....  1.0000e-03 bohr
RMS Displacement         TolRMSD  ....  6.0000e-04 bohr
Strict Convergence                ....  False
------------------------------------------------------------------------------
                        ORCA OPTIMIZATION COORDINATE SETUP
------------------------------------------------------------------------------

The optimization will be done in new redundant internal coordinates
Making redundant internal coordinates   ...  (new redundants) done
Evaluating the initial hessian          ...  (Almloef) done
Evaluating the coordinates              ...  done
Calculating the B-matrix                .... done
Calculating the G-matrix                .... done
Diagonalizing the G-matrix              .... done
Small eigenvalue found = 1.008e-03
Small eigenvalue found = 2.299e-03
Small eigenvalue found = 2.425e-03
Small eigenvalue found = 3.370e-03
Small eigenvalue found = 5.629e-03
Small eigenvalue found = 6.488e-03
Small eigenvalue found = 6.891e-03
Small eigenvalue found = 8.780e-03
Small eigenvalue found = 1.198e-02
Small eigenvalue found = 1.215e-02
Small eigenvalue found = 1.426e-02
Small eigenvalue found = 1.653e-02
Small eigenvalue found = 1.685e-02
Small eigenvalue found = 1.877e-02
Small eigenvalue found = 2.124e-02
Small eigenvalue found = 2.366e-02
Small eigenvalue found = 2.572e-02
Small eigenvalue found = 2.669e-02
Small eigenvalue found = 2.814e-02
The first mode is                       ....  328
The number of degrees of freedom        ....  339

    -----------------------------------------------------------------
                    Redundant Internal Coordinates


    -----------------------------------------------------------------
         Definition                    Initial Value    Approx d2E/dq
    -----------------------------------------------------------------
      1. B(C   1,O   0)                  1.2332         0.995669   
      2. B(C   2,C   1)                  1.5375         0.363429   
      3. B(C   3,C   2)                  1.5415         0.358086   
      4. B(C   4,C   3)                  1.5343         0.367670   
      5. B(C   5,C   4)                  1.5312         0.371909   
      6. B(N   6,C   5)                  1.4766         0.407082   
      7. B(N   6,C   2)                  1.4680         0.420156   
      8. B(C   7,N   6)                  1.3716         0.598756   
      9. B(O   8,C   7)                  1.2303         1.006024   
     10. B(N   9,C   1)                  1.3589         0.627221   
     11. B(C  10,N   9)                  1.4559         0.439220   
     12. B(C  11,C  10)                  1.5539         0.342221   
     13. B(N  12,C  11)                  1.3575         0.630459   
     14. B(C  13,N  12)                  1.4501         0.448659   
     15. B(C  14,C  13)                  1.5349         0.366874   
     16. B(N  15,C  14)                  1.3510         0.645813   
     17. B(C  16,N  15)                  1.4567         0.438004   
     18. B(C  17,C  16)                  1.5312         0.371885   
     19. B(C  18,C  17)                  1.5529         0.343492   
     20. B(C  19,C  18)                  1.5469         0.351061   
     21. B(N  20,C  19)                  1.3634         0.616996   
     22. B(C  21,N  20)                  1.4682         0.419917   
     23. B(C  22,C  21)                  1.5461         0.352115   
     24. B(N  23,C  22)                  1.3591         0.626764   
     25. B(C  24,C   7)                  1.5458         0.352495   
     26. B(C  24,N  23)                  1.4623         0.429110   
     27. B(C  25,C  24)                  1.5259         0.379233   
     28. B(O  26,C  22)                  1.2310         1.003600   
     29. B(C  27,C  21)                  1.5281         0.376191   
     30. B(C  28,C  27)                  1.5387         0.361821   
     31. B(C  29,C  28)                  1.5342         0.367883   
     32. B(C  30,C  28)                  1.5323         0.370383   
     33. B(O  31,C  19)                  1.2280         1.014735   
     34. B(C  32,C  18)                  1.5293         0.374586   
     35. B(C  33,C  32)                  1.5304         0.373036   
     36. B(C  34,C  33)                  1.5389         0.361519   
     37. B(C  35,C  34)                  1.5320         0.370772   
     38. B(C  36,C  35)                  1.5339         0.368256   
     39. B(C  37,C  36)                  1.5312         0.371980   
     40. B(C  38,C  37)                  1.5310         0.372232   
     41. B(C  39,C  38)                  1.5283         0.375903   
     42. B(C  40,C  39)                  1.5305         0.372928   
     43. B(C  41,C  40)                  1.5293         0.374476   
     44. B(O  42,C  32)                  1.2188         1.049437   
     45. B(O  43,C  17)                  1.4346         0.475094   
     46. B(O  44,C  14)                  1.2411         0.967067   
     47. B(C  45,C  13)                  1.5511         0.345696   
     48. B(C  46,C  45)                  1.5284         0.375765   
     49. B(O  47,C  11)                  1.2321         0.999670   
     50. B(C  48,C  10)                  1.5391         0.361315   
     51. B(C  49,C  48)                  1.5311         0.372132   
     52. B(C  50,C  48)                  1.5343         0.367706   
     53. B(H  51,C   2)                  1.0959         0.352436   
     54. B(H  52,C   3)                  1.0995         0.347719   
     55. B(H  53,C   3)                  1.0963         0.351922   
     56. B(H  54,C   4)                  1.1006         0.346338   
     57. B(H  55,C   4)                  1.0969         0.351052   
     58. B(H  56,C   5)                  1.0977         0.350101   
     59. B(H  57,C   5)                  1.1017         0.345006   
     60. B(H  58,N   9)                  1.0167         0.422114   
     61. B(H  59,C  10)                  1.1034         0.342837   
     62. B(H  60,N  12)                  1.0226         0.413132   
     63. B(H  61,C  13)                  1.1052         0.340599   
     64. B(H  62,N  15)                  1.0149         0.425041   
     65. B(H  63,C  16)                  1.0981         0.349580   
     66. B(H  64,C  16)                  1.0957         0.352595   
     67. B(H  65,C  17)                  1.1056         0.340005   
     68. B(H  66,C  18)                  1.0981         0.349489   
     69. B(H  67,N  20)                  1.0157         0.423783   
     70. B(H  68,C  21)                  1.1009         0.345921   
     71. B(H  69,O  44)                  1.8840         0.017451   
     72. B(H  69,N  23)                  1.0244         0.410407   
     73. B(H  70,C  24)                  1.1015         0.345182   
     74. B(H  71,C  25)                  1.1001         0.347040   
     75. B(H  72,C  25)                  1.0955         0.352862   
     76. B(H  73,C  25)                  1.0959         0.352376   
     77. B(H  74,C  27)                  1.1023         0.344142   
     78. B(H  75,C  27)                  1.1001         0.347031   
     79. B(H  76,C  28)                  1.1054         0.340286   
     80. B(H  77,H  51)                  2.2421         0.001001   
     81. B(H  77,C  29)                  1.1000         0.347112   
     82. B(H  78,C  29)                  1.0999         0.347246   
     83. B(H  79,C  29)                  1.0996         0.347621   
     84. B(H  80,C  30)                  1.0999         0.347253   
     85. B(H  81,C  30)                  1.1013         0.345435   
     86. B(H  82,C  30)                  1.0997         0.347474   
     87. B(H  83,C  33)                  1.1043         0.341664   
     88. B(H  84,C  33)                  1.1021         0.344386   
     89. B(H  85,C  34)                  1.1046         0.341273   
     90. B(H  86,C  34)                  1.0990         0.348448   
     91. B(H  87,C  35)                  1.1026         0.343799   
     92. B(H  88,C  35)                  1.1027         0.343657   
     93. B(H  89,C  36)                  1.1023         0.344156   
     94. B(H  90,C  36)                  1.1034         0.342834   
     95. B(H  91,C  37)                  1.1060         0.339529   
     96. B(H  92,C  37)                  1.1042         0.341754   
     97. B(H  93,C  38)                  1.1035         0.342709   
     98. B(H  94,H  72)                  2.3273         0.000732   
     99. B(H  94,C  38)                  1.1024         0.344010   
    100. B(H  95,C  39)                  1.1037         0.342394   
    101. B(H  96,C  39)                  1.1045         0.341379   
    102. B(H  97,C  40)                  1.1030         0.343268   
    103. B(H  98,C  40)                  1.1034         0.342754   
    104. B(H  99,C  41)                  1.0990         0.348333   
    105. B(H 100,C  41)                  1.1008         0.346137   
    106. B(H 101,C  41)                  1.1003         0.346674   
    107. B(H 102,H  71)                  3.6366         0.000006   
    108. B(H 102,O  43)                  0.9742         0.493445   
    109. B(H 103,H  95)                  2.3228         0.000744   
    110. B(H 103,C  45)                  1.1005         0.346425   
    111. B(H 104,C  45)                  1.0979         0.349754   
    112. B(H 105,C  46)                  1.0980         0.349647   
    113. B(H 106,H  85)                  4.6674         0.000000   
    114. B(H 106,C  46)                  1.0997         0.347465   
    115. B(H 107,C  46)                  1.1016         0.345016   
    116. B(H 108,C  48)                  1.1000         0.347063   
    117. B(H 109,C  49)                  1.0996         0.347636   
    118. B(H 110,C  49)                  1.1011         0.345707   
    119. B(H 111,C  49)                  1.0990         0.348336   
    120. B(H 112,H 101)                  3.3956         0.000014   
    121. B(H 112,C  50)                  1.0980         0.349708   
    122. B(H 113,C  50)                  1.0987         0.348757   
    123. B(H 114,C  50)                  1.1027         0.343731   
    124. A(O   0,C   1,N   9)          123.4000         0.467814   
    125. A(C   2,C   1,N   9)          116.2432         0.393052   
    126. A(O   0,C   1,C   2)          120.3549         0.426577   
    127. A(C   1,C   2,H  51)          105.4716         0.321721   
    128. A(N   6,C   2,H  51)          111.1852         0.327509   
    129. A(C   1,C   2,N   6)          114.9138         0.366692   
    130. A(C   1,C   2,C   3)          110.9797         0.359046   
    131. A(C   3,C   2,H  51)          111.3154         0.320942   
    132. A(C   3,C   2,N   6)          103.1297         0.365762   
    133. A(C   4,C   3,H  53)          114.4173         0.322256   
    134. A(C   4,C   3,H  52)          110.4548         0.321622   
    135. A(C   2,C   3,C   4)          103.2166         0.359757   
    136. A(C   2,C   3,H  53)          111.5123         0.320865   
    137. A(C   2,C   3,H  52)          108.8156         0.320236   
    138. A(H  52,C   3,H  53)          108.2721         0.288209   
    139. A(H  54,C   4,H  55)          107.7781         0.287918   
    140. A(C   3,C   4,H  55)          112.9966         0.322125   
    141. A(C   3,C   4,C   5)          103.3949         0.362088   
    142. A(C   3,C   4,H  54)          110.1269         0.321413   
    143. A(C   5,C   4,H  55)          112.2434         0.322731   
    144. A(C   5,C   4,H  54)          110.2850         0.322017   
    145. A(H  56,C   5,H  57)          107.2193         0.287623   
    146. A(C   4,C   5,N   6)          103.5104         0.366155   
    147. A(C   4,C   5,H  56)          114.1385         0.322587   
    148. A(N   6,C   5,H  57)          109.3640         0.324669   
    149. A(N   6,C   5,H  56)          110.2376         0.325452   
    150. A(C   4,C   5,H  57)          112.3104         0.321814   
    151. A(C   5,N   6,C   7)          119.2899         0.395157   
    152. A(C   2,N   6,C   7)          128.2811         0.397355   
    153. A(C   2,N   6,C   5)          112.3536         0.371569   
    154. A(O   8,C   7,C  24)          121.2532         0.425037   
    155. A(N   6,C   7,O   8)          120.9778         0.464732   
    156. A(N   6,C   7,C  24)          117.5734         0.387800   
    157. A(C   1,N   9,C  10)          123.6431         0.403759   
    158. A(C  10,N   9,H  58)          118.6869         0.337033   
    159. A(C   1,N   9,H  58)          117.5027         0.357864   
    160. A(C  48,C  10,H  59)          109.5885         0.319966   
    161. A(C  11,C  10,H  59)          105.9891         0.317145   
    162. A(N   9,C  10,C  11)          112.6731         0.365703   
    163. A(N   9,C  10,C  48)          111.0615         0.369125   
    164. A(N   9,C  10,H  59)          105.8020         0.328415   
    165. A(C  11,C  10,C  48)          111.4098         0.355938   
    166. A(N  12,C  11,O  47)          123.6591         0.468601   
    167. A(C  10,C  11,O  47)          122.2033         0.422316   
    168. A(C  10,C  11,N  12)          114.1369         0.389292   
    169. A(C  13,N  12,H  60)          114.9279         0.337019   
    170. A(C  11,N  12,C  13)          124.3649         0.405647   
    171. A(C  11,N  12,H  60)          120.4146         0.356870   
    172. A(C  14,C  13,C  45)          111.8735         0.357475   
    173. A(N  12,C  13,H  61)          110.5019         0.329214   
    174. A(C  14,C  13,H  61)          109.8457         0.320422   
    175. A(N  12,C  13,C  14)          105.7393         0.371451   
    176. A(C  45,C  13,H  61)          108.3840         0.317329   
    177. A(N  12,C  13,C  45)          110.4965         0.367675   
    178. A(C  13,C  14,N  15)          117.1195         0.395723   
    179. A(N  15,C  14,O  44)          121.8221         0.467820   
    180. A(C  13,C  14,O  44)          121.0416         0.425074   
    181. A(C  14,N  15,H  62)          118.7336         0.360071   
    182. A(C  16,N  15,H  62)          118.6259         0.337265   
    183. A(C  14,N  15,C  16)          120.2736         0.405649   
    184. A(H  63,C  16,H  64)          108.8298         0.288536   
    185. A(C  17,C  16,H  64)          110.1452         0.322960   
    186. A(N  15,C  16,H  63)          108.8998         0.329322   
    187. A(C  17,C  16,H  63)          108.6836         0.322505   
    188. A(N  15,C  16,C  17)          111.4959         0.370782   
    189. A(N  15,C  16,H  64)          108.7395         0.329790   
    190. A(O  43,C  17,H  65)          109.9432         0.332251   
    191. A(C  18,C  17,H  65)          108.9204         0.316908   
    192. A(C  16,C  17,H  65)          108.3355         0.321042   
    193. A(C  16,C  17,C  18)          110.7594         0.357912   
    194. A(C  18,C  17,O  43)          112.9119         0.370901   
    195. A(C  16,C  17,O  43)          105.8550         0.376014   
    196. A(C  19,C  18,H  66)          105.9544         0.319466   
    197. A(C  17,C  18,H  66)          109.5821         0.318332   
    198. A(C  17,C  18,C  32)          113.4701         0.358352   
    199. A(C  17,C  18,C  19)          106.9334         0.354427   
    200. A(C  19,C  18,C  32)          114.6784         0.359684   
    201. A(C  32,C  18,H  66)          105.9117         0.322874   
    202. A(C  18,C  19,N  20)          116.2077         0.389559   
    203. A(N  20,C  19,O  31)          123.0508         0.468032   
    204. A(C  18,C  19,O  31)          120.5488         0.425383   
    205. A(C  19,N  20,H  67)          119.3842         0.357105   
    206. A(C  19,N  20,C  21)          122.2422         0.399417   
    207. A(C  21,N  20,H  67)          116.8032         0.334742   
    208. A(C  27,C  21,H  68)          109.8929         0.322558   
    209. A(C  22,C  21,H  68)          110.5923         0.319087   
    210. A(N  20,C  21,H  68)          105.2399         0.326473   
    211. A(N  20,C  21,C  22)          104.3609         0.364676   
    212. A(C  22,C  21,C  27)          112.9248         0.360130   
    213. A(N  20,C  21,C  27)          113.4637         0.368833   
    214. A(C  21,C  22,N  23)          113.7567         0.390834   
    215. A(C  21,C  22,O  26)          122.3989         0.424772   
    216. A(N  23,C  22,O  26)          123.7028         0.468433   
    217. A(C  22,N  23,C  24)          122.5481         0.402053   
    218. A(C  24,N  23,H  69)          114.6380         0.334163   
    219. A(C  22,N  23,H  69)          119.5032         0.356113   
    220. A(C  25,C  24,H  70)          108.7397         0.322871   
    221. A(N  23,C  24,H  70)          104.7619         0.327524   
    222. A(C   7,C  24,H  70)          106.5755         0.319032   
    223. A(N  23,C  24,C  25)          111.8430         0.370722   
    224. A(C   7,C  24,N  23)          114.3047         0.366098   
    225. A(C   7,C  24,C  25)          110.2041         0.360691   
    226. A(H  71,C  25,H  73)          109.6491         0.288179   
    227. A(C  24,C  25,H  73)          110.2324         0.323965   
    228. A(H  71,C  25,H  72)          108.8770         0.288241   
    229. A(C  24,C  25,H  72)          110.4819         0.324038   
    230. A(C  24,C  25,H  71)          109.4842         0.323155   
    231. A(H  72,C  25,H  73)          108.0874         0.288930   
    232. A(C  28,C  27,H  75)          108.8351         0.320676   
    233. A(C  21,C  27,C  28)          113.7463         0.361804   
    234. A(H  74,C  27,H  75)          107.7700         0.287115   
    235. A(C  21,C  27,H  75)          107.7803         0.322727   
    236. A(C  28,C  27,H  74)          109.9864         0.320238   
    237. A(C  21,C  27,H  74)          108.5380         0.322285   
    238. A(C  29,C  28,C  30)          110.6682         0.361869   
    239. A(C  27,C  28,C  30)          109.8457         0.360845   
    240. A(C  27,C  28,C  29)          113.0981         0.360429   
    241. A(C  30,C  28,H  76)          108.0461         0.320873   
    242. A(C  29,C  28,H  76)          107.8235         0.320518   
    243. A(C  27,C  28,H  76)          107.1547         0.319649   
    244. A(C  28,C  29,H  79)          111.1153         0.321638   
    245. A(H  78,C  29,H  79)          108.5201         0.287594   
    246. A(H  77,C  29,H  79)          107.5147         0.287577   
    247. A(H  77,C  29,H  78)          107.2463         0.287528   
    248. A(C  28,C  29,H  78)          110.4251         0.321581   
    249. A(C  28,C  29,H  77)          111.8592         0.321561   
    250. A(H  81,C  30,H  82)          107.7481         0.287340   
    251. A(H  80,C  30,H  82)          107.9510         0.287576   
    252. A(C  28,C  30,H  82)          111.1636         0.321973   
    253. A(H  80,C  30,H  81)          107.8137         0.287312   
    254. A(C  28,C  30,H  81)          110.6241         0.321662   
    255. A(C  28,C  30,H  80)          111.3877         0.321939   
    256. A(C  33,C  32,O  42)          119.9146         0.432643   
    257. A(C  18,C  32,O  42)          119.7810         0.432965   
    258. A(C  18,C  32,C  33)          120.3043         0.363430   
    259. A(C  32,C  33,C  34)          111.6116         0.361233   
    260. A(C  34,C  33,H  84)          110.7898         0.320231   
    261. A(H  83,C  33,H  84)          107.3402         0.286449   
    262. A(C  32,C  33,H  84)          111.9449         0.321878   
    263. A(C  34,C  33,H  83)          108.1123         0.319816   
    264. A(C  32,C  33,H  83)          106.7907         0.321460   
    265. A(C  33,C  34,C  35)          113.6837         0.360858   
    266. A(H  85,C  34,H  86)          105.7831         0.286922   
    267. A(C  35,C  34,H  86)          109.9604         0.322176   
    268. A(C  33,C  34,H  86)          107.7216         0.320846   
    269. A(C  35,C  34,H  85)          109.4439         0.321080   
    270. A(C  33,C  34,H  85)          109.9385         0.319756   
    271. A(C  34,C  35,C  36)          115.4981         0.361997   
    272. A(H  87,C  35,H  88)          106.2229         0.286632   
    273. A(C  36,C  35,H  88)          108.9744         0.321088   
    274. A(C  34,C  35,H  88)          108.6277         0.321446   
    275. A(C  36,C  35,H  87)          109.0965         0.321110   
    276. A(C  34,C  35,H  87)          108.0257         0.321468   
    277. A(C  35,C  36,C  37)          114.8927         0.362198   
    278. A(H  89,C  36,H  90)          105.4056         0.286572   
    279. A(C  37,C  36,H  90)          108.8148         0.321491   
    280. A(C  35,C  36,H  90)          110.0991         0.320962   
    281. A(C  37,C  36,H  89)          108.8955         0.321694   
    282. A(C  35,C  36,H  89)          108.3018         0.321164   
    283. A(C  36,C  37,C  38)          112.4707         0.362863   
    284. A(H  91,C  37,H  92)          105.8597         0.285827   
    285. A(C  38,C  37,H  92)          109.7767         0.321361   
    286. A(C  36,C  37,H  92)          110.0178         0.321325   
    287. A(C  38,C  37,H  91)          108.5742         0.321018   
    288. A(C  36,C  37,H  91)          109.9181         0.320982   
    289. A(C  37,C  38,C  39)          113.7465         0.363514   
    290. A(H  93,C  38,H  94)          105.7769         0.286536   
    291. A(C  39,C  38,H  94)          109.0274         0.322225   
    292. A(C  37,C  38,H  94)          109.0130         0.321707   
    293. A(C  39,C  38,H  93)          109.7748         0.322025   
    294. A(C  37,C  38,H  93)          109.1932         0.321508   
    295. A(C  38,C  39,C  40)          113.5119         0.363630   
    296. A(H  95,C  39,H  96)          105.8178         0.286152   
    297. A(C  40,C  39,H  96)          109.6020         0.321401   
    298. A(C  38,C  39,H  96)          109.8506         0.321820   
    299. A(C  40,C  39,H  95)          109.0170         0.321557   
    300. A(C  38,C  39,H  95)          108.7469         0.321976   
    301. A(C  39,C  40,C  41)          113.1629         0.363394   
    302. A(H  97,C  40,H  98)          105.7951         0.286446   
    303. A(C  41,C  40,H  98)          109.6301         0.321831   
    304. A(C  39,C  40,H  98)          109.0126         0.321613   
    305. A(C  41,C  40,H  97)          109.7617         0.321910   
    306. A(C  39,C  40,H  97)          109.2108         0.321692   
    307. A(H 100,C  41,H 101)          107.5181         0.287328   
    308. A(H  99,C  41,H 101)          107.4654         0.287612   
    309. A(C  40,C  41,H 101)          111.1468         0.322431   
    310. A(H  99,C  41,H 100)          107.6576         0.287542   
    311. A(C  40,C  41,H 100)          111.2205         0.322349   
    312. A(C  40,C  41,H  99)          111.6307         0.322683   
    313. A(C  17,O  43,H 102)          109.1175         0.350562   
    314. A(C  13,C  45,C  46)          115.9931         0.358934   
    315. A(C  46,C  45,H 104)          109.1468         0.323081   
    316. A(C  13,C  45,H 104)          105.1370         0.318703   
    317. A(C  46,C  45,H 103)          110.6289         0.322575   
    318. A(C  13,C  45,H 103)          108.3347         0.318207   
    319. A(H 103,C  45,H 104)          107.1331         0.287763   
    320. A(H 106,C  46,H 107)          108.8262         0.287284   
    321. A(H 105,C  46,H 107)          106.9179         0.287566   
    322. A(C  45,C  46,H 107)          111.2767         0.322359   
    323. A(H 105,C  46,H 106)          106.6464         0.287884   
    324. A(C  45,C  46,H 106)          113.0019         0.322733   
    325. A(C  45,C  46,H 105)          109.8912         0.323065   
    326. A(C  50,C  48,H 108)          107.5518         0.321528   
    327. A(C  49,C  48,H 108)          109.2921         0.322159   
    328. A(C  10,C  48,H 108)          105.1644         0.320607   
    329. A(C  49,C  48,C  50)          111.5547         0.362131   
    330. A(C  10,C  48,C  50)          112.2529         0.360313   
    331. A(C  10,C  48,C  49)          110.7386         0.361049   
    332. A(H 110,C  49,H 111)          107.5894         0.287487   
    333. A(H 109,C  49,H 111)          108.0539         0.287737   
    334. A(C  48,C  49,H 111)          110.7037         0.322352   
    335. A(H 109,C  49,H 110)          107.7043         0.287397   
    336. A(C  48,C  49,H 110)          111.1633         0.321952   
    337. A(C  48,C  49,H 109)          111.4651         0.322246   
    338. A(H 113,C  50,H 114)          106.3767         0.287284   
    339. A(H 112,C  50,H 114)          108.7112         0.287406   
    340. A(C  48,C  50,H 114)          112.1843         0.321021   
    341. A(H 112,C  50,H 113)          107.7120         0.288059   
    342. A(C  48,C  50,H 113)          110.1846         0.321785   
    343. A(C  48,C  50,H 112)          111.4470         0.321928   
    344. D(H  51,C   2,C   1,N   9)   -133.2752         0.009917   
    345. D(C   3,C   2,C   1,N   9)    106.0552         0.009917   
    346. D(N   6,C   2,C   1,N   9)    -10.4547         0.009917   
    347. D(N   6,C   2,C   1,O   0)    169.0665         0.009917   
    348. D(C   3,C   2,C   1,O   0)    -74.4235         0.009917   
    349. D(H  51,C   2,C   1,O   0)     46.2461         0.009917   
    350. D(C   4,C   3,C   2,N   6)     31.3418         0.010295   
    351. D(H  53,C   3,C   2,H  51)    -86.0627         0.010295   
    352. D(H  53,C   3,C   2,C   1)     31.0860         0.010295   
    353. D(C   4,C   3,C   2,H  51)    150.6395         0.010295   
    354. D(H  53,C   3,C   2,N   6)    154.6396         0.010295   
    355. D(H  52,C   3,C   2,H  51)     33.2998         0.010295   
    356. D(C   4,C   3,C   2,C   1)    -92.2118         0.010295   
    357. D(H  52,C   3,C   2,C   1)    150.4486         0.010295   
    358. D(H  52,C   3,C   2,N   6)    -85.9978         0.010295   
    359. D(H  55,C   4,C   3,H  53)     78.8100         0.010815   
    360. D(H  55,C   4,C   3,H  52)    -43.6580         0.010815   
    361. D(H  54,C   4,C   3,H  52)   -164.2419         0.010815   
    362. D(H  55,C   4,C   3,C   2)   -159.8378         0.010815   
    363. D(H  54,C   4,C   3,H  53)    -41.7740         0.010815   
    364. D(C   5,C   4,C   3,C   2)    -38.2510         0.010815   
    365. D(H  54,C   4,C   3,C   2)     79.5783         0.010815   
    366. D(C   5,C   4,C   3,H  53)   -159.6032         0.010815   
    367. D(C   5,C   4,C   3,H  52)     77.9288         0.010815   
    368. D(N   6,C   5,C   4,C   3)     30.0491         0.011050   
    369. D(H  57,C   5,C   4,C   3)    -87.8030         0.011050   
    370. D(H  56,C   5,C   4,H  55)    -88.0228         0.011050   
    371. D(H  56,C   5,C   4,C   3)    149.8850         0.011050   
    372. D(H  57,C   5,C   4,H  54)    154.4782         0.011050   
    373. D(H  56,C   5,C   4,H  54)     32.1662         0.011050   
    374. D(H  57,C   5,C   4,H  55)     34.2892         0.011050   
    375. D(N   6,C   5,C   4,H  54)    -87.6697         0.011050   
    376. D(N   6,C   5,C   4,H  55)    152.1413         0.011050   
    377. D(C   5,N   6,C   2,C   3)    -13.0357         0.015053   
    378. D(C   7,N   6,C   5,H  57)    -67.8917         0.014140   
    379. D(C   7,N   6,C   5,H  56)     49.7534         0.014140   
    380. D(C   7,N   6,C   5,C   4)    172.2219         0.014140   
    381. D(C   2,N   6,C   5,H  57)    109.2079         0.014140   
    382. D(C   2,N   6,C   5,H  56)   -133.1469         0.014140   
    383. D(C   7,N   6,C   2,H  51)     44.3538         0.015053   
    384. D(C   2,N   6,C   5,C   4)    -10.6785         0.014140   
    385. D(C   7,N   6,C   2,C   3)    163.7415         0.015053   
    386. D(C   5,N   6,C   2,C   1)    107.8757         0.015053   
    387. D(C   7,N   6,C   2,C   1)    -75.3470         0.015053   
    388. D(C   5,N   6,C   2,H  51)   -132.4234         0.015053   
    389. D(C  24,C   7,N   6,C   5)    178.8290         0.028879   
    390. D(C  24,C   7,N   6,C   2)      2.2468         0.028879   
    391. D(O   8,C   7,N   6,C   5)     -6.1900         0.028879   
    392. D(O   8,C   7,N   6,C   2)    177.2278         0.028879   
    393. D(H  58,N   9,C   1,O   0)   -175.2728         0.031915   
    394. D(C  10,N   9,C   1,C   2)    179.4598         0.031915   
    395. D(H  58,N   9,C   1,C   2)      4.2324         0.031915   
    396. D(C  10,N   9,C   1,O   0)     -0.0454         0.031915   
    397. D(H  59,C  10,N   9,C   1)     25.2862         0.016450   
    398. D(C  48,C  10,N   9,H  58)    -40.7000         0.016450   
    399. D(C  48,C  10,N   9,C   1)    144.1257         0.016450   
    400. D(C  11,C  10,N   9,C   1)    -90.0849         0.016450   
    401. D(H  59,C  10,N   9,H  58)   -159.5395         0.016450   
    402. D(C  11,C  10,N   9,H  58)     85.0894         0.016450   
    403. D(O  47,C  11,C  10,N   9)   -145.3246         0.008887   
    404. D(N  12,C  11,C  10,H  59)    -80.2940         0.008887   
    405. D(N  12,C  11,C  10,C  48)    160.5654         0.008887   
    406. D(N  12,C  11,C  10,N   9)     34.9644         0.008887   
    407. D(O  47,C  11,C  10,H  59)     99.4170         0.008887   
    408. D(O  47,C  11,C  10,C  48)    -19.7237         0.008887   
    409. D(H  60,N  12,C  11,O  47)   -168.1418         0.032272   
    410. D(H  60,N  12,C  11,C  10)     11.5644         0.032272   
    411. D(C  13,N  12,C  11,O  47)      5.3224         0.032272   
    412. D(C  13,N  12,C  11,C  10)   -174.9714         0.032272   
    413. D(H  61,C  13,N  12,C  11)    -58.4403         0.017171   
    414. D(H  61,C  13,N  12,H  60)    115.3456         0.017171   
    415. D(C  45,C  13,N  12,H  60)   -124.7043         0.017171   
    416. D(C  45,C  13,N  12,C  11)     61.5098         0.017171   
    417. D(C  14,C  13,N  12,C  11)   -177.2528         0.017171   
    418. D(C  14,C  13,N  12,H  60)     -3.4669         0.017171   
    419. D(O  44,C  14,C  13,C  45)    109.2144         0.010092   
    420. D(O  44,C  14,C  13,N  12)    -11.1273         0.010092   
    421. D(N  15,C  14,C  13,H  61)     51.0916         0.010092   
    422. D(N  15,C  14,C  13,C  45)    -69.3198         0.010092   
    423. D(O  44,C  14,C  13,H  61)   -130.3742         0.010092   
    424. D(N  15,C  14,C  13,N  12)    170.3385         0.010092   
    425. D(H  62,N  15,C  14,O  44)   -173.3587         0.033999   
    426. D(H  62,N  15,C  14,C  13)      5.1632         0.033999   
    427. D(C  16,N  15,C  14,O  44)    -11.0573         0.033999   
    428. D(C  16,N  15,C  14,C  13)    167.4646         0.033999   
    429. D(H  64,C  16,N  15,H  62)   -156.0565         0.016358   
    430. D(H  64,C  16,N  15,C  14)     41.6233         0.016358   
    431. D(H  63,C  16,N  15,H  62)    -37.6062         0.016358   
    432. D(H  63,C  16,N  15,C  14)    160.0737         0.016358   
    433. D(C  17,C  16,N  15,C  14)    -80.0094         0.016358   
    434. D(C  17,C  16,N  15,H  62)     82.3107         0.016358   
    435. D(H  65,C  17,C  16,H  64)    -75.9454         0.011049   
    436. D(H  65,C  17,C  16,H  63)    164.9132         0.011049   
    437. D(H  65,C  17,C  16,N  15)     44.8688         0.011049   
    438. D(O  43,C  17,C  16,H  64)    166.1719         0.011049   
    439. D(O  43,C  17,C  16,H  63)     47.0305         0.011049   
    440. D(O  43,C  17,C  16,N  15)    -73.0139         0.011049   
    441. D(C  18,C  17,C  16,H  64)     43.4566         0.011049   
    442. D(C  18,C  17,C  16,H  63)    -75.6848         0.011049   
    443. D(C  18,C  17,C  16,N  15)    164.2708         0.011049   
    444. D(H  66,C  18,C  17,H  65)    163.9383         0.009536   
    445. D(H  66,C  18,C  17,O  43)    -73.6276         0.009536   
    446. D(H  66,C  18,C  17,C  16)     44.8887         0.009536   
    447. D(C  32,C  18,C  17,O  43)     44.5162         0.009536   
    448. D(C  32,C  18,C  17,C  16)    163.0325         0.009536   
    449. D(C  32,C  18,C  17,H  65)    -77.9179         0.009536   
    450. D(C  19,C  18,C  17,H  65)     49.5275         0.009536   
    451. D(C  19,C  18,C  17,O  43)    171.9617         0.009536   
    452. D(C  19,C  18,C  17,C  16)    -69.5221         0.009536   
    453. D(O  31,C  19,C  18,H  66)    -27.9584         0.009307   
    454. D(O  31,C  19,C  18,C  32)   -144.3920         0.009307   
    455. D(O  31,C  19,C  18,C  17)     88.8767         0.009307   
    456. D(N  20,C  19,C  18,H  66)    156.9343         0.009307   
    457. D(N  20,C  19,C  18,C  17)    -86.2306         0.009307   
    458. D(N  20,C  19,C  18,C  32)     40.5007         0.009307   
    459. D(H  67,N  20,C  19,O  31)   -179.0447         0.030803   
    460. D(H  67,N  20,C  19,C  18)     -4.0720         0.030803   
    461. D(C  21,N  20,C  19,O  31)    -13.7959         0.030803   
    462. D(C  21,N  20,C  19,C  18)    161.1768         0.030803   
    463. D(H  68,C  21,N  20,H  67)    155.5466         0.015036   
    464. D(H  68,C  21,N  20,C  19)    -10.0605         0.015036   
    465. D(C  27,C  21,N  20,H  67)    -84.2740         0.015036   
    466. D(C  27,C  21,N  20,C  19)    110.1190         0.015036   
    467. D(C  22,C  21,N  20,H  67)     39.0562         0.015036   
    468. D(C  22,C  21,N  20,C  19)   -126.5509         0.015036   
    469. D(N  23,C  22,C  21,C  27)   -155.0908         0.009358   
    470. D(N  23,C  22,C  21,N  20)     81.2303         0.009358   
    471. D(O  26,C  22,C  21,H  68)    152.6993         0.009358   
    472. D(O  26,C  22,C  21,C  27)     29.0876         0.009358   
    473. D(O  26,C  22,C  21,N  20)    -94.5914         0.009358   
    474. D(N  23,C  22,C  21,H  68)    -31.4790         0.009358   
    475. D(H  69,N  23,C  22,O  26)    171.2588         0.031864   
    476. D(H  69,N  23,C  22,C  21)     -4.5004         0.031864   
    477. D(C  24,N  23,C  22,O  26)     12.9177         0.031864   
    478. D(C  24,N  23,C  22,C  21)   -162.8416         0.031864   
    479. D(H  70,C  24,N  23,H  69)     21.0849         0.015699   
    480. D(H  70,C  24,N  23,C  22)   -179.6101         0.015699   
    481. D(C  25,C  24,N  23,H  69)    -96.5318         0.015699   
    482. D(C  25,C  24,N  23,C  22)     62.7732         0.015699   
    483. D(C   7,C  24,N  23,H  69)    137.3617         0.015699   
    484. D(C   7,C  24,N  23,C  22)    -63.3333         0.015699   
    485. D(H  70,C  24,C   7,O   8)   -114.7128         0.009377   
    486. D(H  70,C  24,C   7,N   6)     60.2536         0.009377   
    487. D(C  25,C  24,C   7,O   8)      3.1083         0.009377   
    488. D(C  25,C  24,C   7,N   6)    178.0747         0.009377   
    489. D(N  23,C  24,C   7,O   8)    130.0652         0.009377   
    490. D(N  23,C  24,C   7,N   6)    -54.9685         0.009377   
    491. D(H  73,C  25,C  24,H  70)    178.8174         0.011465   
    492. D(H  73,C  25,C  24,N  23)    -65.9772         0.011465   
    493. D(H  73,C  25,C  24,C   7)     62.3397         0.011465   
    494. D(H  72,C  25,C  24,H  70)     59.4187         0.011465   
    495. D(H  72,C  25,C  24,N  23)    174.6242         0.011465   
    496. D(H  72,C  25,C  24,C   7)    -57.0589         0.011465   
    497. D(H  71,C  25,C  24,H  70)    -60.4826         0.011465   
    498. D(H  71,C  25,C  24,N  23)     54.7229         0.011465   
    499. D(H  71,C  25,C  24,C   7)   -176.9602         0.011465   
    500. D(H  75,C  27,C  21,H  68)     81.2161         0.011291   
    501. D(H  75,C  27,C  21,C  22)   -154.7870         0.011291   
    502. D(H  75,C  27,C  21,N  20)    -36.2876         0.011291   
    503. D(H  74,C  27,C  21,H  68)   -162.3234         0.011291   
    504. D(H  74,C  27,C  21,C  22)    -38.3264         0.011291   
    505. D(H  74,C  27,C  21,N  20)     80.1729         0.011291   
    506. D(C  28,C  27,C  21,H  68)    -39.5464         0.011291   
    507. D(C  28,C  27,C  21,C  22)     84.4506         0.011291   
    508. D(C  28,C  27,C  21,N  20)   -157.0500         0.011291   
    509. D(H  76,C  28,C  27,H  75)    -58.6163         0.010496   
    510. D(H  76,C  28,C  27,H  74)   -176.4685         0.010496   
    511. D(H  76,C  28,C  27,C  21)     61.5528         0.010496   
    512. D(C  30,C  28,C  27,H  75)     58.5186         0.010496   
    513. D(C  30,C  28,C  27,H  74)    -59.3336         0.010496   
    514. D(C  30,C  28,C  27,C  21)    178.6877         0.010496   
    515. D(C  29,C  28,C  27,H  75)   -177.2958         0.010496   
    516. D(C  29,C  28,C  27,H  74)     64.8521         0.010496   
    517. D(C  29,C  28,C  27,C  21)    -57.1267         0.010496   
    518. D(H  79,C  29,C  28,C  30)     66.5488         0.010827   
    519. D(H  79,C  29,C  28,C  27)    -57.1861         0.010827   
    520. D(H  78,C  29,C  28,H  76)     64.0484         0.010827   
    521. D(H  78,C  29,C  28,C  30)    -53.9256         0.010827   
    522. D(H  78,C  29,C  28,C  27)   -177.6605         0.010827   
    523. D(H  77,C  29,C  28,H  76)    -55.3101         0.010827   
    524. D(H  77,C  29,C  28,C  30)   -173.2841         0.010827   
    525. D(H  79,C  29,C  28,H  76)   -175.4772         0.010827   
    526. D(H  77,C  29,C  28,C  27)     62.9810         0.010827   
    527. D(H  82,C  30,C  28,H  76)    -59.6809         0.010965   
    528. D(H  82,C  30,C  28,C  29)     58.1571         0.010965   
    529. D(H  82,C  30,C  28,C  27)   -176.2574         0.010965   
    530. D(H  81,C  30,C  28,H  76)   -179.3485         0.010965   
    531. D(H  81,C  30,C  28,C  29)    -61.5105         0.010965   
    532. D(H  81,C  30,C  28,C  27)     64.0750         0.010965   
    533. D(H  80,C  30,C  28,H  76)     60.7542         0.010965   
    534. D(H  80,C  30,C  28,C  29)    178.5922         0.010965   
    535. D(H  80,C  30,C  28,C  27)    -55.8223         0.010965   
    536. D(O  42,C  32,C  18,H  66)    -13.8986         0.010490   
    537. D(O  42,C  32,C  18,C  19)    102.5595         0.010490   
    538. D(O  42,C  32,C  18,C  17)   -134.1452         0.010490   
    539. D(C  33,C  32,C  18,H  66)    166.1001         0.010490   
    540. D(C  33,C  32,C  18,C  19)    -77.4418         0.010490   
    541. D(C  33,C  32,C  18,C  17)     45.8535         0.010490   
    542. D(H  84,C  33,C  32,O  42)    177.4927         0.010409   
    543. D(H  84,C  33,C  32,C  18)     -2.5060         0.010409   
    544. D(H  83,C  33,C  32,O  42)    -65.3001         0.010409   
    545. D(H  83,C  33,C  32,C  18)    114.7012         0.010409   
    546. D(C  34,C  33,C  32,O  42)     52.6574         0.010409   
    547. D(C  34,C  33,C  32,C  18)   -127.3413         0.010409   
    548. D(H  86,C  34,C  33,H  84)   -170.2555         0.010479   
    549. D(H  86,C  34,C  33,H  83)     72.3828         0.010479   
    550. D(H  86,C  34,C  33,C  32)    -44.7786         0.010479   
    551. D(H  85,C  34,C  33,H  84)    -55.4415         0.010479   
    552. D(H  85,C  34,C  33,H  83)   -172.8031         0.010479   
    553. D(H  85,C  34,C  33,C  32)     70.0355         0.010479   
    554. D(C  35,C  34,C  33,H  84)     67.6373         0.010479   
    555. D(C  35,C  34,C  33,H  83)    -49.7243         0.010479   
    556. D(C  35,C  34,C  33,C  32)   -166.8857         0.010479   
    557. D(H  88,C  35,C  34,H  86)    -53.9561         0.010987   
    558. D(H  88,C  35,C  34,H  85)   -169.7474         0.010987   
    559. D(H  88,C  35,C  34,C  33)     66.9034         0.010987   
    560. D(H  87,C  35,C  34,H  86)     60.8612         0.010987   
    561. D(H  87,C  35,C  34,H  85)    -54.9301         0.010987   
    562. D(H  87,C  35,C  34,C  33)   -178.2793         0.010987   
    563. D(C  36,C  35,C  34,H  86)   -176.7017         0.010987   
    564. D(C  36,C  35,C  34,H  85)     67.5071         0.010987   
    565. D(C  36,C  35,C  34,C  33)    -55.8421         0.010987   
    566. D(H  90,C  36,C  35,H  87)   -169.9972         0.010847   
    567. D(H  90,C  36,C  35,C  34)     68.1377         0.010847   
    568. D(H  89,C  36,C  35,H  88)     60.3466         0.010847   
    569. D(H  89,C  36,C  35,H  87)    -55.2269         0.010847   
    570. D(H  89,C  36,C  35,C  34)   -177.0920         0.010847   
    571. D(C  37,C  36,C  35,H  88)   -177.6810         0.010847   
    572. D(C  37,C  36,C  35,H  87)     66.7455         0.010847   
    573. D(H  90,C  36,C  35,H  88)    -54.4237         0.010847   
    574. D(C  37,C  36,C  35,C  34)    -55.1196         0.010847   
    575. D(H  92,C  37,C  36,H  90)   -170.4278         0.011054   
    576. D(H  92,C  37,C  36,H  89)     75.1628         0.011054   
    577. D(H  92,C  37,C  36,C  35)    -46.4876         0.011054   
    578. D(H  91,C  37,C  36,H  90)    -54.2363         0.011054   
    579. D(H  91,C  37,C  36,H  89)   -168.6458         0.011054   
    580. D(H  91,C  37,C  36,C  35)     69.7039         0.011054   
    581. D(C  38,C  37,C  36,H  90)     66.8622         0.011054   
    582. D(C  38,C  37,C  36,H  89)    -47.5473         0.011054   
    583. D(C  38,C  37,C  36,C  35)   -169.1976         0.011054   
    584. D(H  94,C  38,C  37,H  92)   -169.8098         0.011068   
    585. D(H  94,C  38,C  37,H  91)     74.9005         0.011068   
    586. D(H  94,C  38,C  37,C  36)    -46.9642         0.011068   
    587. D(H  93,C  38,C  37,H  92)    -54.6935         0.011068   
    588. D(H  93,C  38,C  37,H  91)   -169.9832         0.011068   
    589. D(H  93,C  38,C  37,C  36)     68.1521         0.011068   
    590. D(C  39,C  38,C  37,H  92)     68.2981         0.011068   
    591. D(C  39,C  38,C  37,H  91)    -46.9916         0.011068   
    592. D(C  39,C  38,C  37,C  36)   -168.8564         0.011068   
    593. D(H  95,C  39,C  38,H  94)    -67.4038         0.011275   
    594. D(H  95,C  39,C  38,H  93)    177.1530         0.011275   
    595. D(H  95,C  39,C  38,C  37)     54.4804         0.011275   
    596. D(C  40,C  39,C  38,H  94)     54.1243         0.011275   
    597. D(C  40,C  39,C  38,H  93)    -61.3189         0.011275   
    598. D(C  40,C  39,C  38,C  37)    176.0085         0.011275   
    599. D(H  96,C  39,C  38,H  94)    177.2198         0.011275   
    600. D(H  96,C  39,C  38,H  93)     61.7766         0.011275   
    601. D(H  96,C  39,C  38,C  37)    -60.8960         0.011275   
    602. D(H  98,C  40,C  39,H  95)     65.8689         0.011107   
    603. D(H  98,C  40,C  39,C  38)    -55.5081         0.011107   
    604. D(H  97,C  40,C  39,H  96)    -63.5926         0.011107   
    605. D(H  97,C  40,C  39,H  95)   -178.9836         0.011107   
    606. D(H  97,C  40,C  39,C  38)     59.6394         0.011107   
    607. D(C  41,C  40,C  39,H  96)     58.9902         0.011107   
    608. D(C  41,C  40,C  39,H  95)    -56.4008         0.011107   
    609. D(H  98,C  40,C  39,H  96)   -178.7400         0.011107   
    610. D(C  41,C  40,C  39,C  38)   -177.7778         0.011107   
    611. D(H 101,C  41,C  40,H  98)    -61.2678         0.011194   
    612. D(H 101,C  41,C  40,H  97)   -177.0672         0.011194   
    613. D(H 101,C  41,C  40,C  39)     60.6567         0.011194   
    614. D(H 100,C  41,C  40,H  98)    178.9696         0.011194   
    615. D(H 100,C  41,C  40,H  97)     63.1701         0.011194   
    616. D(H 100,C  41,C  40,C  39)    -59.1059         0.011194   
    617. D(H  99,C  41,C  40,H  98)     58.7035         0.011194   
    618. D(H  99,C  41,C  40,H  97)    -57.0959         0.011194   
    619. D(H  99,C  41,C  40,C  39)   -179.3719         0.011194   
    620. D(H 102,O  43,C  17,H  65)     47.2757         0.017798   
    621. D(H 102,O  43,C  17,C  18)    -74.5844         0.017798   
    622. D(H 102,O  43,C  17,C  16)    164.0793         0.017798   
    623. D(H 104,C  45,C  13,H  61)     71.0248         0.009648   
    624. D(H 104,C  45,C  13,C  14)   -167.7152         0.009648   
    625. D(H 104,C  45,C  13,N  12)    -50.1904         0.009648   
    626. D(H 103,C  45,C  13,H  61)   -174.6983         0.009648   
    627. D(H 103,C  45,C  13,C  14)    -53.4383         0.009648   
    628. D(H 103,C  45,C  13,N  12)     64.0865         0.009648   
    629. D(C  46,C  45,C  13,H  61)    -49.6333         0.009648   
    630. D(C  46,C  45,C  13,C  14)     71.6267         0.009648   
    631. D(C  46,C  45,C  13,N  12)   -170.8485         0.009648   
    632. D(H 107,C  46,C  45,H 104)    -69.9616         0.011267   
    633. D(H 107,C  46,C  45,H 103)    172.3987         0.011267   
    634. D(H 107,C  46,C  45,C  13)     48.5159         0.011267   
    635. D(H 106,C  46,C  45,H 104)    167.2507         0.011267   
    636. D(H 106,C  46,C  45,H 103)     49.6110         0.011267   
    637. D(H 106,C  46,C  45,C  13)    -74.2718         0.011267   
    638. D(H 105,C  46,C  45,H 104)     48.2676         0.011267   
    639. D(H 105,C  46,C  45,H 103)    -69.3721         0.011267   
    640. D(H 105,C  46,C  45,C  13)    166.7451         0.011267   
    641. D(H 108,C  48,C  10,H  59)    -69.0031         0.010468   
    642. D(H 108,C  48,C  10,C  11)     47.9703         0.010468   
    643. D(H 108,C  48,C  10,N   9)    174.4601         0.010468   
    644. D(C  50,C  48,C  10,H  59)    174.3502         0.010468   
    645. D(C  50,C  48,C  10,C  11)    -68.6764         0.010468   
    646. D(C  50,C  48,C  10,N   9)     57.8134         0.010468   
    647. D(C  49,C  48,C  10,H  59)     48.9430         0.010468   
    648. D(C  49,C  48,C  10,C  11)    165.9164         0.010468   
    649. D(C  49,C  48,C  10,N   9)    -67.5938         0.010468   
    650. D(H 111,C  49,C  48,C  50)     56.6196         0.011063   
    651. D(H 111,C  49,C  48,C  10)   -177.5812         0.011063   
    652. D(H 110,C  49,C  48,H 108)    178.2955         0.011063   
    653. D(H 110,C  49,C  48,C  50)    -62.9011         0.011063   
    654. D(H 110,C  49,C  48,C  10)     62.8982         0.011063   
    655. D(H 109,C  49,C  48,H 108)     58.1216         0.011063   
    656. D(H 109,C  49,C  48,C  50)    176.9250         0.011063   
    657. D(H 111,C  49,C  48,H 108)    -62.1838         0.011063   
    658. D(H 109,C  49,C  48,C  10)    -57.2758         0.011063   
    659. D(H 114,C  50,C  48,H 108)    176.7075         0.010817   
    660. D(H 114,C  50,C  48,C  49)     56.8720         0.010817   
    661. D(H 114,C  50,C  48,C  10)    -68.0874         0.010817   
    662. D(H 113,C  50,C  48,H 108)     58.3923         0.010817   
    663. D(H 113,C  50,C  48,C  49)    -61.4432         0.010817   
    664. D(H 113,C  50,C  48,C  10)    173.5974         0.010817   
    665. D(H 112,C  50,C  48,H 108)    -61.1241         0.010817   
    666. D(H 112,C  50,C  48,C  49)    179.0404         0.010817   
    667. D(H 112,C  50,C  48,C  10)     54.0810         0.010817   
    -----------------------------------------------------------------

Number of atoms                         .... 115
Number of degrees of freedom            .... 667

         *************************************************************
         *                GEOMETRY OPTIMIZATION CYCLE   1            *
         *************************************************************
---------------------------------
CARTESIAN COORDINATES (ANGSTROEM)
---------------------------------
  O      2.675894    3.197763   -1.565114
  C      1.660614    2.780092   -2.126739
  C      1.699142    1.467286   -2.926082
  C      2.429305    1.660547   -4.269889
  C      1.292477    2.007773   -5.240067
  C      0.145173    1.104014   -4.780136
  N      0.385925    0.951231   -3.331310
  C     -0.555691    0.322369   -2.557264
  O     -1.641383   -0.013432   -3.028687
  N      0.462248    3.419067   -2.078121
  C      0.241278    4.665375   -1.358655
  C     -0.199092    4.436948    0.113889
  N      0.370430    3.354040    0.702003
  C      0.039761    2.875397    2.030341
  C      0.975314    1.686425    2.289355
  N      1.003312    1.186789    3.544251
  C      1.644878   -0.093566    3.810759
  C      0.733106   -1.266210    3.438931
  C      1.544288   -2.587333    3.349656
  C      2.452860   -2.474786    2.102743
  N      1.896643   -2.851853    0.916423
  C      2.454747   -2.438092   -0.376959
  C      1.260979   -1.798451   -1.122757
  N      1.016309   -0.511079   -0.762088
  C     -0.250685    0.159532   -1.050617
  C     -1.423640   -0.515172   -0.345391
  O      0.556415   -2.433726   -1.907206
  C      3.098601   -3.583980   -1.156371
  C      4.141491   -3.121873   -2.189059
  C      3.575218   -2.130935   -3.214283
  C      4.751384   -4.338772   -2.892790
  O      3.574418   -1.982407    2.190092
  C      0.671242   -3.842169    3.392371
  C     -0.595138   -3.931293    2.537711
  C     -1.824197   -4.309064    3.383292
  C     -3.041657   -4.721240    2.549578
  C     -3.511460   -3.692297    1.513518
  C     -3.815786   -2.301948    2.078124
  C     -4.524726   -1.400740    1.063665
  C     -4.602493    0.064563    1.490942
  C     -5.225107    0.977186    0.431785
  C     -5.249765    2.449307    0.845480
  O      0.986566   -4.774872    4.110840
  O     -0.287121   -1.304282    4.446729
  O      1.652387    1.193468    1.373460
  C     -1.453541    2.462153    2.102630
  C     -1.993817    2.144071    3.496530
  O     -0.992834    5.186032    0.685573
  C     -0.753945    5.568251   -2.109069
  C     -0.148400    6.067195   -3.423791
  C     -2.105841    4.879305   -2.336754
  H      2.225947    0.750619   -2.285952
  H      2.902171    0.710157   -4.556435
  H      3.211468    2.425103   -4.196087
  H      1.011590    3.066332   -5.131020
  H      1.558897    1.838457   -6.290591
  H     -0.854197    1.522180   -4.956955
  H      0.174151    0.113596   -5.261674
  H     -0.333541    2.958165   -2.511785
  H      1.225438    5.161663   -1.308065
  H      1.152453    2.872233    0.252539
  H      0.219663    3.665109    2.782245
  H      0.356776    1.559189    4.232192
  H      1.880840   -0.157161    4.881291
  H      2.578292   -0.145323    3.239192
  H      0.280831   -1.055844    2.452213
  H      2.221530   -2.662303    4.210840
  H      0.958218   -3.240267    0.907118
  H      3.212753   -1.677222   -0.134966
  H      1.561557   -0.086729   -0.005758
  H     -0.129652    1.175628   -0.642893
  H     -1.217402   -0.575893    0.733451
  H     -2.344345    0.058446   -0.498511
  H     -1.579378   -1.522446   -0.748065
  H      2.301983   -4.158687   -1.656633
  H      3.588274   -4.250299   -0.430852
  H      4.946929   -2.609132   -1.632025
  H      3.239486   -1.197297   -2.739307
  H      4.343877   -1.862512   -3.953796
  H      2.713717   -2.560100   -3.746030
  H      5.183452   -5.045668   -2.169346
  H      3.984599   -4.876377   -3.472380
  H      5.547545   -4.037154   -3.588871
  H     -0.425979   -4.735129    1.799656
  H     -0.778373   -3.001668    1.974731
  H     -2.099151   -3.468267    4.044836
  H     -1.530989   -5.131217    4.050970
  H     -3.871139   -4.940331    3.242187
  H     -2.811588   -5.668951    2.034884
  H     -4.417187   -4.084268    1.022454
  H     -2.761716   -3.593785    0.710015
  H     -2.876776   -1.808795    2.391689
  H     -4.429529   -2.391026    2.991752
  H     -5.540604   -1.790457    0.879907
  H     -3.999278   -1.465756    0.096680
  H     -3.583570    0.421940    1.719600
  H     -5.170480    0.150519    2.434337
  H     -6.250458    0.633733    0.214136
  H     -4.664620    0.866767   -0.512270
  H     -5.711361    3.079672    0.072521
  H     -5.819183    2.592009    1.776653
  H     -4.231987    2.830279    1.017941
  H     -1.026093   -1.855661    4.131998
  H     -1.610621    1.611352    1.422445
  H     -2.007316    3.314548    1.687638
  H     -3.090529    2.097330    3.470414
  H     -1.646233    1.174195    3.881130
  H     -1.723578    2.930536    4.219076
  H     -0.926420    6.424477   -1.440330
  H      0.793546    6.608241   -3.253199
  H      0.065270    5.229810   -4.106110
  H     -0.842754    6.746090   -3.938442
  H     -2.530469    4.507248   -1.395051
  H     -2.824428    5.588379   -2.770362
  H     -2.030665    4.039335   -3.047152

----------------------------
CARTESIAN COORDINATES (A.U.)
----------------------------
  NO LB      ZA    FRAG     MASS         X           Y           Z
   0 O     8.0000    0    15.999    5.056707    6.042896   -2.957637
   1 C     6.0000    0    12.011    3.138105    5.253612   -4.018955
   2 C     6.0000    0    12.011    3.210914    2.772769   -5.529494
   3 C     6.0000    0    12.011    4.590722    3.137979   -8.068921
   4 C     6.0000    0    12.011    2.442428    3.794142   -9.902291
   5 C     6.0000    0    12.011    0.274338    2.086284   -9.033148
   6 N     7.0000    0    14.007    0.729292    1.797567   -6.295264
   7 C     6.0000    0    12.011   -1.050104    0.609190   -4.832529
   8 O     8.0000    0    15.999   -3.101764   -0.025383   -5.723388
   9 N     7.0000    0    14.007    0.873523    6.461101   -3.927080
  10 C     6.0000    0    12.011    0.455949    8.816282   -2.567485
  11 C     6.0000    0    12.011   -0.376230    8.384618    0.215219
  12 N     7.0000    0    14.007    0.700011    6.338216    1.326593
  13 C     6.0000    0    12.011    0.075138    5.433712    3.836789
  14 C     6.0000    0    12.011    1.843077    3.186882    4.326253
  15 N     7.0000    0    14.007    1.895986    2.242706    6.697664
  16 C     6.0000    0    12.011    3.108369   -0.176814    7.201292
  17 C     6.0000    0    12.011    1.385370   -2.392790    6.498638
  18 C     6.0000    0    12.011    2.918281   -4.889351    6.329932
  19 C     6.0000    0    12.011    4.635234   -4.676667    3.973609
  20 N     7.0000    0    14.007    3.584135   -5.389222    1.731789
  21 C     6.0000    0    12.011    4.638800   -4.607326   -0.712349
  22 C     6.0000    0    12.011    2.382904   -3.398581   -2.121702
  23 N     7.0000    0    14.007    1.920546   -0.965799   -1.440138
  24 C     6.0000    0    12.011   -0.473726    0.301472   -1.985379
  25 C     6.0000    0    12.011   -2.690291   -0.973534   -0.652695
  26 O     8.0000    0    15.999    1.051473   -4.599075   -3.604098
  27 C     6.0000    0    12.011    5.855508   -6.772740   -2.185225
  28 C     6.0000    0    12.011    7.826283   -5.899485   -4.136721
  29 C     6.0000    0    12.011    6.756183   -4.026884   -6.074115
  30 C     6.0000    0    12.011    8.978814   -8.199091   -5.466581
  31 O     8.0000    0    15.999    6.754671   -3.746207    4.138674
  32 C     6.0000    0    12.011    1.268463   -7.260648    6.410651
  33 C     6.0000    0    12.011   -1.124647   -7.429068    4.795579
  34 C     6.0000    0    12.011   -3.447232   -8.142952    6.393495
  35 C     6.0000    0    12.011   -5.747898   -8.921851    4.818004
  36 C     6.0000    0    12.011   -6.635697   -6.977430    2.860134
  37 C     6.0000    0    12.011   -7.210790   -4.350052    3.927085
  38 C     6.0000    0    12.011   -8.550492   -2.647015    2.010035
  39 C     6.0000    0    12.011   -8.697452    0.122006    2.817473
  40 C     6.0000    0    12.011   -9.874021    1.846614    0.815955
  41 C     6.0000    0    12.011   -9.920619    4.628519    1.597726
  42 O     8.0000    0    15.999    1.864339   -9.023200    7.768363
  43 O     8.0000    0    15.999   -0.542579   -2.464736    8.403099
  44 O     8.0000    0    15.999    3.122559    2.255327    2.595464
  45 C     6.0000    0    12.011   -2.746795    4.652794    3.973394
  46 C     6.0000    0    12.011   -3.767768    4.051707    6.607485
  47 O     8.0000    0    15.999   -1.876184    9.800181    1.295546
  48 C     6.0000    0    12.011   -1.424750   10.522469   -3.985564
  49 C     6.0000    0    12.011   -0.280435   11.465337   -6.470028
  50 C     6.0000    0    12.011   -3.979462    9.220551   -4.415825
  51 H     1.0000    0     1.008    4.206430    1.418465   -4.319824
  52 H     1.0000    0     1.008    5.484309    1.342001   -8.610415
  53 H     1.0000    0     1.008    6.068796    4.582781   -7.929455
  54 H     1.0000    0     1.008    1.911629    5.794528   -9.696223
  55 H     1.0000    0     1.008    2.945889    3.474181  -11.887494
  56 H     1.0000    0     1.008   -1.614199    2.876502   -9.367287
  57 H     1.0000    0     1.008    0.329097    0.214665   -9.943124
  58 H     1.0000    0     1.008   -0.630302    5.590122   -4.746585
  59 H     1.0000    0     1.008    2.315742    9.754130   -2.471884
  60 H     1.0000    0     1.008    2.177820    5.427734    0.477229
  61 H     1.0000    0     1.008    0.415103    6.926052    5.257681
  62 H     1.0000    0     1.008    0.674210    2.946440    7.997685
  63 H     1.0000    0     1.008    3.554272   -0.296991    9.224303
  64 H     1.0000    0     1.008    4.872266   -0.274620    6.121186
  65 H     1.0000    0     1.008    0.530694   -1.995256    4.634011
  66 H     1.0000    0     1.008    4.198082   -5.031024    7.957335
  67 H     1.0000    0     1.008    1.810770   -6.123217    1.714204
  68 H     1.0000    0     1.008    6.071224   -3.169490   -0.255050
  69 H     1.0000    0     1.008    2.950915   -0.163894   -0.010881
  70 H     1.0000    0     1.008   -0.245006    2.221616   -1.214891
  71 H     1.0000    0     1.008   -2.300556   -1.088280    1.386022
  72 H     1.0000    0     1.008   -4.430169    0.110447   -0.942049
  73 H     1.0000    0     1.008   -2.984593   -2.877006   -1.413639
  74 H     1.0000    0     1.008    4.350117   -7.858780   -3.130582
  75 H     1.0000    0     1.008    6.780855   -8.031900   -0.814192
  76 H     1.0000    0     1.008    9.348341   -4.930545   -3.084079
  77 H     1.0000    0     1.008    6.121740   -2.262563   -5.176540
  78 H     1.0000    0     1.008    8.208738   -3.519638   -7.471592
  79 H     1.0000    0     1.008    5.128181   -4.837888   -7.078970
  80 H     1.0000    0     1.008    9.795304   -9.534931   -4.099470
  81 H     1.0000    0     1.008    7.529802   -9.215016   -6.561847
  82 H     1.0000    0     1.008   10.483340   -7.629116   -6.781983
  83 H     1.0000    0     1.008   -0.804984   -8.948096    3.400857
  84 H     1.0000    0     1.008   -1.470912   -5.672331    3.731702
  85 H     1.0000    0     1.008   -3.966820   -6.554075    7.643631
  86 H     1.0000    0     1.008   -2.893150   -9.696595    7.655224
  87 H     1.0000    0     1.008   -7.315392   -9.335873    6.126846
  88 H     1.0000    0     1.008   -5.313131  -10.712764    3.845373
  89 H     1.0000    0     1.008   -8.347274   -7.718147    1.932159
  90 H     1.0000    0     1.008   -5.218888   -6.791270    1.341733
  91 H     1.0000    0     1.008   -5.436319   -3.418126    4.519637
  92 H     1.0000    0     1.008   -8.370596   -4.518385    5.653592
  93 H     1.0000    0     1.008  -10.470224   -3.383474    1.662782
  94 H     1.0000    0     1.008   -7.557541   -2.769878    0.182699
  95 H     1.0000    0     1.008   -6.771966    0.797352    3.249574
  96 H     1.0000    0     1.008   -9.770792    0.284440    4.600231
  97 H     1.0000    0     1.008  -11.811654    1.197581    0.404658
  98 H     1.0000    0     1.008   -8.814854    1.637953   -0.968049
  99 H     1.0000    0     1.008  -10.792908    5.819737    0.137044
 100 H     1.0000    0     1.008  -10.996663    4.898188    3.357388
 101 H     1.0000    0     1.008   -7.997297    5.348452    1.923630
 102 H     1.0000    0     1.008   -1.939035   -3.506692    7.808345
 103 H     1.0000    0     1.008   -3.043633    3.045014    2.688032
 104 H     1.0000    0     1.008   -3.793277    6.263589    3.189174
 105 H     1.0000    0     1.008   -5.840254    3.963380    6.558132
 106 H     1.0000    0     1.008   -3.110930    2.218908    7.334273
 107 H     1.0000    0     1.008   -3.257090    5.537911    7.972898
 108 H     1.0000    0     1.008   -1.750681   12.140502   -2.721830
 109 H     1.0000    0     1.008    1.499585   12.487765   -6.147654
 110 H     1.0000    0     1.008    0.123342    9.882908   -7.759424
 111 H     1.0000    0     1.008   -1.592574   12.748262   -7.442577
 112 H     1.0000    0     1.008   -4.781894    8.517464   -2.636265
 113 H     1.0000    0     1.008   -5.337395   10.560506   -5.235225
 114 H     1.0000    0     1.008   -3.837401    7.633237   -5.758284

--------------------------------
INTERNAL COORDINATES (ANGSTROEM)
--------------------------------
 O      0   0   0     0.000000000000     0.00000000     0.00000000
 C      1   0   0     1.233152923428     0.00000000     0.00000000
 C      2   1   0     1.537495354794   120.35487252     0.00000000
 C      3   2   1     1.541526624669   110.97971220   285.57648599
 C      4   3   2     1.534336656942   103.21659119   267.78822007
 C      5   4   3     1.531216300736   103.39486464   321.74902919
 N      3   2   1     1.468013233423   114.91383696   169.06652621
 C      7   3   2     1.371588556095   128.28106537   284.65295115
 O      8   7   3     1.230336505217   120.97782173   177.22776896
 N      2   1   3     1.358945604436   123.40002540   179.48566529
 C     10   2   1     1.455933831508   123.64308150   359.95461388
 C     11  10   2     1.553862571840   112.67311772   269.91511620
 N     12  11  10     1.357543863040   114.13694941    34.96443220
 C     13  12  11     1.450146147531   124.36486134   185.02857007
 C     14  13  12     1.534926651175   105.73934281   182.74715237
 N     15  14  13     1.350994195013   117.11951841   170.33854515
 C     16  15  14     1.456688456232   120.27356465   167.46457362
 C     17  16  15     1.531233850545   111.49589591   279.99057896
 C     18  17  16     1.552852868420   110.75936415   164.27076264
 C     19  18  17     1.546919996892   106.93340971   290.47791712
 N     20  19  18     1.363419741584   116.20772229   273.76935282
 C     21  20  19     1.468167755810   122.24220910   161.17679382
 C     22  21  20     1.546103959017   104.36094071   233.44912202
 N     23  22  21     1.359144228322   113.75671705    81.23027584
 C     24  23  22     1.462273013438   122.54811255   197.15843404
 C     25  24  23     1.525907800625   111.84299399    62.77323268
 O     23  22  21     1.230993108790   122.39893672   265.40861075
 C     22  21  20     1.528100422260   113.46367034   110.11898398
 C     28  22  21     1.538702047766   113.74628046   202.94997682
 C     29  28  22     1.534179470688   113.09808714   302.87331657
 C     29  28  22     1.532335434661   109.84569062   178.68767286
 O     20  19  18     1.227989624480   120.54884431    88.87667962
 C     19  18  17     1.529264203718   113.47008475   163.03249015
 C     33  19  18     1.530393159327   120.30434931    45.85346919
 C     34  33  19     1.538929276907   111.61164744   232.65871131
 C     35  34  33     1.532049876490   113.68373755   193.11428812
 C     36  35  34     1.533903241428   115.49810764   304.15788955
 C     37  36  35     1.531164331747   114.89269030   304.88039005
 C     38  37  36     1.530980054674   112.47071171   190.80243208
 C     39  38  37     1.528308455068   113.74649380   191.14360050
 C     40  39  38     1.530471658928   113.51193472   176.00846220
 C     41  40  39     1.529343817015   113.16292932   182.22220501
 O     33  19  18     1.218836180694   119.78103103   225.85476153
 O     18  17  16     1.434561914343   105.85497435   286.98605299
 O     15  14  13     1.241087093776   121.04158515   348.87270939
 C     14  13  12     1.551112019630   110.49653100    61.50982112
 C     46  14  13     1.528408445765   115.99306555   189.15151705
 O     12  11  10     1.232061361199   122.20326475   214.67535922
 C     11  10   2     1.539082816535   111.06152866   144.12574482
 C     49  11  10     1.531053173108   110.73857050   292.40617494
 C     49  11  10     1.534310000383   112.25291071    57.81335538
 H      3   2   1     1.095856146239   105.47158336    46.24605589
 H      4   3   2     1.099524214498   108.81555551   150.44856224
 H      4   3   2     1.096253583723   111.51230373    31.08600120
 H      5   4   3     1.100606877195   110.12694888    79.57825770
 H      5   4   3     1.096926713526   112.99660630   200.16220009
 H      6   5   4     1.097665212634   114.13847520   149.88499047
 H      6   5   4     1.101656236203   112.31044308   272.19697584
 H     10   2   1     1.016747691849   117.50267048   184.72724743
 H     11  10   2     1.103373012412   105.80197712    25.28617525
 H     13  12  11     1.022602223733   120.41460221    11.56435861
 H     14  13  12     1.105155634172   110.50185133   301.55972633
 H     16  15  14     1.014866415023   118.73357096     5.16321160
 H     17  16  15     1.098070855890   108.89975725   160.07367824
 H     17  16  15     1.095732868984   108.73950069    41.62333705
 H     18  17  16     1.105630945380   108.33546501    44.86876583
 H     19  18  17     1.098141796559   109.58212941    44.88867768
 H     21  20  19     1.015673190896   119.38420575   355.92795450
 H     22  21  20     1.100934850381   105.23988063   349.93949501
 H     24  23  22     1.024403572261   119.50321538   355.49957689
 H     25  24  23     1.101516978518   104.76194455   180.38992803
 H     26  25  24     1.100055757211   109.48424891    54.72290216
 H     26  25  24     1.095526836658   110.48194710   174.62416682
 H     26  25  24     1.095902508962   110.23235480   294.02284386
 H     28  22  21     1.102338794493   108.53800368    80.17294737
 H     28  22  21     1.100062753196   107.78030267   323.71238772
 H     29  28  22     1.105405517144   107.15471021    61.55276461
 H     30  29  28     1.099999526571   111.85915010    62.98099484
 H     30  29  28     1.099894017227   110.42514924   182.33946480
 H     30  29  28     1.099600883140   111.11526391   302.81385514
 H     31  29  28     1.099889236052   111.38770684   304.17773742
 H     31  29  28     1.101317780855   110.62414735    64.07503564
 H     31  29  28     1.099715468155   111.16363929   183.74264943
 H     34  33  19     1.104305556608   106.79072953   114.70117061
 H     34  33  19     1.102145402130   111.94485317   357.49398567
 H     35  34  33     1.104617412558   109.93850022    70.03547466
 H     35  34  33     1.098954033462   107.72159409   315.22139855
 H     36  35  34     1.102609981402   108.02565729   181.72072395
 H     36  35  34     1.102722489198   108.62767313    66.90342137
 H     37  36  35     1.102327638332   108.30179418   182.90799366
 H     37  36  35     1.103375201966   110.09911331    68.13765723
 H     38  37  36     1.106011688684   109.91811231    69.70391690
 H     38  37  36     1.104233763150   110.01780033   313.51244784
 H     39  38  37     1.103474356966   109.19315600    68.15206528
 H     39  38  37     1.102442925292   109.01302118   313.03575917
 H     40  39  38     1.103724699486   108.74688188    54.48042308
 H     40  39  38     1.104532526562   109.85062478   299.10403937
 H     41  40  39     1.103030464309   109.21079527    59.63935229
 H     41  40  39     1.103438559688   109.01261028   304.49194499
 H     42  41  40     1.099043837810   111.63067131   180.62805701
 H     42  41  40     1.100765140087   111.22053844   300.89413985
 H     42  41  40     1.100343118245   111.14681722    60.65674442
 H     44  18  17     0.974245863349   109.11748285   164.07933149
 H     46  14  13     1.100539124429   108.33474660    64.08650381
 H     46  14  13     1.097935583913   105.13699694   309.80958305
 H     47  46  14     1.098018737006   109.89124932   166.74507147
 H     47  46  14     1.099722755267   113.00192392   285.72818715
 H     47  46  14     1.101648380606   111.27669150    48.51586630
 H     49  11  10     1.100037551265   105.16443889   174.46006973
 H     50  49  11     1.099588592559   111.46510029   302.72423288
 H     50  49  11     1.101103168383   111.16334233    62.89816479
 H     50  49  11     1.099041036714   110.70371335   182.41882643
 H     51  49  11     1.097971087465   111.44704798    54.08099530
 H     51  49  11     1.098712082715   110.18461234   173.59743324
 H     51  49  11     1.102663752403   112.18426681   291.91263049

---------------------------
INTERNAL COORDINATES (A.U.)
---------------------------
 O      0   0   0     0.000000000000     0.00000000     0.00000000
 C      1   0   0     2.330321306524     0.00000000     0.00000000
 C      2   1   0     2.905445152736   120.35487252     0.00000000
 C      3   2   1     2.913063148772   110.97971220   285.57648599
 C      4   3   2     2.899476078856   103.21659119   267.78822007
 C      5   4   3     2.893579460187   103.39486464   321.74902919
 N      3   2   1     2.774142972142   114.91383696   169.06652621
 C      7   3   2     2.591926739440   128.28106537   284.65295115
 O      8   7   3     2.324999047426   120.97782173   177.22776896
 N      2   1   3     2.568035023280   123.40002540   179.48566529
 C     10   2   1     2.751316210660   123.64308150   359.95461388
 C     11  10   2     2.936374710528   112.67311772   269.91511620
 N     12  11  10     2.565386115931   114.13694941    34.96443220
 C     13  12  11     2.740379072995   124.36486134   185.02857007
 C     14  13  12     2.900591006378   105.73934281   182.74715237
 N     15  14  13     2.553009037092   117.11951841   170.33854515
 C     16  15  14     2.752742244723   120.27356465   167.46457362
 C     17  16  15     2.893612624519   111.49589591   279.99057896
 C     18  17  16     2.934466647589   110.75936415   164.27076264
 C     19  18  17     2.923255145212   106.93340971   290.47791712
 N     20  19  18     2.576489917176   116.20772229   273.76935282
 C     21  20  19     2.774434977135   122.24220910   161.17679382
 C     22  21  20     2.921713057114   104.36094071   233.44912202
 N     23  22  21     2.568410368028   113.75671705    81.23027584
 C     24  23  22     2.763295528422   122.54811255   197.15843404
 C     25  24  23     2.883547848796   111.84299399    62.77323268
 O     23  22  21     2.326239848357   122.39893672   265.40861075
 C     22  21  20     2.887691303200   113.46367034   110.11898398
 C     28  22  21     2.907725471982   113.74628046   202.94997682
 C     29  28  22     2.899179039885   113.09808714   302.87331657
 C     29  28  22     2.895694316813   109.84569062   178.68767286
 O     20  19  18     2.320564085564   120.54884431    88.87667962
 C     19  18  17     2.889890531437   113.47008475   163.03249015
 C     33  19  18     2.892023948355   120.30434931    45.85346919
 C     34  33  19     2.908154872828   111.61164744   232.65871131
 C     35  34  33     2.895154690075   113.68373755   193.11428812
 C     36  35  34     2.898657042233   115.49810764   304.15788955
 C     37  36  35     2.893481253030   114.89269030   304.88039005
 C     38  37  36     2.893133019829   112.47071171   190.80243208
 C     39  38  37     2.888084428236   113.74649380   191.14360050
 C     40  39  38     2.892172291103   113.51193472   176.00846220
 C     41  40  39     2.890040978765   113.16292932   182.22220501
 O     33  19  18     2.303266583625   119.78103103   225.85476153
 O     18  17  16     2.710929140261   105.85497435   286.98605299
 O     15  14  13     2.345314715580   121.04158515   348.87270939
 C     14  13  12     2.931176920134   110.49653100    61.50982112
 C     46  14  13     2.888273383268   115.99306555   189.15151705
 O     12  11  10     2.328258552853   122.20326475   214.67535922
 C     11  10   2     2.908445020675   111.06152866   144.12574482
 C     49  11  10     2.893271193644   110.73857050   292.40617494
 C     49  11  10     2.899425705261   112.25291071    57.81335538
 H      3   2   1     2.070867998566   105.47158336    46.24605589
 H      4   3   2     2.077799643015   108.81555551   150.44856224
 H      4   3   2     2.071619046566   111.51230373    31.08600120
 H      5   4   3     2.079845579008   110.12694888    79.57825770
 H      5   4   3     2.072891077546   112.99660630   200.16220009
[...]
freq.      79.45  E(vib)   ...       0.49 
freq.      82.42  E(vib)   ...       0.48 
freq.      88.64  E(vib)   ...       0.47 
freq.      92.23  E(vib)   ...       0.47 
freq.     102.93  E(vib)   ...       0.46 
freq.     107.67  E(vib)   ...       0.45 
freq.     114.67  E(vib)   ...       0.44 
freq.     122.46  E(vib)   ...       0.43 
freq.     125.85  E(vib)   ...       0.43 
freq.     138.70  E(vib)   ...       0.42 
freq.     142.50  E(vib)   ...       0.41 
freq.     147.48  E(vib)   ...       0.41 
freq.     150.27  E(vib)   ...       0.40 
freq.     155.50  E(vib)   ...       0.40 
freq.     158.13  E(vib)   ...       0.39 
freq.     164.36  E(vib)   ...       0.39 
freq.     172.57  E(vib)   ...       0.38 
freq.     174.65  E(vib)   ...       0.38 
freq.     179.93  E(vib)   ...       0.37 
freq.     189.20  E(vib)   ...       0.36 
freq.     200.11  E(vib)   ...       0.35 
freq.     202.14  E(vib)   ...       0.35 
freq.     210.53  E(vib)   ...       0.34 
freq.     213.25  E(vib)   ...       0.34 
freq.     217.47  E(vib)   ...       0.34 
freq.     226.30  E(vib)   ...       0.33 
freq.     232.06  E(vib)   ...       0.32 
freq.     236.62  E(vib)   ...       0.32 
freq.     237.03  E(vib)   ...       0.32 
freq.     239.86  E(vib)   ...       0.31 
freq.     242.22  E(vib)   ...       0.31 
freq.     252.33  E(vib)   ...       0.30 
freq.     258.48  E(vib)   ...       0.30 
freq.     260.95  E(vib)   ...       0.30 
freq.     261.86  E(vib)   ...       0.29 
freq.     266.95  E(vib)   ...       0.29 
freq.     271.38  E(vib)   ...       0.29 
freq.     276.02  E(vib)   ...       0.28 
freq.     284.81  E(vib)   ...       0.28 
freq.     291.43  E(vib)   ...       0.27 
freq.     293.55  E(vib)   ...       0.27 
freq.     298.99  E(vib)   ...       0.26 
freq.     307.77  E(vib)   ...       0.26 
freq.     315.34  E(vib)   ...       0.25 
freq.     316.48  E(vib)   ...       0.25 
freq.     318.17  E(vib)   ...       0.25 
freq.     333.41  E(vib)   ...       0.24 
freq.     340.31  E(vib)   ...       0.23 
freq.     347.23  E(vib)   ...       0.23 
freq.     351.47  E(vib)   ...       0.23 
freq.     363.62  E(vib)   ...       0.22 
freq.     394.60  E(vib)   ...       0.20 
freq.     395.13  E(vib)   ...       0.20 
freq.     396.28  E(vib)   ...       0.20 
freq.     402.77  E(vib)   ...       0.19 
freq.     410.18  E(vib)   ...       0.19 
freq.     414.49  E(vib)   ...       0.19 
freq.     432.24  E(vib)   ...       0.18 
freq.     437.97  E(vib)   ...       0.17 
freq.     439.71  E(vib)   ...       0.17 
freq.     457.11  E(vib)   ...       0.16 
freq.     479.00  E(vib)   ...       0.15 
freq.     483.28  E(vib)   ...       0.15 
freq.     507.99  E(vib)   ...       0.14 
freq.     515.12  E(vib)   ...       0.13 
freq.     519.55  E(vib)   ...       0.13 
freq.     525.74  E(vib)   ...       0.13 
freq.     530.90  E(vib)   ...       0.13 
freq.     538.72  E(vib)   ...       0.12 
freq.     548.43  E(vib)   ...       0.12 
freq.     569.83  E(vib)   ...       0.11 
freq.     575.38  E(vib)   ...       0.11 
freq.     595.47  E(vib)   ...       0.10 
freq.     604.77  E(vib)   ...       0.10 
freq.     611.28  E(vib)   ...       0.10 
freq.     623.81  E(vib)   ...       0.09 
freq.     633.48  E(vib)   ...       0.09 
freq.     643.55  E(vib)   ...       0.09 
freq.     662.54  E(vib)   ...       0.08 
freq.     671.74  E(vib)   ...       0.08 
freq.     695.75  E(vib)   ...       0.07 
freq.     697.27  E(vib)   ...       0.07 
freq.     708.59  E(vib)   ...       0.07 
freq.     710.53  E(vib)   ...       0.07 
freq.     712.52  E(vib)   ...       0.07 
freq.     729.37  E(vib)   ...       0.06 
freq.     733.59  E(vib)   ...       0.06 
freq.     738.79  E(vib)   ...       0.06 
freq.     753.14  E(vib)   ...       0.06 
freq.     764.46  E(vib)   ...       0.06 
freq.     771.47  E(vib)   ...       0.05 
freq.     780.53  E(vib)   ...       0.05 
freq.     782.57  E(vib)   ...       0.05 
freq.     811.83  E(vib)   ...       0.05 
freq.     812.43  E(vib)   ...       0.05 
freq.     815.34  E(vib)   ...       0.05 
freq.     828.51  E(vib)   ...       0.04 
freq.     832.52  E(vib)   ...       0.04 
freq.     847.68  E(vib)   ...       0.04 
freq.     850.61  E(vib)   ...       0.04 
freq.     857.90  E(vib)   ...       0.04 
freq.     858.83  E(vib)   ...       0.04 
freq.     867.32  E(vib)   ...       0.04 
freq.     871.29  E(vib)   ...       0.04 
freq.     883.96  E(vib)   ...       0.04 
freq.     886.00  E(vib)   ...       0.04 
freq.     888.15  E(vib)   ...       0.04 
freq.     900.95  E(vib)   ...       0.03 
freq.     902.28  E(vib)   ...       0.03 
freq.     903.81  E(vib)   ...       0.03 
freq.     908.90  E(vib)   ...       0.03 
freq.     913.16  E(vib)   ...       0.03 
freq.     925.37  E(vib)   ...       0.03 
freq.     938.51  E(vib)   ...       0.03 
freq.     940.38  E(vib)   ...       0.03 
freq.     944.58  E(vib)   ...       0.03 
freq.     950.93  E(vib)   ...       0.03 
freq.     952.21  E(vib)   ...       0.03 
freq.     953.39  E(vib)   ...       0.03 
freq.     956.75  E(vib)   ...       0.03 
freq.     961.90  E(vib)   ...       0.03 
freq.     972.63  E(vib)   ...       0.03 
freq.     983.39  E(vib)   ...       0.02 
freq.     992.62  E(vib)   ...       0.02 
freq.     994.50  E(vib)   ...       0.02 
freq.    1003.28  E(vib)   ...       0.02 
freq.    1009.36  E(vib)   ...       0.02 
freq.    1019.42  E(vib)   ...       0.02 
freq.    1021.85  E(vib)   ...       0.02 
freq.    1027.07  E(vib)   ...       0.02 
freq.    1030.74  E(vib)   ...       0.02 
freq.    1035.58  E(vib)   ...       0.02 
freq.    1036.63  E(vib)   ...       0.02 
freq.    1039.99  E(vib)   ...       0.02 
freq.    1044.85  E(vib)   ...       0.02 
freq.    1053.14  E(vib)   ...       0.02 
freq.    1060.05  E(vib)   ...       0.02 
freq.    1066.48  E(vib)   ...       0.02 
freq.    1069.59  E(vib)   ...       0.02 
freq.    1075.79  E(vib)   ...       0.02 
freq.    1080.01  E(vib)   ...       0.02 
freq.    1081.59  E(vib)   ...       0.02 
freq.    1084.08  E(vib)   ...       0.02 
freq.    1089.42  E(vib)   ...       0.02 
freq.    1092.09  E(vib)   ...       0.02 
freq.    1099.19  E(vib)   ...       0.02 
freq.    1112.65  E(vib)   ...       0.01 
freq.    1112.98  E(vib)   ...       0.01 
freq.    1117.41  E(vib)   ...       0.01 
freq.    1122.79  E(vib)   ...       0.01 
freq.    1135.81  E(vib)   ...       0.01 
freq.    1138.26  E(vib)   ...       0.01 
freq.    1143.42  E(vib)   ...       0.01 
freq.    1149.87  E(vib)   ...       0.01 
freq.    1152.73  E(vib)   ...       0.01 
freq.    1160.50  E(vib)   ...       0.01 
freq.    1162.65  E(vib)   ...       0.01 
freq.    1169.85  E(vib)   ...       0.01 
freq.    1178.71  E(vib)   ...       0.01 
freq.    1185.28  E(vib)   ...       0.01 
freq.    1188.02  E(vib)   ...       0.01 
freq.    1191.75  E(vib)   ...       0.01 
freq.    1195.95  E(vib)   ...       0.01 
freq.    1197.95  E(vib)   ...       0.01 
freq.    1213.88  E(vib)   ...       0.01 
freq.    1218.05  E(vib)   ...       0.01 
freq.    1219.89  E(vib)   ...       0.01 
freq.    1224.44  E(vib)   ...       0.01 
freq.    1226.67  E(vib)   ...       0.01 
freq.    1237.23  E(vib)   ...       0.01 
freq.    1239.66  E(vib)   ...       0.01 
freq.    1239.86  E(vib)   ...       0.01 
freq.    1242.99  E(vib)   ...       0.01 
freq.    1247.27  E(vib)   ...       0.01 
freq.    1248.00  E(vib)   ...       0.01 
freq.    1258.17  E(vib)   ...       0.01 
freq.    1264.10  E(vib)   ...       0.01 
freq.    1271.28  E(vib)   ...       0.01 
freq.    1273.92  E(vib)   ...       0.01 
freq.    1277.95  E(vib)   ...       0.01 
freq.    1279.17  E(vib)   ...       0.01 
freq.    1281.48  E(vib)   ...       0.01 
freq.    1285.91  E(vib)   ...       0.01 
freq.    1291.00  E(vib)   ...       0.01 
freq.    1292.89  E(vib)   ...       0.01 
freq.    1294.22  E(vib)   ...       0.01 
freq.    1294.90  E(vib)   ...       0.01 
freq.    1297.03  E(vib)   ...       0.01 
freq.    1302.76  E(vib)   ...       0.01 
freq.    1307.11  E(vib)   ...       0.01 
freq.    1308.33  E(vib)   ...       0.01 
freq.    1310.45  E(vib)   ...       0.01 
freq.    1318.56  E(vib)   ...       0.01 
freq.    1320.67  E(vib)   ...       0.01 
freq.    1322.58  E(vib)   ...       0.01 
freq.    1325.31  E(vib)   ...       0.01 
freq.    1326.38  E(vib)   ...       0.01 
freq.    1329.44  E(vib)   ...       0.01 
freq.    1330.65  E(vib)   ...       0.01 
freq.    1336.18  E(vib)   ...       0.01 
freq.    1340.21  E(vib)   ...       0.01 
freq.    1341.55  E(vib)   ...       0.01 
freq.    1344.28  E(vib)   ...       0.01 
freq.    1349.91  E(vib)   ...       0.01 
freq.    1350.51  E(vib)   ...       0.01 
freq.    1351.47  E(vib)   ...       0.01 
freq.    1352.01  E(vib)   ...       0.01 
freq.    1353.55  E(vib)   ...       0.01 
freq.    1354.31  E(vib)   ...       0.01 
freq.    1360.13  E(vib)   ...       0.01 
freq.    1363.14  E(vib)   ...       0.01 
freq.    1365.79  E(vib)   ...       0.01 
freq.    1371.00  E(vib)   ...       0.01 
freq.    1371.85  E(vib)   ...       0.01 
freq.    1372.36  E(vib)   ...       0.01 
freq.    1419.04  E(vib)   ...       0.00 
freq.    1420.17  E(vib)   ...       0.00 
freq.    1423.19  E(vib)   ...       0.00 
freq.    1426.86  E(vib)   ...       0.00 
freq.    1432.20  E(vib)   ...       0.00 
freq.    1435.03  E(vib)   ...       0.00 
freq.    1435.85  E(vib)   ...       0.00 
freq.    1436.33  E(vib)   ...       0.00 
freq.    1437.21  E(vib)   ...       0.00 
freq.    1438.29  E(vib)   ...       0.00 
freq.    1440.68  E(vib)   ...       0.00 
freq.    1443.54  E(vib)   ...       0.00 
freq.    1443.88  E(vib)   ...       0.00 
freq.    1445.07  E(vib)   ...       0.00 
freq.    1445.79  E(vib)   ...       0.00 
freq.    1448.47  E(vib)   ...       0.00 
freq.    1450.12  E(vib)   ...       0.00 
freq.    1451.79  E(vib)   ...       0.00 
freq.    1452.39  E(vib)   ...       0.00 
freq.    1454.62  E(vib)   ...       0.00 
freq.    1454.78  E(vib)   ...       0.00 
freq.    1456.13  E(vib)   ...       0.00 
freq.    1457.24  E(vib)   ...       0.00 
freq.    1459.73  E(vib)   ...       0.00 
freq.    1461.00  E(vib)   ...       0.00 
freq.    1464.59  E(vib)   ...       0.00 
freq.    1472.07  E(vib)   ...       0.00 
freq.    1473.42  E(vib)   ...       0.00 
freq.    1476.27  E(vib)   ...       0.00 
freq.    1477.34  E(vib)   ...       0.00 
freq.    1481.79  E(vib)   ...       0.00 
freq.    1493.70  E(vib)   ...       0.00 
freq.    1510.38  E(vib)   ...       0.00 
freq.    1650.36  E(vib)   ...       0.00 
freq.    1658.10  E(vib)   ...       0.00 
freq.    1672.65  E(vib)   ...       0.00 
freq.    1677.19  E(vib)   ...       0.00 
freq.    1678.66  E(vib)   ...       0.00 
freq.    1690.10  E(vib)   ...       0.00 
freq.    1711.88  E(vib)   ...       0.00 
freq.    2911.71  E(vib)   ...       0.00 
freq.    2921.66  E(vib)   ...       0.00 
freq.    2924.05  E(vib)   ...       0.00 
freq.    2930.82  E(vib)   ...       0.00 
freq.    2931.40  E(vib)   ...       0.00 
freq.    2933.41  E(vib)   ...       0.00 
freq.    2940.95  E(vib)   ...       0.00 
freq.    2942.31  E(vib)   ...       0.00 
freq.    2943.66  E(vib)   ...       0.00 
freq.    2946.91  E(vib)   ...       0.00 
freq.    2949.21  E(vib)   ...       0.00 
freq.    2951.64  E(vib)   ...       0.00 
freq.    2951.67  E(vib)   ...       0.00 
freq.    2954.35  E(vib)   ...       0.00 
freq.    2955.90  E(vib)   ...       0.00 
freq.    2957.32  E(vib)   ...       0.00 
freq.    2958.19  E(vib)   ...       0.00 
freq.    2959.84  E(vib)   ...       0.00 
freq.    2959.99  E(vib)   ...       0.00 
freq.    2963.80  E(vib)   ...       0.00 
freq.    2964.81  E(vib)   ...       0.00 
freq.    2965.00  E(vib)   ...       0.00 
freq.    2972.77  E(vib)   ...       0.00 
freq.    2975.73  E(vib)   ...       0.00 
freq.    2977.96  E(vib)   ...       0.00 
freq.    2979.48  E(vib)   ...       0.00 
freq.    2979.60  E(vib)   ...       0.00 
freq.    2983.68  E(vib)   ...       0.00 
freq.    2985.33  E(vib)   ...       0.00 
freq.    2989.62  E(vib)   ...       0.00 
freq.    2989.86  E(vib)   ...       0.00 
freq.    2991.86  E(vib)   ...       0.00 
freq.    2992.05  E(vib)   ...       0.00 
freq.    2995.68  E(vib)   ...       0.00 
freq.    3010.41  E(vib)   ...       0.00 
freq.    3012.45  E(vib)   ...       0.00 
freq.    3014.97  E(vib)   ...       0.00 
freq.    3018.41  E(vib)   ...       0.00 
freq.    3018.49  E(vib)   ...       0.00 
freq.    3020.72  E(vib)   ...       0.00 
freq.    3021.95  E(vib)   ...       0.00 
freq.    3022.62  E(vib)   ...       0.00 
freq.    3023.25  E(vib)   ...       0.00 
freq.    3024.29  E(vib)   ...       0.00 
freq.    3026.54  E(vib)   ...       0.00 
freq.    3028.71  E(vib)   ...       0.00 
freq.    3031.46  E(vib)   ...       0.00 
freq.    3034.67  E(vib)   ...       0.00 
freq.    3035.51  E(vib)   ...       0.00 
freq.    3035.64  E(vib)   ...       0.00 
freq.    3037.05  E(vib)   ...       0.00 
freq.    3042.10  E(vib)   ...       0.00 
freq.    3043.07  E(vib)   ...       0.00 
freq.    3049.16  E(vib)   ...       0.00 
freq.    3053.33  E(vib)   ...       0.00 
freq.    3055.98  E(vib)   ...       0.00 
freq.    3072.18  E(vib)   ...       0.00 
freq.    3079.58  E(vib)   ...       0.00 
freq.    3370.04  E(vib)   ...       0.00 
freq.    3407.58  E(vib)   ...       0.00 
freq.    3492.04  E(vib)   ...       0.00 
freq.    3506.54  E(vib)   ...       0.00 
freq.    3525.11  E(vib)   ...       0.00 
freq.    3650.35  E(vib)   ...       0.00 

------------
INNER ENERGY
------------

The inner energy is: U= E(el) + E(ZPE) + E(vib) + E(rot) + E(trans)
    E(el)   - is the total energy from the electronic structure calculation
              = E(kin-el) + E(nuc-el) + E(el-el) + E(nuc-nuc)
    E(ZPE)  - the the zero temperature vibrational energy from the frequency calculation
    E(vib)  - the the finite temperature correction to E(ZPE) due to population
              of excited vibrational states
    E(rot)  - is the rotational thermal energy
    E(trans)- is the translational thermal energy

Summary of contributions to the inner energy U:
Electronic energy                ...  -2380.06998362 Eh
Zero point energy                ...      0.97722861 Eh     613.22 kcal/mol
Thermal vibrational correction   ...      0.05575012 Eh      34.98 kcal/mol
Thermal rotational correction    ...      0.00141627 Eh       0.89 kcal/mol
Thermal translational correction ...      0.00141627 Eh       0.89 kcal/mol
-----------------------------------------------------------------------
Total thermal energy                  -2379.03417235 Eh


Summary of corrections to the electronic energy:
(perhaps to be used in another calculation)
Total thermal correction                  0.05858266 Eh      36.76 kcal/mol
Non-thermal (ZPE) correction              0.97722861 Eh     613.22 kcal/mol
-----------------------------------------------------------------------
Total correction                          1.03581127 Eh     649.98 kcal/mol


--------
ENTHALPY
--------

The enthalpy is H = U + kB*T
                kB is Boltzmann's constant
Total free energy                 ...  -2379.03417235 Eh 
Thermal Enthalpy correction       ...      0.00094421 Eh       0.59 kcal/mol
-----------------------------------------------------------------------
Total Enthalpy                    ...  -2379.03322814 Eh


Note: Only C1 symmetry has been detected, increase convergence thresholds 
      if your molecule has a higher symmetry. Symmetry factor of 1.0 is   
      used for the rotational entropy correction. 
 

Note: Rotational entropy computed according to Herzberg 
Infrared and Raman Spectra, Chapter V,1, Van Nostrand Reinhold, 1945 
Point Group:  C1, Symmetry Number:   1  
Rotational constants in cm-1:     0.002190     0.001651     0.001299 

Vibrational entropy computed according to the QRRHO of S. Grimme
Chem.Eur.J. 2012 18 9955


-------
ENTROPY
-------

The entropy contributions are T*S = T*(S(el)+S(vib)+S(rot)+S(trans))
     S(el)   - electronic entropy
     S(vib)  - vibrational entropy
     S(rot)  - rotational entropy
     S(trans)- translational entropy
The entropies will be listed as mutliplied by the temperature to get
units of energy

Electronic entropy                ...      0.00000000 Eh      0.00 kcal/mol
Vibrational entropy               ...      0.10191796 Eh     63.95 kcal/mol
Rotational entropy                ...      0.01856376 Eh     11.65 kcal/mol
Translational entropy             ...      0.02166895 Eh     13.60 kcal/mol
-----------------------------------------------------------------------
Final entropy term                ...      0.14215066 Eh     89.20 kcal/mol

In case the symmetry of your molecule has not been determined correctly
or in case you have a reason to use a different symmetry number we print 
out the resulting rotational entropy values for sn=1,12 :
 --------------------------------------------------------
|  sn= 1 | S(rot)=       0.01856376 Eh     11.65 kcal/mol|
|  sn= 2 | S(rot)=       0.01790930 Eh     11.24 kcal/mol|
|  sn= 3 | S(rot)=       0.01752647 Eh     11.00 kcal/mol|
|  sn= 4 | S(rot)=       0.01725485 Eh     10.83 kcal/mol|
|  sn= 5 | S(rot)=       0.01704416 Eh     10.70 kcal/mol|
|  sn= 6 | S(rot)=       0.01687201 Eh     10.59 kcal/mol|
|  sn= 7 | S(rot)=       0.01672647 Eh     10.50 kcal/mol|
|  sn= 8 | S(rot)=       0.01660039 Eh     10.42 kcal/mol|
|  sn= 9 | S(rot)=       0.01648918 Eh     10.35 kcal/mol|
|  sn=10 | S(rot)=       0.01638970 Eh     10.28 kcal/mol|
|  sn=11 | S(rot)=       0.01629971 Eh     10.23 kcal/mol|
|  sn=12 | S(rot)=       0.01621756 Eh     10.18 kcal/mol|
 --------------------------------------------------------


-------------------
GIBBS FREE ENERGY
-------------------

The Gibbs free energy is G = H - T*S

Total enthalpy                    ...  -2379.03322814 Eh 
Total entropy correction          ...     -0.14215066 Eh    -89.20 kcal/mol
-----------------------------------------------------------------------
Final Gibbs free energy         ...  -2379.17537880 Eh

For completeness - the Gibbs free energy minus the electronic energy
G-E(el)                           ...      0.89460482 Eh    561.37 kcal/mol

--------------------------------------------------------------------------
WARNING: No preset parameters were found for the device that Open MPI
detected:

  Local host:            eu-g1-014-2
  Device name:           mlx5_0
  Device vendor ID:      0x02c9
  Device vendor part ID: 4123

Default device parameters will be used, which may result in lower
performance.  You can edit any of the files specified by the
btl_openib_device_param_files MCA parameter to set values for your
device.

NOTE: You can turn off this warning by setting the MCA parameter
      btl_openib_warn_no_device_params_found to 0.
--------------------------------------------------------------------------
--------------------------------------------------------------------------
WARNING: There was an error initializing an OpenFabrics device.

  Local host:   eu-g1-014-2
  Local device: mlx5_0
--------------------------------------------------------------------------

Timings for individual modules:

Sum of individual times         ...    28797.624 sec (= 479.960 min)
GTO integral calculation        ...       13.034 sec (=   0.217 min)   0.0 %
SCF iterations                  ...      327.481 sec (=   5.458 min)   1.1 %
SCF Gradient evaluation         ...       74.026 sec (=   1.234 min)   0.3 %
Geometry relaxation             ...        4.008 sec (=   0.067 min)   0.0 %
Analytical frequency calculation...    28379.074 sec (= 472.985 min)  98.5 %
                             ****ORCA TERMINATED NORMALLY****
TOTAL RUN TIME: 0 days 8 hours 0 minutes 15 seconds 141 msec
