
                                 *****************
                                 * O   R   C   A *
                                 *****************

           --- An Ab Initio, DFT and Semiempirical electronic structure package ---

                  #######################################################
                  #                        -***-                        #
                  #          Department of theory and spectroscopy      #
                  #               Directorship: Frank Neese             #
                  #        Max Planck Institute fuer Kohlenforschung    #
                  #                Kaiser Wilhelm Platz 1               #
                  #                 D-45470 Muelheim/Ruhr               #
                  #                      Germany                        #
                  #                                                     #
                  #                  All rights reserved                #
                  #                        -***-                        #
                  #######################################################


                         Program Version 4.2.0 -  RELEASE  -


 With contributions from (in alphabetic order):
   Daniel Aravena         : Magnetic Suceptibility
   Michael Atanasov       : Ab Initio Ligand Field Theory (pilot matlab implementation)
   Alexander A. Auer      : GIAO ZORA, VPT2
   Ute Becker             : Parallelization
   Giovanni Bistoni       : ED, misc. LED, open-shell LED, HFLED
   Martin Brehm           : Molecular dynamics
   Dmytro Bykov           : SCF Hessian
   Vijay G. Chilkuri      : MRCI spin determinant printing, contributions to CSF-ICE
   Dipayan Datta          : RHF DLPNO-CCSD density
   Achintya Kumar Dutta   : EOM-CC, STEOM-CC
   Dmitry Ganyushin       : Spin-Orbit,Spin-Spin,Magnetic field MRCI
   Miquel Garcia          : C-PCM Hessian, Gaussian charge scheme
   Yang Guo               : DLPNO-NEVPT2, CIM, IAO-localization
   Andreas Hansen         : Spin unrestricted coupled pair/coupled cluster methods
   Benjamin Helmich-Paris : CASSCF linear response (MC-RPA)
   Lee Huntington         : MR-EOM, pCC
   Robert Izsak           : Overlap fitted RIJCOSX, COSX-SCS-MP3, EOM
   Christian Kollmar      : KDIIS, OOCD, Brueckner-CCSD(T), CCSD density
   Simone Kossmann        : Meta GGA functionals, TD-DFT gradient, OOMP2, MP2 Hessian
   Martin Krupicka        : AUTO-CI
   Lucas Lang             : DCDCAS
   Dagmar Lenk            : GEPOL surface, SMD
   Dimitrios Liakos       : Extrapolation schemes; Compound Job, initial MDCI parallelization
   Dimitrios Manganas     : Further ROCIS development; embedding schemes
   Dimitrios Pantazis     : SARC Basis sets
   Taras Petrenko         : DFT Hessian,TD-DFT gradient, ASA, ECA, R-Raman, ABS, FL, XAS/XES, NRVS
   Peter Pinski           : DLPNO-MP2, DLPNO-MP2 Gradient
   Christoph Reimann      : Effective Core Potentials
   Marius Retegan         : Local ZFS, SOC
   Christoph Riplinger    : Optimizer, TS searches, QM/MM, DLPNO-CCSD(T), (RO)-DLPNO pert. Triples
   Tobias Risthaus        : Range-separated hybrids, TD-DFT gradient, RPA, STAB
   Michael Roemelt        : Original ROCIS implementation
   Masaaki Saitow         : Open-shell DLPNO-CCSD energy and density
   Barbara Sandhoefer     : DKH picture change effects
   Avijit Sen             : IP-ROCIS
   Kantharuban Sivalingam : CASSCF convergence, NEVPT2, FIC-MRCI
   Bernardo de Souza      : ESD, SOC TD-DFT
   Georgi Stoychev        : AutoAux, RI-MP2 NMR
   Willem Van den Heuvel  : Paramagnetic NMR
   Boris Wezisla          : Elementary symmetry handling
   Frank Wennmohs         : Technical directorship


 We gratefully acknowledge several colleagues who have allowed us to
 interface, adapt or use parts of their codes:
   Stefan Grimme, W. Hujo, H. Kruse,             : VdW corrections, initial TS optimization,
                  C. Bannwarth                     DFT functionals, gCP, sTDA/sTD-DF
   Ed Valeev, F. Pavosevic, A. Kumar             : LibInt (2-el integral package), F12 methods
   Garnet Chan, S. Sharma, J. Yang, R. Olivares  : DMRG
   Ulf Ekstrom                                   : XCFun DFT Library
   Mihaly Kallay                                 : mrcc  (arbitrary order and MRCC methods)
   Andreas Klamt, Michael Diedenhofen            : otool_cosmo (COSMO solvation model)
   Jiri Pittner, Ondrej Demel                    : Mk-CCSD
   Frank Weinhold                                : gennbo (NPA and NBO analysis)
   Christopher J. Cramer and Donald G. Truhlar   : smd solvation model
   Lars Goerigk                                  : TD-DFT with DH, B97 family of functionals
   V. Asgeirsson, H. Jonsson                     : NEB implementation
   FAccTs GmbH                                   : IRC, NEB, NEB-TS, Multilevel, MM, QM/MM, CI optimization
   S Lehtola, MJT Oliveira, MAL Marques          : LibXC Library


 Your calculation uses the libint2 library for the computation of 2-el integrals
 For citations please refer to: http://libint.valeyev.net

 Your ORCA version has been built with support for libXC version: 4.2.3
 For citations please refer to: https://tddft.org/programs/libxc/

 This ORCA versions uses:
   CBLAS   interface :  Fast vector & matrix operations
   LAPACKE interface :  Fast linear algebra routines
   SCALAPACK package :  Parallel linear algebra routines




***************************************
The coordinates will be read from file: 4.xyz
***************************************


Your calculation utilizes the atom-pairwise dispersion correction
with the Becke-Johnson damping scheme (D3BJ)
Cite in your paper:
S.Grimme, S.Ehrlich, L.Goerigk, J Comput Chem, (2011), 32, 1456–1465 
S.Grimme, J.Antony, S.Ehrlich and H.Krieg, J.Chem.Phys., 132, (2010), 154104 
   

----- Orbital basis set information -----
Your calculation utilizes the basis: def2-TZVP
   F. Weigend and R. Ahlrichs, Phys. Chem. Chem. Phys. 7, 3297 (2005).

----- AuxJ basis set information -----
Your calculation utilizes the auxiliary basis: def2/J
   F. Weigend, Phys. Chem. Chem. Phys. 8, 1057 (2006).

================================================================================
                                        WARNINGS
                       Please study these warnings very carefully!
================================================================================


WARNING: Geometry Optimization
  ===> : Switching off AutoStart
         For restart on a previous wavefunction, please use MOREAD

INFO   : the flag for use of LIBINT has been found!

================================================================================
                                       INPUT FILE
================================================================================
NAME = 4.inp
|  1> !RI BP86 def2-tzvp def2/J D3BJ TIGHTSCF TightOpt Grid5 FinalGrid6 freq
|  2> %maxcore 4000
|  3> %pal nprocs 24
|  4> end
|  5> * xyzfile 0 1 4.xyz 
|  6> 
|  7>                          ****END OF INPUT****
================================================================================

                       *****************************
                       * Geometry Optimization Run *
                       *****************************

Geometry optimization settings:
Update method            Update   .... BFGS
Choice of coordinates    CoordSys .... Z-matrix Internals
Initial Hessian          InHess   .... Almoef's Model

Convergence Tolerances:
Energy Change            TolE     ....  1.0000e-06 Eh
Max. Gradient            TolMAXG  ....  1.0000e-04 Eh/bohr
RMS Gradient             TolRMSG  ....  3.0000e-05 Eh/bohr
Max. Displacement        TolMAXD  ....  1.0000e-03 bohr
RMS Displacement         TolRMSD  ....  6.0000e-04 bohr
Strict Convergence                ....  False
------------------------------------------------------------------------------
                        ORCA OPTIMIZATION COORDINATE SETUP
------------------------------------------------------------------------------

The optimization will be done in new redundant internal coordinates
Making redundant internal coordinates   ...  (new redundants) done
Evaluating the initial hessian          ...  (Almloef) done
Evaluating the coordinates              ...  done
Calculating the B-matrix                .... done
Calculating the G-matrix                .... done
Diagonalizing the G-matrix              .... done
Small eigenvalue found = 1.231e-03
Small eigenvalue found = 1.992e-03
Small eigenvalue found = 2.078e-03
Small eigenvalue found = 3.801e-03
Small eigenvalue found = 5.059e-03
Small eigenvalue found = 6.459e-03
Small eigenvalue found = 7.334e-03
Small eigenvalue found = 9.509e-03
Small eigenvalue found = 1.067e-02
Small eigenvalue found = 1.195e-02
Small eigenvalue found = 1.267e-02
Small eigenvalue found = 1.406e-02
Small eigenvalue found = 1.593e-02
Small eigenvalue found = 1.640e-02
Small eigenvalue found = 1.859e-02
Small eigenvalue found = 2.238e-02
Small eigenvalue found = 2.554e-02
Small eigenvalue found = 2.746e-02
Small eigenvalue found = 2.878e-02
The first mode is                       ....  328
The number of degrees of freedom        ....  339

    -----------------------------------------------------------------
                    Redundant Internal Coordinates


    -----------------------------------------------------------------
         Definition                    Initial Value    Approx d2E/dq
    -----------------------------------------------------------------
      1. B(C   1,O   0)                  1.2278         1.015342   
      2. B(C   2,C   1)                  1.5349         0.366930   
      3. B(C   3,C   2)                  1.5438         0.355159   
      4. B(C   4,C   3)                  1.5352         0.366527   
      5. B(C   5,C   4)                  1.5319         0.370983   
      6. B(N   6,C   5)                  1.4754         0.408922   
      7. B(N   6,C   2)                  1.4746         0.410185   
      8. B(C   7,N   6)                  1.3622         0.619815   
      9. B(O   8,C   7)                  1.2375         0.980067   
     10. B(N   9,C   1)                  1.3672         0.608480   
     11. B(C  10,N   9)                  1.4556         0.439739   
     12. B(C  11,C  10)                  1.5319         0.371006   
     13. B(N  12,C  11)                  1.3570         0.631703   
     14. B(C  13,N  12)                  1.4548         0.440988   
     15. B(C  14,C  13)                  1.5226         0.383860   
     16. B(N  15,C  14)                  1.3475         0.654216   
     17. B(C  16,N  15)                  1.4598         0.432994   
     18. B(C  17,C  16)                  1.5316         0.371442   
     19. B(C  18,C  17)                  1.5483         0.349323   
     20. B(C  19,C  18)                  1.5406         0.359331   
     21. B(N  20,C  19)                  1.3580         0.629484   
     22. B(C  21,N  20)                  1.4564         0.438410   
     23. B(C  22,C  21)                  1.5445         0.354178   
     24. B(N  23,C  22)                  1.3567         0.632357   
     25. B(C  24,C   7)                  1.5347         0.367217   
     26. B(C  24,N  23)                  1.4439         0.459023   
     27. B(C  25,C  24)                  1.5414         0.358263   
     28. B(O  26,C  22)                  1.2325         0.998132   
     29. B(C  27,C  21)                  1.5380         0.362779   
     30. B(C  28,C  27)                  1.5385         0.362096   
     31. B(C  29,C  28)                  1.5322         0.370556   
     32. B(C  30,C  28)                  1.5329         0.369639   
     33. B(O  31,C  19)                  1.2331         0.995949   
     34. B(C  32,C  18)                  1.5351         0.366588   
     35. B(C  33,C  32)                  1.5086         0.404118   
     36. B(C  34,C  33)                  1.5439         0.354934   
     37. B(C  35,C  34)                  1.5330         0.369521   
     38. B(C  36,C  35)                  1.5407         0.359197   
     39. B(C  37,C  36)                  1.5366         0.364581   
     40. B(C  38,C  37)                  1.5338         0.368427   
     41. B(C  39,C  38)                  1.5321         0.370731   
     42. B(C  40,C  39)                  1.5319         0.370930   
     43. B(C  41,C  40)                  1.5277         0.376758   
     44. B(O  42,C  32)                  1.2273         1.017198   
     45. B(O  43,C  17)                  1.4231         0.495614   
     46. B(O  44,C  14)                  1.2453         0.952057   
     47. B(C  45,C  13)                  1.5476         0.350162   
     48. B(C  46,C  45)                  1.5272         0.377438   
     49. B(O  47,C  11)                  1.2336         0.993914   
     50. B(C  48,C  10)                  1.5513         0.345418   
     51. B(C  49,C  48)                  1.5290         0.374983   
     52. B(C  50,C  48)                  1.5322         0.370603   
     53. B(H  51,C   2)                  1.0976         0.350187   
     54. B(H  52,C   3)                  1.0996         0.347634   
     55. B(H  53,C   3)                  1.0960         0.352251   
     56. B(H  54,C   4)                  1.1004         0.346663   
     57. B(H  55,C   4)                  1.0968         0.351191   
     58. B(H  56,C   5)                  1.0986         0.348841   
     59. B(H  57,C   5)                  1.1015         0.345220   
     60. B(H  58,N   9)                  1.0166         0.422369   
     61. B(H  59,C  10)                  1.1007         0.346252   
     62. B(H  60,N  12)                  1.0177         0.420607   
     63. B(H  61,C  13)                  1.1011         0.345686   
     64. B(H  62,N  15)                  1.0160         0.423341   
     65. B(H  63,C  16)                  1.0956         0.352718   
     66. B(H  64,C  16)                  1.0990         0.348427   
     67. B(H  65,C  17)                  1.1070         0.338300   
     68. B(H  66,C  18)                  1.1035         0.342643   
     69. B(H  67,N  20)                  1.0350         0.394793   
     70. B(H  68,C  21)                  1.1024         0.344008   
     71. B(H  69,O  44)                  3.3494         0.000080   
     72. B(H  69,N  23)                  1.0204         0.416489   
     73. B(H  70,C  24)                  1.1023         0.344145   
     74. B(H  71,C  25)                  1.0969         0.351071   
     75. B(H  72,C  25)                  1.0978         0.349970   
     76. B(H  73,C  25)                  1.0983         0.349291   
     77. B(H  74,C  27)                  1.1014         0.345320   
     78. B(H  75,C  27)                  1.1032         0.343092   
     79. B(H  76,C  28)                  1.1010         0.345849   
     80. B(H  77,C  29)                  1.0999         0.347240   
     81. B(H  78,C  29)                  1.0999         0.347294   
     82. B(H  79,C  29)                  1.1025         0.343977   
     83. B(H  80,C  30)                  1.0992         0.348097   
     84. B(H  81,C  30)                  1.1017         0.344902   
     85. B(H  82,C  30)                  1.0998         0.347407   
     86. B(H  83,C  33)                  1.1002         0.346844   
     87. B(H  84,C  33)                  1.0987         0.348736   
     88. B(H  85,C  34)                  1.0989         0.348476   
     89. B(H  86,H  60)                  3.7877         0.000003   
     90. B(H  86,C  34)                  1.1004         0.346560   
     91. B(H  87,C  35)                  1.1025         0.343928   
     92. B(H  88,C  35)                  1.1042         0.341783   
     93. B(H  89,H  51)                  2.4586         0.000452   
     94. B(H  89,C  36)                  1.0987         0.348783   
     95. B(H  90,C  36)                  1.1026         0.343834   
     96. B(H  91,C  37)                  1.1021         0.344455   
     97. B(H  92,C  37)                  1.1037         0.342396   
     98. B(H  93,C  38)                  1.1032         0.343054   
     99. B(H  94,C  38)                  1.1041         0.341944   
    100. B(H  95,C  39)                  1.1021         0.344467   
    101. B(H  96,C  39)                  1.1028         0.343616   
    102. B(H  97,C  40)                  1.1028         0.343501   
    103. B(H  98,C  40)                  1.1041         0.341945   
    104. B(H  99,C  41)                  1.0999         0.347290   
    105. B(H 100,C  41)                  1.0998         0.347338   
    106. B(H 101,H  61)                  2.3456         0.000684   
    107. B(H 101,C  41)                  1.1008         0.346052   
    108. B(H 102,H  98)                  3.9448         0.000002   
    109. B(H 102,O  43)                  0.9867         0.471395   
    110. B(H 103,C  45)                  1.1008         0.346117   
    111. B(H 104,C  45)                  1.0988         0.348691   
    112. B(H 105,C  46)                  1.0983         0.349246   
    113. B(H 106,H  67)                  4.8493         0.000000   
    114. B(H 106,C  46)                  1.0991         0.348273   
    115. B(H 107,C  46)                  1.1006         0.346297   
    116. B(H 108,C  48)                  1.1004         0.346549   
    117. B(H 109,H  96)                  4.8266         0.000000   
    118. B(H 109,C  49)                  1.0982         0.349352   
    119. B(H 110,C  49)                  1.1009         0.346004   
    120. B(H 111,C  49)                  1.0993         0.348039   
    121. B(H 112,C  50)                  1.0995         0.347803   
    122. B(H 113,C  50)                  1.0987         0.348811   
    123. B(H 114,C  50)                  1.1029         0.343434   
    124. A(O   0,C   1,N   9)          123.7748         0.466892   
    125. A(C   2,C   1,N   9)          116.8043         0.391628   
    126. A(O   0,C   1,C   2)          119.3486         0.428812   
    127. A(C   1,C   2,H  51)          105.1729         0.321889   
    128. A(N   6,C   2,H  51)          109.6299         0.325872   
    129. A(C   1,C   2,N   6)          116.1025         0.365786   
    130. A(C   1,C   2,C   3)          110.6260         0.359131   
    131. A(C   3,C   2,H  51)          112.5809         0.320176   
    132. A(C   3,C   2,N   6)          102.9570         0.363751   
    133. A(C   4,C   3,H  53)          113.9781         0.322141   
    134. A(C   4,C   3,H  52)          110.2877         0.321446   
    135. A(C   2,C   3,C   4)          103.5922         0.359064   
    136. A(C   2,C   3,H  53)          111.5818         0.320484   
    137. A(C   2,C   3,H  52)          109.3730         0.319794   
    138. A(H  52,C   3,H  53)          107.9500         0.288240   
    139. A(H  54,C   4,H  55)          107.7246         0.287978   
    140. A(C   3,C   4,H  55)          113.2746         0.321982   
    141. A(C   3,C   4,C   5)          103.0392         0.361741   
    142. A(C   3,C   4,H  54)          110.3656         0.321299   
    143. A(C   5,C   4,H  55)          112.1165         0.322620   
    144. A(C   5,C   4,H  54)          110.3060         0.321935   
    145. A(H  56,C   5,H  57)          107.9634         0.287488   
    146. A(C   4,C   5,N   6)          102.8714         0.366282   
    147. A(C   4,C   5,H  56)          113.4437         0.322265   
    148. A(N   6,C   5,H  57)          110.9554         0.324943   
    149. A(N   6,C   5,H  56)          110.9949         0.325501   
    150. A(C   4,C   5,H  57)          110.6038         0.321715   
    151. A(C   5,N   6,C   7)          127.3993         0.397877   
    152. A(C   2,N   6,C   7)          118.8898         0.398092   
    153. A(C   2,N   6,C   5)          112.6174         0.370324   
    154. A(O   8,C   7,C  24)          120.4553         0.426163   
    155. A(N   6,C   7,O   8)          120.8159         0.465449   
    156. A(N   6,C   7,C  24)          118.6726         0.392948   
    157. A(C   1,N   9,C  10)          120.8524         0.401689   
    158. A(C  10,N   9,H  58)          119.4576         0.337133   
    159. A(C   1,N   9,H  58)          116.9553         0.356060   
    160. A(C  48,C  10,H  59)          108.4946         0.318139   
    161. A(C  11,C  10,H  59)          106.4979         0.321876   
    162. A(N   9,C  10,C  11)          114.7704         0.370883   
    163. A(N   9,C  10,C  48)          112.4041         0.366361   
    164. A(N   9,C  10,H  59)          105.0433         0.329017   
    165. A(C  11,C  10,C  48)          109.2157         0.358108   
    166. A(N  12,C  11,O  47)          122.6414         0.468274   
    167. A(C  10,C  11,O  47)          119.8668         0.428022   
    168. A(C  10,C  11,N  12)          117.4679         0.394968   
    169. A(C  13,N  12,H  60)          117.9785         0.337057   
    170. A(C  11,N  12,C  13)          120.6815         0.404554   
    171. A(C  11,N  12,H  60)          121.3286         0.358079   
    172. A(C  14,C  13,C  45)          109.6176         0.361029   
    173. A(N  12,C  13,H  61)          108.2735         0.329082   
    174. A(C  14,C  13,H  61)          111.3151         0.323591   
    175. A(N  12,C  13,C  14)          107.8569         0.373247   
    176. A(C  45,C  13,H  61)          108.5999         0.318763   
    177. A(N  12,C  13,C  45)          111.1844         0.367397   
    178. A(C  13,C  14,N  15)          116.1218         0.399790   
    179. A(N  15,C  14,O  44)          124.3020         0.467587   
    180. A(C  13,C  14,O  44)          119.4662         0.427335   
    181. A(C  14,N  15,H  62)          117.8152         0.360619   
    182. A(C  16,N  15,H  62)          116.5980         0.336395   
    183. A(C  14,N  15,C  16)          125.2141         0.405751   
    184. A(H  63,C  16,H  64)          108.4108         0.288403   
    185. A(C  17,C  16,H  64)          108.1500         0.322268   
    186. A(N  15,C  16,H  63)          108.5301         0.329182   
    187. A(C  17,C  16,H  63)          111.5295         0.322915   
    188. A(N  15,C  16,C  17)          112.4501         0.369973   
    189. A(N  15,C  16,H  64)          107.6218         0.328518   
    190. A(O  43,C  17,H  65)          110.8519         0.334311   
    191. A(C  18,C  17,H  65)          107.7761         0.317518   
    192. A(C  16,C  17,H  65)          107.8898         0.320716   
    193. A(C  16,C  17,C  18)          112.4839         0.358865   
    194. A(C  18,C  17,O  43)          112.2013         0.374698   
    195. A(C  16,C  17,O  43)          105.5858         0.378696   
    196. A(C  19,C  18,H  66)          109.6934         0.319649   
    197. A(C  17,C  18,H  66)          108.6425         0.318179   
    198. A(C  17,C  18,C  32)          113.1918         0.358063   
    199. A(C  17,C  18,C  19)          110.2498         0.356848   
    200. A(C  19,C  18,C  32)          108.5261         0.359789   
    201. A(C  32,C  18,H  66)          106.4370         0.320695   
    202. A(C  18,C  19,N  20)          114.1210         0.392520   
    203. A(N  20,C  19,O  31)          124.5011         0.468148   
    204. A(C  18,C  19,O  31)          121.3739         0.425733   
    205. A(C  19,N  20,H  67)          118.4321         0.354038   
    206. A(C  19,N  20,C  21)          123.1043         0.403885   
    207. A(C  21,N  20,H  67)          117.5418         0.333203   
    208. A(C  27,C  21,H  68)          109.2849         0.320356   
    209. A(C  22,C  21,H  68)          107.8352         0.319103   
    210. A(N  20,C  21,H  68)          105.8729         0.328500   
    211. A(N  20,C  21,C  22)          109.1588         0.367746   
    212. A(C  22,C  21,C  27)          112.0406         0.358267   
    213. A(N  20,C  21,C  27)          112.3679         0.369264   
    214. A(C  21,C  22,N  23)          113.4229         0.391841   
    215. A(C  21,C  22,O  26)          123.3585         0.424800   
    216. A(N  23,C  22,O  26)          123.2169         0.468727   
    217. A(C  22,N  23,C  24)          124.1196         0.407504   
    218. A(C  24,N  23,H  69)          114.9642         0.338761   
    219. A(C  22,N  23,H  69)          120.3678         0.357544   
    220. A(C  25,C  24,H  70)          109.1908         0.319722   
    221. A(N  23,C  24,H  70)          108.8835         0.331025   
    222. A(C   7,C  24,H  70)          111.2554         0.321014   
    223. A(N  23,C  24,C  25)          111.0316         0.371392   
    224. A(C   7,C  24,N  23)          105.6269         0.372974   
    225. A(C   7,C  24,C  25)          110.8065         0.359711   
    226. A(H  71,C  25,H  73)          109.0117         0.288303   
    227. A(C  24,C  25,H  73)          109.8176         0.320498   
    228. A(H  71,C  25,H  72)          108.3477         0.288391   
    229. A(C  24,C  25,H  72)          112.3830         0.320600   
    230. A(C  24,C  25,H  71)          108.4264         0.320764   
    231. A(H  72,C  25,H  73)          108.7922         0.288161   
    232. A(C  28,C  27,H  75)          108.6261         0.320118   
    233. A(C  21,C  27,C  28)          114.9393         0.359618   
    234. A(H  74,C  27,H  75)          107.3871         0.286756   
    235. A(C  21,C  27,H  75)          107.2929         0.320216   
    236. A(C  28,C  27,H  74)          109.6636         0.320456   
    237. A(C  21,C  27,H  74)          108.6561         0.320555   
    238. A(C  29,C  28,C  30)          110.6634         0.362192   
    239. A(C  27,C  28,C  30)          111.6181         0.360768   
    240. A(C  27,C  28,C  29)          109.7486         0.360921   
    241. A(C  30,C  28,H  76)          109.1156         0.321620   
    242. A(C  29,C  28,H  76)          108.1847         0.321750   
    243. A(C  27,C  28,H  76)          107.3915         0.320537   
    244. A(C  28,C  29,H  79)          110.8650         0.321464   
    245. A(H  78,C  29,H  79)          107.5719         0.287127   
    246. A(H  77,C  29,H  79)          107.9276         0.287120   
    247. A(H  77,C  29,H  78)          107.9534         0.287551   
    248. A(C  28,C  29,H  78)          111.1735         0.321970   
    249. A(C  28,C  29,H  77)          111.1947         0.321962   
    250. A(H  81,C  30,H  82)          107.8249         0.287262   
    251. A(H  80,C  30,H  82)          107.4719         0.287676   
    252. A(C  28,C  30,H  82)          110.7687         0.321856   
    253. A(H  80,C  30,H  81)          107.2550         0.287351   
    254. A(C  28,C  30,H  81)          110.7559         0.321475   
    255. A(C  28,C  30,H  80)          112.5571         0.321961   
    256. A(C  33,C  32,O  42)          121.4633         0.436462   
    257. A(C  18,C  32,O  42)          121.5684         0.428881   
    258. A(C  18,C  32,C  33)          116.7784         0.367084   
    259. A(C  32,C  33,C  34)          109.7320         0.365058   
    260. A(C  34,C  33,H  84)          110.5370         0.319926   
    261. A(H  83,C  33,H  84)          108.6290         0.287686   
    262. A(C  32,C  33,H  84)          107.5751         0.326810   
    263. A(C  34,C  33,H  83)          110.0811         0.319642   
    264. A(C  32,C  33,H  83)          110.2466         0.326517   
    265. A(C  33,C  34,C  35)          113.0942         0.359523   
    266. A(H  85,C  34,H  86)          107.0258         0.287616   
    267. A(C  35,C  34,H  86)          108.0472         0.321711   
    268. A(C  33,C  34,H  86)          109.5928         0.319599   
    269. A(C  35,C  34,H  85)          110.3653         0.322002   
    270. A(C  33,C  34,H  85)          108.5393         0.319887   
    271. A(C  34,C  35,C  36)          113.8417         0.360255   
    272. A(H  87,C  35,H  88)          106.2046         0.286405   
    273. A(C  36,C  35,H  88)          110.3042         0.319498   
    274. A(C  34,C  35,H  88)          109.7695         0.320981   
    275. A(C  36,C  35,H  87)          108.7491         0.319825   
    276. A(C  34,C  35,H  87)          107.6492         0.321310   
    277. A(C  35,C  36,C  37)          116.9323         0.359429   
    278. A(H  89,C  36,H  90)          105.4999         0.287300   
    279. A(C  37,C  36,H  90)          107.1448         0.320589   
    280. A(C  35,C  36,H  90)          108.4154         0.319810   
    281. A(C  37,C  36,H  89)          109.9856         0.321339   
    282. A(C  35,C  36,H  89)          108.2609         0.320558   
    283. A(C  36,C  37,C  38)          116.1702         0.360987   
    284. A(H  91,C  37,H  92)          106.5380         0.286553   
    285. A(C  38,C  37,H  92)          108.1913         0.320919   
    286. A(C  36,C  37,H  92)          108.8436         0.320369   
    287. A(C  38,C  37,H  91)          109.1670         0.321234   
    288. A(C  36,C  37,H  91)          107.5254         0.320683   
    289. A(C  37,C  38,C  39)          115.3727         0.362019   
    290. A(H  93,C  38,H  94)          105.1895         0.286312   
    291. A(C  39,C  38,H  94)          108.8323         0.321178   
    292. A(C  37,C  38,H  94)          109.2419         0.320850   
    293. A(C  39,C  38,H  93)          108.9457         0.321348   
    294. A(C  37,C  38,H  93)          108.7729         0.321020   
    295. A(C  38,C  39,C  40)          112.2450         0.362437   
    296. A(H  95,C  39,H  96)          105.3820         0.286714   
    297. A(C  40,C  39,H  96)          110.4549         0.321462   
    298. A(C  38,C  39,H  96)          109.8340         0.321434   
    299. A(C  40,C  39,H  95)          108.7492         0.321592   
    300. A(C  38,C  39,H  95)          109.9429         0.321564   
    301. A(C  39,C  40,C  41)          113.3035         0.363437   
    302. A(H  97,C  40,H  98)          105.8128         0.286370   
    303. A(C  41,C  40,H  98)          108.9067         0.322027   
    304. A(C  39,C  40,H  98)          108.7499         0.321206   
    305. A(C  41,C  40,H  97)          110.1591         0.322266   
    306. A(C  39,C  40,H  97)          109.6224         0.321445   
    307. A(H 100,C  41,H 101)          107.9252         0.287403   
    308. A(H  99,C  41,H 101)          107.6551         0.287396   
    309. A(C  40,C  41,H 101)          109.5822         0.322657   
    310. A(H  99,C  41,H 100)          107.9577         0.287563   
    311. A(C  40,C  41,H 100)          111.9047         0.322854   
    312. A(C  40,C  41,H  99)          111.6520         0.322846   
    313. A(C  17,O  43,H 102)          104.1128         0.350359   
    314. A(C  13,C  45,C  46)          113.6942         0.359992   
    315. A(C  46,C  45,H 104)          109.9835         0.323155   
    316. A(C  13,C  45,H 104)          106.1115         0.319213   
    317. A(C  46,C  45,H 103)          110.9802         0.322762   
    318. A(C  13,C  45,H 103)          107.8960         0.318827   
    319. A(H 103,C  45,H 104)          107.9074         0.287586   
    320. A(H 106,C  46,H 107)          107.9721         0.287555   
    321. A(H 105,C  46,H 107)          107.4628         0.287681   
    322. A(C  45,C  46,H 107)          111.0579         0.322790   
    323. A(H 105,C  46,H 106)          107.5559         0.287937   
    324. A(C  45,C  46,H 106)          112.1036         0.323091   
    325. A(C  45,C  46,H 105)          110.4989         0.323239   
    326. A(C  50,C  48,H 108)          108.2418         0.321863   
    327. A(C  49,C  48,H 108)          109.1083         0.322483   
    328. A(C  10,C  48,H 108)          104.5698         0.318184   
    329. A(C  49,C  48,C  50)          111.7057         0.363089   
    330. A(C  10,C  48,C  50)          111.6782         0.358042   
    331. A(C  10,C  48,C  49)          111.2191         0.358758   
    332. A(H 110,C  49,H 111)          107.3944         0.287487   
    333. A(H 109,C  49,H 111)          108.4378         0.287920   
    334. A(C  48,C  49,H 111)          110.5157         0.322710   
    335. A(H 109,C  49,H 110)          107.5093         0.287656   
    336. A(C  48,C  49,H 110)          111.2928         0.322400   
    337. A(C  48,C  49,H 109)          111.5286         0.322909   
    338. A(H 113,C  50,H 114)          106.7559         0.287252   
    339. A(H 112,C  50,H 114)          108.1395         0.287122   
    340. A(C  48,C  50,H 114)          111.6140         0.321388   
    341. A(H 112,C  50,H 113)          107.7308         0.287820   
    342. A(C  48,C  50,H 113)          110.5726         0.322206   
    343. A(C  48,C  50,H 112)          111.8098         0.322054   
    344. D(H  51,C   2,C   1,N   9)   -139.2087         0.010095   
    345. D(C   3,C   2,C   1,N   9)     98.9763         0.010095   
    346. D(N   6,C   2,C   1,N   9)    -17.8445         0.010095   
    347. D(N   6,C   2,C   1,O   0)    165.1304         0.010095   
    348. D(C   3,C   2,C   1,O   0)    -78.0488         0.010095   
    349. D(H  51,C   2,C   1,O   0)     43.7662         0.010095   
    350. D(C   4,C   3,C   2,N   6)     28.8263         0.010140   
    351. D(H  53,C   3,C   2,H  51)    -90.1606         0.010140   
    352. D(H  53,C   3,C   2,C   1)     27.1884         0.010140   
    353. D(C   4,C   3,C   2,H  51)    146.7971         0.010140   
    354. D(H  53,C   3,C   2,N   6)    151.8685         0.010140   
    355. D(H  52,C   3,C   2,H  51)     29.2064         0.010140   
    356. D(C   4,C   3,C   2,C   1)    -95.8539         0.010140   
    357. D(H  52,C   3,C   2,C   1)    146.5554         0.010140   
    358. D(H  52,C   3,C   2,N   6)    -88.7644         0.010140   
    359. D(H  55,C   4,C   3,H  53)     78.3538         0.010752   
    360. D(H  55,C   4,C   3,H  52)    -43.2486         0.010752   
    361. D(H  54,C   4,C   3,H  52)   -164.1247         0.010752   
    362. D(H  55,C   4,C   3,C   2)   -160.1993         0.010752   
    363. D(H  54,C   4,C   3,H  53)    -42.5223         0.010752   
    364. D(C   5,C   4,C   3,C   2)    -38.8465         0.010752   
    365. D(H  54,C   4,C   3,C   2)     78.9246         0.010752   
    366. D(C   5,C   4,C   3,H  53)   -160.2933         0.010752   
    367. D(C   5,C   4,C   3,H  52)     78.1043         0.010752   
    368. D(N   6,C   5,C   4,C   3)     33.2542         0.010999   
    369. D(H  57,C   5,C   4,C   3)    -85.2898         0.010999   
    370. D(H  56,C   5,C   4,H  55)    -84.6314         0.010999   
    371. D(H  56,C   5,C   4,C   3)    153.2329         0.010999   
    372. D(H  57,C   5,C   4,H  54)    156.8972         0.010999   
    373. D(H  56,C   5,C   4,H  54)     35.4200         0.010999   
    374. D(H  57,C   5,C   4,H  55)     36.8459         0.010999   
    375. D(N   6,C   5,C   4,H  54)    -84.5587         0.010999   
    376. D(N   6,C   5,C   4,H  55)    155.3900         0.010999   
    377. D(C   5,N   6,C   2,C   3)     -8.1493         0.014353   
    378. D(C   7,N   6,C   5,H  57)    -65.3172         0.014266   
    379. D(C   7,N   6,C   5,H  56)     54.7295         0.014266   
    380. D(C   7,N   6,C   5,C   4)    176.3852         0.014266   
    381. D(C   2,N   6,C   5,H  57)    102.4607         0.014266   
    382. D(C   2,N   6,C   5,H  56)   -137.4926         0.014266   
    383. D(C   7,N   6,C   2,H  51)     40.7501         0.014353   
    384. D(C   2,N   6,C   5,C   4)    -15.8369         0.014266   
    385. D(C   7,N   6,C   2,C   3)    160.7762         0.014353   
    386. D(C   5,N   6,C   2,C   1)    112.8649         0.014353   
    387. D(C   7,N   6,C   2,C   1)    -78.2096         0.014353   
    388. D(C   5,N   6,C   2,H  51)   -128.1754         0.014353   
    389. D(C  24,C   7,N   6,C   5)      3.3987         0.031107   
    390. D(C  24,C   7,N   6,C   2)   -163.7044         0.031107   
    391. D(O   8,C   7,N   6,C   5)   -179.3147         0.031107   
    392. D(O   8,C   7,N   6,C   2)     13.5822         0.031107   
    393. D(H  58,N   9,C   1,O   0)    172.1099         0.029895   
    394. D(C  10,N   9,C   1,C   2)   -165.9342         0.029895   
    395. D(H  58,N   9,C   1,C   2)     -4.7704         0.029895   
    396. D(C  10,N   9,C   1,O   0)     10.9461         0.029895   
    397. D(H  59,C  10,N   9,C   1)    -16.2072         0.016489   
    398. D(C  48,C  10,N   9,H  58)    -59.1264         0.016489   
    399. D(C  48,C  10,N   9,C   1)    101.5734         0.016489   
    400. D(C  11,C  10,N   9,C   1)   -132.8143         0.016489   
    401. D(H  59,C  10,N   9,H  58)   -176.9070         0.016489   
    402. D(C  11,C  10,N   9,H  58)     66.4858         0.016489   
    403. D(O  47,C  11,C  10,N   9)   -179.3940         0.010304   
    404. D(N  12,C  11,C  10,H  59)   -116.8999         0.010304   
    405. D(N  12,C  11,C  10,C  48)    126.1262         0.010304   
    406. D(N  12,C  11,C  10,N   9)     -1.1280         0.010304   
    407. D(O  47,C  11,C  10,H  59)     64.8341         0.010304   
    408. D(O  47,C  11,C  10,C  48)    -52.1398         0.010304   
    409. D(H  60,N  12,C  11,O  47)   -176.3893         0.032410   
    410. D(H  60,N  12,C  11,C  10)      5.3964         0.032410   
    411. D(C  13,N  12,C  11,O  47)      2.3612         0.032410   
    412. D(C  13,N  12,C  11,C  10)   -175.8531         0.032410   
    413. D(H  61,C  13,N  12,C  11)    -45.2592         0.016583   
    414. D(H  61,C  13,N  12,H  60)    133.5322         0.016583   
    415. D(C  45,C  13,N  12,H  60)   -107.2443         0.016583   
    416. D(C  45,C  13,N  12,C  11)     73.9642         0.016583   
    417. D(C  14,C  13,N  12,C  11)   -165.8268         0.016583   
    418. D(C  14,C  13,N  12,H  60)     12.9646         0.016583   
    419. D(O  44,C  14,C  13,C  45)     78.6467         0.010982   
    420. D(O  44,C  14,C  13,N  12)    -42.5438         0.010982   
    421. D(N  15,C  14,C  13,H  61)     22.4663         0.010982   
    422. D(N  15,C  14,C  13,C  45)    -97.7026         0.010982   
    423. D(O  44,C  14,C  13,H  61)   -161.1845         0.010982   
    424. D(N  15,C  14,C  13,N  12)    141.1069         0.010982   
    425. D(H  62,N  15,C  14,O  44)    169.1020         0.034968   
    426. D(H  62,N  15,C  14,C  13)    -14.7460         0.034968   
    427. D(C  16,N  15,C  14,O  44)     -3.6283         0.034968   
    428. D(C  16,N  15,C  14,C  13)    172.5237         0.034968   
    429. D(H  64,C  16,N  15,H  62)     48.3735         0.015985   
    430. D(H  64,C  16,N  15,C  14)   -138.8167         0.015985   
    431. D(H  63,C  16,N  15,H  62)    165.5004         0.015985   
    432. D(H  63,C  16,N  15,C  14)    -21.6899         0.015985   
    433. D(C  17,C  16,N  15,C  14)    102.1779         0.015985   
    434. D(C  17,C  16,N  15,H  62)    -70.6318         0.015985   
    435. D(H  65,C  17,C  16,H  64)     53.8130         0.011024   
    436. D(H  65,C  17,C  16,H  63)    -65.3056         0.011024   
    437. D(H  65,C  17,C  16,N  15)    172.5089         0.011024   
    438. D(O  43,C  17,C  16,H  64)    -64.7652         0.011024   
    439. D(O  43,C  17,C  16,H  63)    176.1161         0.011024   
    440. D(O  43,C  17,C  16,N  15)     53.9307         0.011024   
    441. D(C  18,C  17,C  16,H  64)    172.5507         0.011024   
    442. D(C  18,C  17,C  16,H  63)     53.4321         0.011024   
    443. D(C  18,C  17,C  16,N  15)    -68.7534         0.011024   
    444. D(H  66,C  18,C  17,H  65)    166.7987         0.009835   
    445. D(H  66,C  18,C  17,O  43)    -70.8861         0.009835   
    446. D(H  66,C  18,C  17,C  16)     47.9943         0.009835   
    447. D(C  32,C  18,C  17,O  43)     47.1106         0.009835   
    448. D(C  32,C  18,C  17,C  16)    165.9910         0.009835   
    449. D(C  32,C  18,C  17,H  65)    -75.2046         0.009835   
    450. D(C  19,C  18,C  17,H  65)     46.5645         0.009835   
    451. D(C  19,C  18,C  17,O  43)    168.8797         0.009835   
    452. D(C  19,C  18,C  17,C  16)    -72.2399         0.009835   
    453. D(O  31,C  19,C  18,H  66)    152.9129         0.009712   
    454. D(O  31,C  19,C  18,C  32)     37.0063         0.009712   
    455. D(O  31,C  19,C  18,C  17)    -87.4877         0.009712   
    456. D(N  20,C  19,C  18,H  66)    -27.7850         0.009712   
    457. D(N  20,C  19,C  18,C  17)     91.8144         0.009712   
    458. D(N  20,C  19,C  18,C  32)   -143.6916         0.009712   
    459. D(H  67,N  20,C  19,O  31)    171.5226         0.032164   
    460. D(H  67,N  20,C  19,C  18)     -7.7543         0.032164   
    461. D(C  21,N  20,C  19,O  31)      2.7931         0.032164   
    462. D(C  21,N  20,C  19,C  18)   -176.4839         0.032164   
    463. D(H  68,C  21,N  20,H  67)    168.5850         0.016389   
    464. D(H  68,C  21,N  20,C  19)    -22.5916         0.016389   
    465. D(C  27,C  21,N  20,H  67)    -72.1857         0.016389   
    466. D(C  27,C  21,N  20,C  19)     96.6378         0.016389   
    467. D(C  22,C  21,N  20,H  67)     52.7435         0.016389   
    468. D(C  22,C  21,N  20,C  19)   -138.4331         0.016389   
    469. D(N  23,C  22,C  21,C  27)    154.5312         0.009459   
    470. D(N  23,C  22,C  21,N  20)     29.4114         0.009459   
    471. D(O  26,C  22,C  21,H  68)     94.3737         0.009459   
    472. D(O  26,C  22,C  21,C  27)    -25.9278         0.009459   
    473. D(O  26,C  22,C  21,N  20)   -151.0476         0.009459   
    474. D(N  23,C  22,C  21,H  68)    -85.1673         0.009459   
    475. D(H  69,N  23,C  22,O  26)    175.0302         0.032482   
    476. D(H  69,N  23,C  22,C  21)     -5.4281         0.032482   
    477. D(C  24,N  23,C  22,O  26)      3.9605         0.032482   
    478. D(C  24,N  23,C  22,C  21)   -176.4978         0.032482   
    479. D(H  70,C  24,N  23,H  69)   -133.8533         0.017985   
    480. D(H  70,C  24,N  23,C  22)     37.6509         0.017985   
    481. D(C  25,C  24,N  23,H  69)    105.8998         0.017985   
    482. D(C  25,C  24,N  23,C  22)    -82.5960         0.017985   
    483. D(C   7,C  24,N  23,H  69)    -14.2804         0.017985   
    484. D(C   7,C  24,N  23,C  22)    157.2238         0.017985   
    485. D(H  70,C  24,C   7,O   8)    136.2846         0.010109   
    486. D(H  70,C  24,C   7,N   6)    -46.4187         0.010109   
    487. D(C  25,C  24,C   7,O   8)   -102.0386         0.010109   
    488. D(C  25,C  24,C   7,N   6)     75.2581         0.010109   
    489. D(N  23,C  24,C   7,O   8)     18.2891         0.010109   
    490. D(N  23,C  24,C   7,N   6)   -164.4142         0.010109   
    491. D(H  73,C  25,C  24,H  70)    179.7760         0.010305   
    492. D(H  73,C  25,C  24,N  23)    -60.1597         0.010305   
    493. D(H  73,C  25,C  24,C   7)     56.8949         0.010305   
    494. D(H  72,C  25,C  24,H  70)     58.5293         0.010305   
    495. D(H  72,C  25,C  24,N  23)    178.5937         0.010305   
    496. D(H  72,C  25,C  24,C   7)    -64.3518         0.010305   
    497. D(H  71,C  25,C  24,H  70)    -61.2087         0.010305   
    498. D(H  71,C  25,C  24,N  23)     58.8557         0.010305   
    499. D(H  71,C  25,C  24,C   7)    175.9103         0.010305   
    500. D(H  75,C  27,C  21,H  68)     79.4867         0.010548   
    501. D(H  75,C  27,C  21,C  22)   -161.0590         0.010548   
    502. D(H  75,C  27,C  21,N  20)    -37.7282         0.010548   
    503. D(H  74,C  27,C  21,H  68)   -164.6998         0.010548   
    504. D(H  74,C  27,C  21,C  22)    -45.2455         0.010548   
    505. D(H  74,C  27,C  21,N  20)     78.0854         0.010548   
    506. D(C  28,C  27,C  21,H  68)    -41.4229         0.010548   
    507. D(C  28,C  27,C  21,C  22)     78.0313         0.010548   
    508. D(C  28,C  27,C  21,N  20)   -158.6378         0.010548   
    509. D(H  76,C  28,C  27,H  75)   -171.4562         0.010511   
    510. D(H  76,C  28,C  27,H  74)     71.4591         0.010511   
    511. D(H  76,C  28,C  27,C  21)    -51.2789         0.010511   
    512. D(C  30,C  28,C  27,H  75)    -51.9016         0.010511   
    513. D(C  30,C  28,C  27,H  74)   -168.9864         0.010511   
    514. D(C  30,C  28,C  27,C  21)     68.2757         0.010511   
    515. D(C  29,C  28,C  27,H  75)     71.1621         0.010511   
    516. D(C  29,C  28,C  27,H  74)    -45.9227         0.010511   
    517. D(C  29,C  28,C  27,C  21)   -168.6606         0.010511   
    518. D(H  79,C  29,C  28,C  30)     63.0834         0.010975   
    519. D(H  79,C  29,C  28,C  27)    -60.5413         0.010975   
    520. D(H  78,C  29,C  28,H  76)     62.9619         0.010975   
    521. D(H  78,C  29,C  28,C  30)    -56.5283         0.010975   
    522. D(H  78,C  29,C  28,C  27)    179.8470         0.010975   
    523. D(H  77,C  29,C  28,H  76)    -57.3522         0.010975   
    524. D(H  77,C  29,C  28,C  30)   -176.8425         0.010975   
    525. D(H  79,C  29,C  28,H  76)   -177.4264         0.010975   
    526. D(H  77,C  29,C  28,C  27)     59.5328         0.010975   
    527. D(H  82,C  30,C  28,H  76)    -59.4615         0.010924   
    528. D(H  82,C  30,C  28,C  29)     59.4668         0.010924   
    529. D(H  82,C  30,C  28,C  27)   -177.9920         0.010924   
    530. D(H  81,C  30,C  28,H  76)   -179.0541         0.010924   
    531. D(H  81,C  30,C  28,C  29)    -60.1259         0.010924   
    532. D(H  81,C  30,C  28,C  27)     62.4154         0.010924   
    533. D(H  80,C  30,C  28,H  76)     60.8854         0.010924   
    534. D(H  80,C  30,C  28,C  29)    179.8136         0.010924   
    535. D(H  80,C  30,C  28,C  27)    -57.6451         0.010924   
    536. D(O  42,C  32,C  18,H  66)    118.1286         0.010077   
    537. D(O  42,C  32,C  18,C  19)   -123.8754         0.010077   
    538. D(O  42,C  32,C  18,C  17)     -1.1449         0.010077   
    539. D(C  33,C  32,C  18,H  66)    -56.9311         0.010077   
    540. D(C  33,C  32,C  18,C  19)     61.0649         0.010077   
    541. D(C  33,C  32,C  18,C  17)   -176.2045         0.010077   
    542. D(H  84,C  33,C  32,O  42)     14.0193         0.012109   
    543. D(H  84,C  33,C  32,C  18)   -170.9155         0.012109   
    544. D(H  83,C  33,C  32,O  42)    132.3121         0.012109   
    545. D(H  83,C  33,C  32,C  18)    -52.6227         0.012109   
    546. D(C  34,C  33,C  32,O  42)   -106.2825         0.012109   
    547. D(C  34,C  33,C  32,C  18)     68.7828         0.012109   
    548. D(H  86,C  34,C  33,H  84)    173.0202         0.010128   
    549. D(H  86,C  34,C  33,H  83)     53.0103         0.010128   
    550. D(H  86,C  34,C  33,C  32)    -68.4946         0.010128   
    551. D(H  85,C  34,C  33,H  84)    -70.4171         0.010128   
    552. D(H  85,C  34,C  33,H  83)    169.5730         0.010128   
    553. D(H  85,C  34,C  33,C  32)     48.0681         0.010128   
    554. D(C  35,C  34,C  33,H  84)     52.4050         0.010128   
    555. D(C  35,C  34,C  33,H  83)    -67.6048         0.010128   
    556. D(C  35,C  34,C  33,C  32)    170.8903         0.010128   
    557. D(H  88,C  35,C  34,H  86)    175.8162         0.010917   
    558. D(H  88,C  35,C  34,H  85)     59.1086         0.010917   
    559. D(H  88,C  35,C  34,C  33)    -62.6938         0.010917   
    560. D(H  87,C  35,C  34,H  86)    -68.9985         0.010917   
    561. D(H  87,C  35,C  34,H  85)    174.2940         0.010917   
    562. D(H  87,C  35,C  34,C  33)     52.4915         0.010917   
    563. D(C  36,C  35,C  34,H  86)     51.6237         0.010917   
    564. D(C  36,C  35,C  34,H  85)    -65.0839         0.010917   
    565. D(C  36,C  35,C  34,C  33)    173.1137         0.010917   
    566. D(H  90,C  36,C  35,H  87)    -32.5889         0.010354   
    567. D(H  90,C  36,C  35,C  34)   -152.5926         0.010354   
    568. D(H  89,C  36,C  35,H  88)   -162.5138         0.010354   
    569. D(H  89,C  36,C  35,H  87)     81.3937         0.010354   
    570. D(H  89,C  36,C  35,C  34)    -38.6100         0.010354   
    571. D(C  37,C  36,C  35,H  88)    -37.6711         0.010354   
    572. D(C  37,C  36,C  35,H  87)   -153.7636         0.010354   
    573. D(H  90,C  36,C  35,H  88)     83.5036         0.010354   
    574. D(C  37,C  36,C  35,C  34)     86.2328         0.010354   
    575. D(H  92,C  37,C  36,H  90)    -55.1462         0.010646   
    576. D(H  92,C  37,C  36,H  89)   -169.3373         0.010646   
    577. D(H  92,C  37,C  36,C  35)     66.6931         0.010646   
    578. D(H  91,C  37,C  36,H  90)     59.8894         0.010646   
    579. D(H  91,C  37,C  36,H  89)    -54.3017         0.010646   
    580. D(H  91,C  37,C  36,C  35)   -178.2712         0.010646   
    581. D(C  38,C  37,C  36,H  90)   -177.5076         0.010646   
    582. D(C  38,C  37,C  36,H  89)     68.3013         0.010646   
    583. D(C  38,C  37,C  36,C  35)    -55.6683         0.010646   
    584. D(H  94,C  38,C  37,H  92)    -58.4717         0.010857   
    585. D(H  94,C  38,C  37,H  91)   -174.0303         0.010857   
    586. D(H  94,C  38,C  37,C  36)     64.2322         0.010857   
    587. D(H  93,C  38,C  37,H  92)     55.8432         0.010857   
    588. D(H  93,C  38,C  37,H  91)    -59.7154         0.010857   
    589. D(H  93,C  38,C  37,C  36)    178.5472         0.010857   
    590. D(C  39,C  38,C  37,H  92)    178.5761         0.010857   
    591. D(C  39,C  38,C  37,H  91)     63.0174         0.010857   
    592. D(C  39,C  38,C  37,C  36)    -58.7200         0.010857   
    593. D(H  95,C  39,C  38,H  94)    -73.6847         0.010985   
    594. D(H  95,C  39,C  38,H  93)    172.1254         0.010985   
    595. D(H  95,C  39,C  38,C  37)     49.4846         0.010985   
    596. D(C  40,C  39,C  38,H  94)     47.5021         0.010985   
    597. D(C  40,C  39,C  38,H  93)    -66.6877         0.010985   
    598. D(C  40,C  39,C  38,C  37)    170.6715         0.010985   
    599. D(H  96,C  39,C  38,H  94)    170.7942         0.010985   
    600. D(H  96,C  39,C  38,H  93)     56.6044         0.010985   
    601. D(H  96,C  39,C  38,C  37)    -66.0364         0.010985   
    602. D(H  98,C  40,C  39,H  95)     74.7219         0.010996   
    603. D(H  98,C  40,C  39,C  38)    -47.1481         0.010996   
    604. D(H  97,C  40,C  39,H  96)    -54.8433         0.010996   
    605. D(H  97,C  40,C  39,H  95)   -170.0304         0.010996   
    606. D(H  97,C  40,C  39,C  38)     68.0996         0.010996   
    607. D(C  41,C  40,C  39,H  96)     68.6573         0.010996   
    608. D(C  41,C  40,C  39,H  95)    -46.5298         0.010996   
    609. D(H  98,C  40,C  39,H  96)   -170.0910         0.010996   
    610. D(C  41,C  40,C  39,C  38)   -168.3998         0.010996   
    611. D(H 101,C  41,C  40,H  98)    -60.0915         0.011324   
    612. D(H 101,C  41,C  40,H  97)   -175.7226         0.011324   
    613. D(H 101,C  41,C  40,C  39)     61.0719         0.011324   
    614. D(H 100,C  41,C  40,H  98)   -179.7696         0.011324   
    615. D(H 100,C  41,C  40,H  97)     64.5994         0.011324   
    616. D(H 100,C  41,C  40,C  39)    -58.6062         0.011324   
    617. D(H  99,C  41,C  40,H  98)     59.0888         0.011324   
    618. D(H  99,C  41,C  40,H  97)    -56.5422         0.011324   
    619. D(H  99,C  41,C  40,C  39)   -179.7477         0.011324   
    620. D(H 102,O  43,C  17,H  65)     66.6828         0.019409   
    621. D(H 102,O  43,C  17,C  18)    -53.8684         0.019409   
    622. D(H 102,O  43,C  17,C  16)   -176.7329         0.019409   
    623. D(H 104,C  45,C  13,H  61)     66.5628         0.009878   
    624. D(H 104,C  45,C  13,C  14)   -171.6266         0.009878   
    625. D(H 104,C  45,C  13,N  12)    -52.4653         0.009878   
    626. D(H 103,C  45,C  13,H  61)   -177.9953         0.009878   
    627. D(H 103,C  45,C  13,C  14)    -56.1847         0.009878   
    628. D(H 103,C  45,C  13,N  12)     62.9766         0.009878   
    629. D(C  46,C  45,C  13,H  61)    -54.4500         0.009878   
    630. D(C  46,C  45,C  13,C  14)     67.3607         0.009878   
    631. D(C  46,C  45,C  13,N  12)   -173.4781         0.009878   
    632. D(H 107,C  46,C  45,H 104)    -61.9937         0.011362   
    633. D(H 107,C  46,C  45,H 103)    178.6754         0.011362   
    634. D(H 107,C  46,C  45,C  13)     56.8259         0.011362   
    635. D(H 106,C  46,C  45,H 104)    177.1270         0.011362   
    636. D(H 106,C  46,C  45,H 103)     57.7961         0.011362   
    637. D(H 106,C  46,C  45,C  13)    -64.0534         0.011362   
    638. D(H 105,C  46,C  45,H 104)     57.1661         0.011362   
    639. D(H 105,C  46,C  45,H 103)    -62.1649         0.011362   
    640. D(H 105,C  46,C  45,C  13)    175.9857         0.011362   
    641. D(H 108,C  48,C  10,H  59)    -65.7559         0.009634   
    642. D(H 108,C  48,C  10,C  11)     49.9466         0.009634   
    643. D(H 108,C  48,C  10,N   9)    178.5273         0.009634   
    644. D(C  50,C  48,C  10,H  59)    177.4129         0.009634   
    645. D(C  50,C  48,C  10,C  11)    -66.8846         0.009634   
    646. D(C  50,C  48,C  10,N   9)     61.6961         0.009634   
    647. D(C  49,C  48,C  10,H  59)     51.8732         0.009634   
    648. D(C  49,C  48,C  10,C  11)    167.5757         0.009634   
    649. D(C  49,C  48,C  10,N   9)    -63.8436         0.009634   
    650. D(H 111,C  49,C  48,C  50)     58.0366         0.011223   
    651. D(H 111,C  49,C  48,C  10)   -176.4390         0.011223   
    652. D(H 110,C  49,C  48,H 108)    179.1653         0.011223   
    653. D(H 110,C  49,C  48,C  50)    -61.2000         0.011223   
    654. D(H 110,C  49,C  48,C  10)     64.3244         0.011223   
    655. D(H 109,C  49,C  48,H 108)     59.1079         0.011223   
    656. D(H 109,C  49,C  48,C  50)    178.7426         0.011223   
    657. D(H 111,C  49,C  48,H 108)    -61.5981         0.011223   
    658. D(H 109,C  49,C  48,C  10)    -55.7330         0.011223   
    659. D(H 114,C  50,C  48,H 108)    179.2542         0.010977   
    660. D(H 114,C  50,C  48,C  49)     59.1100         0.010977   
    661. D(H 114,C  50,C  48,C  10)    -66.1606         0.010977   
    662. D(H 113,C  50,C  48,H 108)     60.5733         0.010977   
    663. D(H 113,C  50,C  48,C  49)    -59.5709         0.010977   
    664. D(H 113,C  50,C  48,C  10)    175.1585         0.010977   
    665. D(H 112,C  50,C  48,H 108)    -59.4639         0.010977   
    666. D(H 112,C  50,C  48,C  49)   -179.6082         0.010977   
    667. D(H 112,C  50,C  48,C  10)     55.1212         0.010977   
    -----------------------------------------------------------------

Number of atoms                         .... 115
Number of degrees of freedom            .... 667

         *************************************************************
         *                GEOMETRY OPTIMIZATION CYCLE   1            *
         *************************************************************
---------------------------------
CARTESIAN COORDINATES (ANGSTROEM)
---------------------------------
  O     -2.850633    2.825650   -0.094869
  C     -1.649422    2.805939   -0.348369
  C     -0.685911    3.638224    0.508847
  C     -0.741737    5.126031    0.100787
  C      0.430401    5.275561   -0.879276
  C      1.519838    4.400724   -0.251192
  N      0.746192    3.312704    0.376869
  C      1.233768    2.215680    1.020561
  O      0.468529    1.366600    1.494649
  N     -1.106292    2.126729   -1.403323
  C     -1.953525    1.564022   -2.444650
  C     -1.628862    0.115619   -2.823297
  N     -0.591651   -0.481174   -2.183373
  C     -0.165456   -1.822712   -2.551061
  C      0.750617   -2.339726   -1.450227
  N      0.614302   -3.640808   -1.127282
  C      1.486810   -4.378479   -0.218631
  C      0.860706   -4.571192    1.165756
  C      0.741796   -3.242696    1.951951
  C      2.132497   -2.774382    2.421020
  N      2.758321   -1.938075    1.553262
  C      4.109347   -1.437195    1.765525
  C      4.162214    0.057495    1.379999
  N      2.981761    0.702296    1.557385
  C      2.751790    2.082998    1.202828
  C      3.255103    3.029711    2.310213
  O      5.178960    0.613650    0.960561
  C      5.165281   -2.264869    1.013628
  C      6.596114   -2.147291    1.566673
  C      7.585520   -2.777789    0.581173
  C      6.722180   -2.796475    2.949568
  O      2.611316   -3.156361    3.491208
  C     -0.177209   -3.345546    3.177309
  C     -0.421443   -2.074495    3.952342
  C     -1.268904   -1.101604    3.104390
  C     -1.750840    0.120894    3.893841
  C     -2.453850    1.183810    3.027994
  C     -3.959449    0.997692    2.783505
  C     -4.384606   -0.342281    2.170164
  C     -3.760431   -0.669054    0.809689
  C     -4.048101   -2.108144    0.370273
  C     -3.215443   -2.550964   -0.831571
  O     -0.758988   -4.389042    3.458357
  O     -0.407499   -5.172718    0.931454
  O      1.607759   -1.580965   -0.959844
  C      0.593875   -1.818374   -3.899586
  C      0.930316   -3.214584   -4.418953
  O     -2.281761   -0.450275   -3.703829
  C     -1.971010    2.435580   -3.727891
  C     -2.583277    3.809818   -3.455189
  C     -0.576950    2.550298   -4.353187
  H     -1.007607    3.473070    1.545167
  H     -0.578928    5.754096    0.988551
  H     -1.715844    5.390682   -0.326168
  H      0.152735    4.886796   -1.870506
  H      0.758038    6.314380   -1.007808
  H      2.236505    4.002689   -0.982617
  H      2.085508    4.968750    0.504214
  H     -0.118801    2.279377   -1.590411
  H     -2.966754    1.555115   -2.014800
  H     -0.101136   -0.016087   -1.422554
  H     -1.061999   -2.453508   -2.654855
  H     -0.216156   -4.126000   -1.454539
  H      2.447160   -3.854784   -0.156224
  H      1.660636   -5.371158   -0.656931
  H      1.517339   -5.248849    1.744600
  H      0.296118   -2.480041    1.290514
  H      2.330917   -1.782782    0.623554
  H      4.292036   -1.512826    2.850093
  H      2.147619    0.184267    1.834993
  H      3.287729    2.304638    0.265390
  H      4.327190    2.851050    2.458287
  H      3.113407    4.087307    2.052324
  H      2.724500    2.820236    3.248741
  H      5.152898   -1.971102   -0.047809
  H      4.852655   -3.321472    1.066916
  H      6.829881   -1.074579    1.649284
  H      7.541794   -2.280694   -0.399012
  H      8.618011   -2.704052    0.952939
  H      7.361775   -3.846662    0.429886
  H      6.027067   -2.364233    3.683249
  H      6.509845   -3.876173    2.894861
  H      7.740258   -2.673301    3.346852
  H      0.535445   -1.604090    4.223535
  H     -0.953253   -2.345406    4.874833
  H     -2.125644   -1.652694    2.692145
  H     -0.675016   -0.743284    2.250073
  H     -0.869131    0.579321    4.371290
  H     -2.413082   -0.202770    4.716008
  H     -1.923205    1.252087    2.068370
  H     -2.321721    2.167400    3.508391
  H     -4.293032    1.818006    2.127447
  H     -4.494296    1.123654    3.740729
  H     -5.483401   -0.355341    2.072540
  H     -4.147204   -1.157252    2.876182
  H     -2.668879   -0.523115    0.852115
  H     -4.121751    0.045065    0.051039
  H     -5.122904   -2.220311    0.150077
  H     -3.842215   -2.785729    1.217319
  H     -3.446478   -3.585060   -1.126460
  H     -3.380378   -1.904188   -1.705691
  H     -2.145723   -2.507940   -0.575288
  H     -0.812684   -5.237152    1.828800
  H      1.505644   -1.214857   -3.772442
  H     -0.058257   -1.298645   -4.615049
  H      1.402984   -3.153308   -5.408479
  H      1.623311   -3.747701   -3.752963
  H      0.021815   -3.826915   -4.524232
  H     -2.618117    1.885302   -4.427476
  H     -3.591260    3.724285   -3.027632
  H     -1.970430    4.386849   -2.745704
  H     -2.648087    4.393926   -4.384178
  H     -0.137901    1.563001   -4.556385
  H     -0.624443    3.097606   -5.304646
  H      0.116492    3.106729   -3.700569

----------------------------
CARTESIAN COORDINATES (A.U.)
----------------------------
  NO LB      ZA    FRAG     MASS         X           Y           Z
   0 O     8.0000    0    15.999   -5.386916    5.339705   -0.179276
   1 C     6.0000    0    12.011   -3.116956    5.302455   -0.658322
   2 C     6.0000    0    12.011   -1.296185    6.875247    0.961582
   3 C     6.0000    0    12.011   -1.401680    9.686794    0.190459
   4 C     6.0000    0    12.011    0.813340    9.969366   -1.661591
   5 C     6.0000    0    12.011    2.872078    8.316163   -0.474685
   6 N     7.0000    0    14.007    1.410098    6.260104    0.712179
   7 C     6.0000    0    12.011    2.331483    4.187028    1.928580
   8 O     8.0000    0    15.999    0.885392    2.582499    2.824478
   9 N     7.0000    0    14.007   -2.090588    4.018935   -2.651896
  10 C     6.0000    0    12.011   -3.691628    2.955573   -4.619720
  11 C     6.0000    0    12.011   -3.078102    0.218488   -5.335258
  12 N     7.0000    0    14.007   -1.118059   -0.909286   -4.125978
  13 C     6.0000    0    12.011   -0.312666   -3.444426   -4.820807
  14 C     6.0000    0    12.011    1.418461   -4.421440   -2.740531
  15 N     7.0000    0    14.007    1.160863   -6.880129   -2.130255
  16 C     6.0000    0    12.011    2.809664   -8.274126   -0.413153
  17 C     6.0000    0    12.011    1.626499   -8.638301    2.202960
  18 C     6.0000    0    12.011    1.401792   -6.127808    3.688652
  19 C     6.0000    0    12.011    4.029836   -5.242823    4.575065
  20 N     7.0000    0    14.007    5.212472   -3.662431    2.935239
  21 C     6.0000    0    12.011    7.765540   -2.715905    3.336359
  22 C     6.0000    0    12.011    7.865446    0.108650    2.607819
  23 N     7.0000    0    14.007    5.634712    1.327148    2.943030
  24 C     6.0000    0    12.011    5.200130    3.936295    2.273016
  25 C     6.0000    0    12.011    6.151253    5.725324    4.365670
  26 O     8.0000    0    15.999    9.786817    1.159630    1.815197
  27 C     6.0000    0    12.011    9.760966   -4.279982    1.915480
  28 C     6.0000    0    12.011   12.464849   -4.057792    2.960583
  29 C     6.0000    0    12.011   14.334555   -5.249260    1.098257
  30 C     6.0000    0    12.011   12.703079   -5.284573    5.573875
  31 O     8.0000    0    15.999    4.934672   -5.964659    6.597427
  32 C     6.0000    0    12.011   -0.334876   -6.322167    6.004244
  33 C     6.0000    0    12.011   -0.796411   -3.920228    7.468843
  34 C     6.0000    0    12.011   -2.397880   -2.081730    5.866447
  35 C     6.0000    0    12.011   -3.308608    0.228457    7.358292
  36 C     6.0000    0    12.011   -4.637105    2.237077    5.722079
  37 C     6.0000    0    12.011   -7.482275    1.885365    5.260063
  38 C     6.0000    0    12.011   -8.285704   -0.646817    4.101016
  39 C     6.0000    0    12.011   -7.106185   -1.264329    1.530090
  40 C     6.0000    0    12.011   -7.649802   -3.983815    0.699715
  41 C     6.0000    0    12.011   -6.076306   -4.820623   -1.571441
  42 O     8.0000    0    15.999   -1.434280   -8.294087    6.535348
  43 O     8.0000    0    15.999   -0.770062   -9.775021    1.760193
  44 O     8.0000    0    15.999    3.038225   -2.987591   -1.813843
  45 C     6.0000    0    12.011    1.122261   -3.436228   -7.369149
  46 C     6.0000    0    12.011    1.758042   -6.074683   -8.350612
  47 O     8.0000    0    15.999   -4.311904   -0.850897   -6.999223
  48 C     6.0000    0    12.011   -3.724670    4.602580   -7.044694
  49 C     6.0000    0    12.011   -4.881687    7.199513   -6.529361
  50 C     6.0000    0    12.011   -1.090277    4.819365   -8.226330
  51 H     1.0000    0     1.008   -1.904101    6.563152    2.919943
  52 H     1.0000    0     1.008   -1.094014   10.873666    1.868091
  53 H     1.0000    0     1.008   -3.242475   10.186912   -0.616368
  54 H     1.0000    0     1.008    0.288627    9.234706   -3.534744
  55 H     1.0000    0     1.008    1.432485   11.932450   -1.904481
  56 H     1.0000    0     1.008    4.226382    7.563987   -1.856877
  57 H     1.0000    0     1.008    3.941039    9.389577    0.952826
  58 H     1.0000    0     1.008   -0.224502    4.307399   -3.005441
  59 H     1.0000    0     1.008   -5.606353    2.938742   -3.807419
  60 H     1.0000    0     1.008   -0.191120   -0.030401   -2.688237
  61 H     1.0000    0     1.008   -2.006887   -4.636457   -5.016949
  62 H     1.0000    0     1.008   -0.408475   -7.797010   -2.748680
  63 H     1.0000    0     1.008    4.624463   -7.284486   -0.295220
  64 H     1.0000    0     1.008    3.138148  -10.150018   -1.241420
  65 H     1.0000    0     1.008    2.867355   -9.918888    3.296816
  66 H     1.0000    0     1.008    0.559582   -4.686598    2.438719
  67 H     1.0000    0     1.008    4.404795   -3.368970    1.178347
  68 H     1.0000    0     1.008    8.110772   -2.858826    5.385896
  69 H     1.0000    0     1.008    4.058412    0.348214    3.467635
  70 H     1.0000    0     1.008    6.212908    4.355135    0.501515
  71 H     1.0000    0     1.008    8.177204    5.387704    4.645488
  72 H     1.0000    0     1.008    5.883487    7.723890    3.878330
  73 H     1.0000    0     1.008    5.148559    5.329474    6.139231
  74 H     1.0000    0     1.008    9.737566   -3.724843   -0.090346
  75 H     1.0000    0     1.008    9.170188   -6.276673    2.016179
  76 H     1.0000    0     1.008   12.906604   -2.030659    3.116694
  77 H     1.0000    0     1.008   14.251925   -4.309888   -0.754024
  78 H     1.0000    0     1.008   16.285681   -5.109917    1.800793
  79 H     1.0000    0     1.008   13.911739   -7.269137    0.812366
  80 H     1.0000    0     1.008   11.389507   -4.467753    6.960332
  81 H     1.0000    0     1.008   12.301825   -7.324906    5.470494
  82 H     1.0000    0     1.008   14.626968   -5.051807    6.324633
  83 H     1.0000    0     1.008    1.011844   -3.031291    7.981324
  84 H     1.0000    0     1.008   -1.801386   -4.432175    9.212099
  85 H     1.0000    0     1.008   -4.016886   -3.123139    5.087417
  86 H     1.0000    0     1.008   -1.275595   -1.404604    4.252022
  87 H     1.0000    0     1.008   -1.642420    1.094759    8.260540
  88 H     1.0000    0     1.008   -4.560064   -0.383181    8.911964
  89 H     1.0000    0     1.008   -3.634331    2.366102    3.908653
  90 H     1.0000    0     1.008   -4.387417    4.095792    6.629898
  91 H     1.0000    0     1.008   -8.112655    3.435533    4.020293
  92 H     1.0000    0     1.008   -8.492988    2.123399    7.068954
  93 H     1.0000    0     1.008  -10.362126   -0.671496    3.916534
  94 H     1.0000    0     1.008   -7.837080   -2.186890    5.435196
  95 H     1.0000    0     1.008   -5.043450   -0.988543    1.610264
  96 H     1.0000    0     1.008   -7.788981    0.085160    0.096449
  97 H     1.0000    0     1.008   -9.680886   -4.195780    0.283604
  98 H     1.0000    0     1.008   -7.260735   -5.264265    2.300399
  99 H     1.0000    0     1.008   -6.512899   -6.774782   -2.128700
 100 H     1.0000    0     1.008   -6.387989   -3.598395   -3.223289
 101 H     1.0000    0     1.008   -4.054830   -4.739321   -1.087137
 102 H     1.0000    0     1.008   -1.535751   -9.896782    3.455931
 103 H     1.0000    0     1.008    2.845254   -2.295748   -7.128882
 104 H     1.0000    0     1.008   -0.110089   -2.454083   -8.721179
 105 H     1.0000    0     1.008    2.651255   -5.958888  -10.220545
 106 H     1.0000    0     1.008    3.067614   -7.082128   -7.092072
 107 H     1.0000    0     1.008    0.041224   -7.231821   -8.549559
 108 H     1.0000    0     1.008   -4.947523    3.562704   -8.366716
 109 H     1.0000    0     1.008   -6.786497    7.037879   -5.721394
 110 H     1.0000    0     1.008   -3.723573    8.289943   -5.188629
 111 H     1.0000    0     1.008   -5.004159    8.303316   -8.284896
 112 H     1.0000    0     1.008   -0.260595    2.953644   -8.610321
 113 H     1.0000    0     1.008   -1.180027    5.853628  -10.024327
 114 H     1.0000    0     1.008    0.220137    5.870867   -6.993061

--------------------------------
INTERNAL COORDINATES (ANGSTROEM)
--------------------------------
 O      0   0   0     0.000000000000     0.00000000     0.00000000
 C      1   0   0     1.227826838302     0.00000000     0.00000000
 C      2   1   0     1.534884988783   119.34856917     0.00000000
 C      3   2   1     1.543760794397   110.62604124   281.95118438
 C      4   3   2     1.535184228079   103.59217270   264.14608840
 C      5   4   3     1.531895326548   103.03919677   321.15354513
 N      3   2   1     1.474551216433   116.10248432   165.13043974
 C      7   3   2     1.362179173295   118.88978507   281.79040115
 O      8   7   3     1.237452054229   120.81589011    13.58223156
 N      2   1   3     1.367203239136   123.77480872   183.19458396
 C     10   2   1     1.455612167369   120.85244845    10.94609617
 C     11  10   2     1.531878235204   114.77035488   227.18567925
 N     12  11  10     1.357007360712   117.46787951   358.87196468
 C     13  12  11     1.454840608441   120.68153971   184.14692898
 C     14  13  12     1.522606452026   107.85693829   194.17315243
 N     15  14  13     1.347475178697   116.12175709   141.10693752
 C     16  15  14     1.459820403681   125.21408084   172.52368372
 C     17  16  15     1.531558731198   112.45006443   102.17794380
 C     18  17  16     1.548270819881   112.48389350   291.24663524
 C     19  18  17     1.540582100482   110.24983072   287.76005481
 N     20  19  18     1.357965187295   114.12097022    91.81436770
 C     21  20  19     1.456436285554   123.10433406   183.51610533
 C     22  21  20     1.544514192057   109.15878089   221.56694663
 N     23  22  21     1.356725778096   113.42285833    29.41137080
 C     24  23  22     1.443929639963   124.11955068   183.50221238
 C     25  24  23     1.541392069642   111.03157192   277.40399156
 O     23  22  21     1.232480418241   123.35854733   208.95236131
 C     22  21  20     1.537982144640   112.36794570    96.63778203
 C     28  22  21     1.538495016566   114.93927829   201.36219484
 C     29  28  22     1.532208446477   109.74863648   191.33938021
 C     29  28  22     1.532882902489   111.61808311    68.27569788
 O     20  19  18     1.233076401109   121.37387236   272.51228907
 C     19  18  17     1.535138956230   113.19179393   165.99096291
 C     33  19  18     1.508607504294   116.77836819   183.79549543
 C     34  33  19     1.543933367798   109.73200666    68.78275747
 C     35  34  33     1.532969668346   113.09419906   170.89027368
 C     36  35  34     1.540683321092   113.84174779   173.11373038
 C     37  36  35     1.536633740862   116.93226977    86.23279448
 C     38  37  36     1.533777201670   116.17017547   304.33173458
 C     39  38  37     1.532079683470   115.37273358   301.27997049
 C     40  39  38     1.531933736883   112.24496047   170.67148721
 C     41  40  39     1.527689994939   113.30354042   191.60019517
 O     33  19  18     1.227329757949   121.56836161   358.85514334
 O     18  17  16     1.423051532794   105.58577220    53.93067328
 O     15  14  13     1.245345096627   119.46617927   317.45621308
 C     14  13  12     1.547617704384   111.18440839    73.96420408
 C     46  14  13     1.527199606618   113.69419813   186.52189516
 O     12  11  10     1.233633185225   119.86679116   180.60595432
 C     11  10   2     1.551330889682   112.40405419   101.57338920
 C     49  11  10     1.528976084309   111.21908992   296.15638531
 C     49  11  10     1.532174392439   111.67815580    61.69611959
 H      3   2   1     1.097598655446   105.17291045    43.76620007
 H      4   3   2     1.099590320512   109.37296838   146.55537766
 H      4   3   2     1.095999227283   111.58182416    27.18836533
 H      5   4   3     1.100351495487   110.36559061    78.92456784
 H      5   4   3     1.096819022283   113.27459494   199.80067008
 H      6   5   4     1.098647150904   113.44372529   153.23292943
 H      6   5   4     1.101487244405   110.60381756   274.71015172
 H     10   2   1     1.016582938184   116.95534872   172.10990745
 H     11  10   2     1.100674358439   105.04331635   343.79281486
 H     13  12  11     1.017721186246   121.32862015     5.39639424
 H     14  13  12     1.101120204419   108.27350348   314.74078115
 H     16  15  14     1.015957195676   117.81515589   345.25404924
 H     17  16  15     1.095638316447   108.53009716   338.31011479
 H     17  16  15     1.098969958996   107.62181721   221.18326267
 H     18  17  16     1.106998915711   107.88984927   172.50887665
 H     19  18  17     1.103526550973   108.64252696    47.99428485
 H     21  20  19     1.034961997663   118.43205349   352.24568889
 H     22  21  20     1.102444342722   105.87290921   337.40841791
 H     24  23  22     1.020399122085   120.36782196   354.57193427
 H     25  24  23     1.102336095968   108.88348404    37.65088478
 H     26  25  24     1.096912053441   108.42637594    58.85570550
 H     26  25  24     1.097767359111   112.38297823   178.59365234
 H     26  25  24     1.098296057529   109.81759456   299.84033783
 H     28  22  21     1.101408725377   108.65614741    78.08535071
 H     28  22  21     1.103170456377   107.29294356   322.27183114
 H     29  28  22     1.100991989050   107.39145247   308.72110015
 H     30  29  28     1.099898914869   111.19474326    59.53282898
 H     30  29  28     1.099856796806   111.17349691   179.84697932
 H     30  29  28     1.102469209068   110.86496694   299.45871247
 H     31  29  28     1.099228420148   112.55713801   302.35490672
 H     31  29  28     1.101737975014   110.75588639    62.41540508
 H     31  29  28     1.099768116630   110.76870072   182.00802962
 H     34  33  19     1.100209368871   110.24664559   307.37726994
 H     34  33  19     1.098728798098   107.57505389   189.08452258
 H     35  34  33     1.098931874778   108.53930973    48.06813016
 H     35  34  33     1.100432937201   109.59277024   291.50540838
 H     36  35  34     1.102507909957   107.64917610    52.49154701
 H     36  35  34     1.104211341155   109.76945223   297.30617202
 H     37  36  35     1.098691836133   108.26093992   321.39003875
 H     37  36  35     1.102582204975   108.41536752   207.40744059
 H     38  37  36     1.102090938606   107.52543378   181.72879778
 H     38  37  36     1.103723146234   108.84360559    66.69314284
 H     39  38  37     1.103200823523   108.77289506   178.54715299
 H     39  38  37     1.104083041996   109.24185032    64.23223599
 H     40  39  38     1.102081978273   109.94285811    49.48462719
 H     40  39  38     1.102754617984   109.83397039   293.96362261
 H     41  40  39     1.102846273587   109.62242881    68.09962856
 H     41  40  39     1.104081886214   108.74989333   312.85190244
 H     42  41  40     1.099860106803   111.65195066   180.25226070
 H     42  41  40     1.099822198150   111.90467716   301.39381575
 H     42  41  40     1.100832179074   109.58220028    61.07190491
 H     44  18  17     0.986689483101   104.11278787   183.26714006
 H     46  14  13     1.100781087450   107.89598226    62.97658554
 H     46  14  13     1.098763834987   106.11145030   307.53466101
 H     47  46  14     1.098331300329   110.49890987   175.98565574
 H     47  46  14     1.099090515081   112.10357929   295.94661204
 H     47  46  14     1.100639138028   111.05790916    56.82591442
 H     49  11  10     1.100441180680   104.56983955   178.52732700
 H     50  49  11     1.098248343201   111.52862419   304.26702907
 H     50  49  11     1.100870067402   111.29282409    64.32440421
 H     50  49  11     1.099273615521   110.51565014   183.56098081
 H     51  49  11     1.099458380511   111.80978874    55.12124019
 H     51  49  11     1.098670227486   110.57258360   175.15848280
 H     51  49  11     1.102899283913   111.61400106   293.83940449

---------------------------
INTERNAL COORDINATES (A.U.)
---------------------------
 O      0   0   0     0.000000000000     0.00000000     0.00000000
 C      1   0   0     2.320256464270     0.00000000     0.00000000
 C      2   1   0     2.900512275867   119.34856917     0.00000000
 C      3   2   1     2.917285117694   110.62604124   281.95118438
 C      4   3   2     2.901077756185   103.59217270   264.14608840
 C      5   4   3     2.894862633009   103.03919677   321.15354513
 N      3   2   1     2.786497969499   116.10248432   165.13043974
 C      7   3   2     2.574145582859   118.88978507   281.79040115
 O      8   7   3     2.338445486351   120.81589011    13.58223156
 N      2   1   3     2.583639691377   123.77480872   183.19458396
 C     10   2   1     2.750708353531   120.85244845    10.94609617
 C     11  10   2     2.894830335050   114.77035488   227.18567925
 N     12  11  10     2.564372273461   117.46787951   358.87196468
 C     13  12  11     2.749250318461   120.68153971   184.14692898
 C     14  13  12     2.877309204071   107.85693829   194.17315243
 N     15  14  13     2.546359059994   116.12175709   141.10693752
 C     16  15  14     2.758660767667   125.21408084   172.52368372
 C     17  16  15     2.894226559980   112.45006443   102.17794380
 C     18  17  16     2.925807830717   112.48389350   291.24663524
 C     19  18  17     2.911278256732   110.24983072   287.76005481
 N     20  19  18     2.566182303387   114.12097022    91.81436770
 C     21  20  19     2.752265711202   123.10433406   183.51610533
 C     22  21  20     2.918708832943   109.15878089   221.56694663
 N     23  22  21     2.563840159433   113.42285833    29.41137080
 C     24  23  22     2.728631576182   124.11955068   183.50221238
 C     25  24  23     2.912808876621   111.03157192   277.40399156
 O     23  22  21     2.329050455896   123.35854733   208.95236131
 C     22  21  20     2.906365052230   112.36794570    96.63778203
 C     28  22  21     2.907334239712   114.93927829   201.36219484
 C     29  28  22     2.895454343923   109.74863648   191.33938021
 C     29  28  22     2.896728881074   111.61808311    68.27569788
 O     20  19  18     2.330176700297   121.37387236   272.51228907
 C     19  18  17     2.900992204788   113.19179393   165.99096291
 C     33  19  18     2.850855026693   116.77836819   183.79549543
 C     34  33  19     2.917611234161   109.73200666    68.78275747
 C     35  34  33     2.896892844783   113.09419906   170.89027368
 C     36  35  34     2.911469535965   113.84174779   173.11373038
 C     37  36  35     2.903816938371   116.93226977    86.23279448
 C     38  37  36     2.898418861609   116.17017547   304.33173458
 C     39  38  37     2.895211017103   115.37273358   301.27997049
 C     40  39  38     2.894935218024   112.24496047   170.67148721
 C     41  40  39     2.886915707966   113.30354042   191.60019517
 O     33  19  18     2.319317118535   121.56836161   358.85514334
 O     18  17  16     2.689177671437   105.58577220    53.93067328
 O     15  14  13     2.353361174846   119.46617927   317.45621308
 C     14  13  12     2.924573621294   111.18440839    73.96420408
 C     46  14  13     2.885989008340   113.69419813   186.52189516
 O     12  11  10     2.331228869792   119.86679116   180.60595432
 C     11  10   2     2.931590524592   112.40405419   101.57338920
 C     49  11  10     2.889346064659   111.21908992   296.15638531
 C     49  11  10     2.895389991116   111.67815580    61.69611959
 H      3   2   1     2.074160863753   105.17291045    43.76620007
 H      4   3   2     2.077924565277   109.37296838   146.55537766
 H      4   3   2     2.071138382553   111.58182416    27.18836533
 H      5   4   3     2.079362977521   110.36559061    78.92456784
 H      5   4   3     2.072687570590   113.27459494   199.80067008
[...]
freq.      82.71  E(vib)   ...       0.48 
freq.      86.16  E(vib)   ...       0.48 
freq.      88.98  E(vib)   ...       0.47 
freq.      90.81  E(vib)   ...       0.47 
freq.      92.08  E(vib)   ...       0.47 
freq.      98.49  E(vib)   ...       0.46 
freq.     110.21  E(vib)   ...       0.45 
freq.     114.11  E(vib)   ...       0.44 
freq.     119.25  E(vib)   ...       0.44 
freq.     119.53  E(vib)   ...       0.44 
freq.     134.65  E(vib)   ...       0.42 
freq.     140.73  E(vib)   ...       0.41 
freq.     142.97  E(vib)   ...       0.41 
freq.     153.48  E(vib)   ...       0.40 
freq.     161.28  E(vib)   ...       0.39 
freq.     169.67  E(vib)   ...       0.38 
freq.     175.11  E(vib)   ...       0.38 
freq.     183.06  E(vib)   ...       0.37 
freq.     185.79  E(vib)   ...       0.37 
freq.     189.54  E(vib)   ...       0.36 
freq.     201.45  E(vib)   ...       0.35 
freq.     202.21  E(vib)   ...       0.35 
freq.     211.59  E(vib)   ...       0.34 
freq.     214.67  E(vib)   ...       0.34 
freq.     217.17  E(vib)   ...       0.34 
freq.     222.45  E(vib)   ...       0.33 
freq.     224.32  E(vib)   ...       0.33 
freq.     228.13  E(vib)   ...       0.33 
freq.     234.73  E(vib)   ...       0.32 
freq.     236.61  E(vib)   ...       0.32 
freq.     242.28  E(vib)   ...       0.31 
freq.     244.20  E(vib)   ...       0.31 
freq.     248.55  E(vib)   ...       0.31 
freq.     252.36  E(vib)   ...       0.30 
freq.     262.22  E(vib)   ...       0.29 
freq.     271.71  E(vib)   ...       0.29 
freq.     272.04  E(vib)   ...       0.29 
freq.     275.59  E(vib)   ...       0.28 
freq.     280.16  E(vib)   ...       0.28 
freq.     288.75  E(vib)   ...       0.27 
freq.     293.46  E(vib)   ...       0.27 
freq.     319.22  E(vib)   ...       0.25 
freq.     321.25  E(vib)   ...       0.25 
freq.     322.51  E(vib)   ...       0.25 
freq.     329.24  E(vib)   ...       0.24 
freq.     340.41  E(vib)   ...       0.23 
freq.     352.18  E(vib)   ...       0.23 
freq.     355.10  E(vib)   ...       0.22 
freq.     357.66  E(vib)   ...       0.22 
freq.     375.69  E(vib)   ...       0.21 
freq.     384.59  E(vib)   ...       0.20 
freq.     389.90  E(vib)   ...       0.20 
freq.     392.45  E(vib)   ...       0.20 
freq.     397.78  E(vib)   ...       0.20 
freq.     401.46  E(vib)   ...       0.19 
freq.     407.07  E(vib)   ...       0.19 
freq.     413.19  E(vib)   ...       0.19 
freq.     425.20  E(vib)   ...       0.18 
freq.     455.86  E(vib)   ...       0.16 
freq.     464.24  E(vib)   ...       0.16 
freq.     472.86  E(vib)   ...       0.15 
freq.     485.19  E(vib)   ...       0.15 
freq.     497.78  E(vib)   ...       0.14 
freq.     507.56  E(vib)   ...       0.14 
freq.     527.14  E(vib)   ...       0.13 
freq.     533.62  E(vib)   ...       0.13 
freq.     547.14  E(vib)   ...       0.12 
freq.     558.14  E(vib)   ...       0.12 
freq.     565.78  E(vib)   ...       0.11 
freq.     572.55  E(vib)   ...       0.11 
freq.     587.56  E(vib)   ...       0.10 
freq.     597.19  E(vib)   ...       0.10 
freq.     614.96  E(vib)   ...       0.10 
freq.     631.82  E(vib)   ...       0.09 
freq.     643.86  E(vib)   ...       0.09 
freq.     650.94  E(vib)   ...       0.08 
freq.     669.75  E(vib)   ...       0.08 
freq.     672.16  E(vib)   ...       0.08 
freq.     684.63  E(vib)   ...       0.07 
freq.     688.64  E(vib)   ...       0.07 
freq.     693.42  E(vib)   ...       0.07 
freq.     707.82  E(vib)   ...       0.07 
freq.     712.53  E(vib)   ...       0.07 
freq.     720.07  E(vib)   ...       0.07 
freq.     723.28  E(vib)   ...       0.07 
freq.     729.82  E(vib)   ...       0.06 
freq.     735.58  E(vib)   ...       0.06 
freq.     739.00  E(vib)   ...       0.06 
freq.     755.98  E(vib)   ...       0.06 
freq.     770.20  E(vib)   ...       0.05 
freq.     778.40  E(vib)   ...       0.05 
freq.     782.71  E(vib)   ...       0.05 
freq.     804.94  E(vib)   ...       0.05 
freq.     818.04  E(vib)   ...       0.05 
freq.     820.75  E(vib)   ...       0.05 
freq.     825.50  E(vib)   ...       0.04 
freq.     833.98  E(vib)   ...       0.04 
freq.     844.19  E(vib)   ...       0.04 
freq.     853.91  E(vib)   ...       0.04 
freq.     856.55  E(vib)   ...       0.04 
freq.     865.60  E(vib)   ...       0.04 
freq.     866.04  E(vib)   ...       0.04 
freq.     867.96  E(vib)   ...       0.04 
freq.     872.14  E(vib)   ...       0.04 
freq.     874.74  E(vib)   ...       0.04 
freq.     884.27  E(vib)   ...       0.04 
freq.     896.24  E(vib)   ...       0.03 
freq.     900.27  E(vib)   ...       0.03 
freq.     901.53  E(vib)   ...       0.03 
freq.     902.88  E(vib)   ...       0.03 
freq.     907.62  E(vib)   ...       0.03 
freq.     913.66  E(vib)   ...       0.03 
freq.     928.25  E(vib)   ...       0.03 
freq.     930.29  E(vib)   ...       0.03 
freq.     932.74  E(vib)   ...       0.03 
freq.     940.76  E(vib)   ...       0.03 
freq.     942.04  E(vib)   ...       0.03 
freq.     943.06  E(vib)   ...       0.03 
freq.     951.19  E(vib)   ...       0.03 
freq.     959.91  E(vib)   ...       0.03 
freq.     969.96  E(vib)   ...       0.03 
freq.     975.71  E(vib)   ...       0.03 
freq.     978.52  E(vib)   ...       0.03 
freq.     983.32  E(vib)   ...       0.02 
freq.     988.92  E(vib)   ...       0.02 
freq.    1001.64  E(vib)   ...       0.02 
freq.    1010.49  E(vib)   ...       0.02 
freq.    1013.49  E(vib)   ...       0.02 
freq.    1023.80  E(vib)   ...       0.02 
freq.    1029.58  E(vib)   ...       0.02 
freq.    1030.82  E(vib)   ...       0.02 
freq.    1031.28  E(vib)   ...       0.02 
freq.    1037.84  E(vib)   ...       0.02 
freq.    1038.77  E(vib)   ...       0.02 
freq.    1045.63  E(vib)   ...       0.02 
freq.    1060.23  E(vib)   ...       0.02 
freq.    1061.27  E(vib)   ...       0.02 
freq.    1068.71  E(vib)   ...       0.02 
freq.    1072.12  E(vib)   ...       0.02 
freq.    1076.67  E(vib)   ...       0.02 
freq.    1079.73  E(vib)   ...       0.02 
freq.    1082.98  E(vib)   ...       0.02 
freq.    1089.90  E(vib)   ...       0.02 
freq.    1093.79  E(vib)   ...       0.02 
freq.    1096.09  E(vib)   ...       0.02 
freq.    1102.42  E(vib)   ...       0.02 
freq.    1105.84  E(vib)   ...       0.02 
freq.    1123.57  E(vib)   ...       0.01 
freq.    1127.48  E(vib)   ...       0.01 
freq.    1130.17  E(vib)   ...       0.01 
freq.    1137.52  E(vib)   ...       0.01 
freq.    1137.93  E(vib)   ...       0.01 
freq.    1145.59  E(vib)   ...       0.01 
freq.    1154.14  E(vib)   ...       0.01 
freq.    1156.28  E(vib)   ...       0.01 
freq.    1157.46  E(vib)   ...       0.01 
freq.    1163.32  E(vib)   ...       0.01 
freq.    1166.78  E(vib)   ...       0.01 
freq.    1171.87  E(vib)   ...       0.01 
freq.    1180.31  E(vib)   ...       0.01 
freq.    1186.66  E(vib)   ...       0.01 
freq.    1186.91  E(vib)   ...       0.01 
freq.    1194.41  E(vib)   ...       0.01 
freq.    1197.70  E(vib)   ...       0.01 
freq.    1199.57  E(vib)   ...       0.01 
freq.    1211.11  E(vib)   ...       0.01 
freq.    1224.57  E(vib)   ...       0.01 
freq.    1227.54  E(vib)   ...       0.01 
freq.    1230.89  E(vib)   ...       0.01 
freq.    1236.29  E(vib)   ...       0.01 
freq.    1242.30  E(vib)   ...       0.01 
freq.    1243.51  E(vib)   ...       0.01 
freq.    1247.38  E(vib)   ...       0.01 
freq.    1251.01  E(vib)   ...       0.01 
freq.    1254.74  E(vib)   ...       0.01 
freq.    1255.30  E(vib)   ...       0.01 
freq.    1257.56  E(vib)   ...       0.01 
freq.    1268.18  E(vib)   ...       0.01 
freq.    1270.18  E(vib)   ...       0.01 
freq.    1275.64  E(vib)   ...       0.01 
freq.    1282.14  E(vib)   ...       0.01 
freq.    1283.39  E(vib)   ...       0.01 
freq.    1284.65  E(vib)   ...       0.01 
freq.    1285.87  E(vib)   ...       0.01 
freq.    1287.69  E(vib)   ...       0.01 
freq.    1291.16  E(vib)   ...       0.01 
freq.    1301.47  E(vib)   ...       0.01 
freq.    1303.45  E(vib)   ...       0.01 
freq.    1303.79  E(vib)   ...       0.01 
freq.    1304.59  E(vib)   ...       0.01 
freq.    1306.85  E(vib)   ...       0.01 
freq.    1308.33  E(vib)   ...       0.01 
freq.    1311.80  E(vib)   ...       0.01 
freq.    1312.95  E(vib)   ...       0.01 
freq.    1320.75  E(vib)   ...       0.01 
freq.    1323.76  E(vib)   ...       0.01 
freq.    1325.75  E(vib)   ...       0.01 
freq.    1327.98  E(vib)   ...       0.01 
freq.    1331.70  E(vib)   ...       0.01 
freq.    1338.33  E(vib)   ...       0.01 
freq.    1338.80  E(vib)   ...       0.01 
freq.    1340.11  E(vib)   ...       0.01 
freq.    1341.56  E(vib)   ...       0.01 
freq.    1345.54  E(vib)   ...       0.01 
freq.    1348.44  E(vib)   ...       0.01 
freq.    1351.66  E(vib)   ...       0.01 
freq.    1351.80  E(vib)   ...       0.01 
freq.    1352.98  E(vib)   ...       0.01 
freq.    1358.31  E(vib)   ...       0.01 
freq.    1366.54  E(vib)   ...       0.01 
freq.    1366.86  E(vib)   ...       0.01 
freq.    1372.05  E(vib)   ...       0.01 
freq.    1372.39  E(vib)   ...       0.01 
freq.    1397.08  E(vib)   ...       0.00 
freq.    1398.82  E(vib)   ...       0.00 
freq.    1422.84  E(vib)   ...       0.00 
freq.    1426.36  E(vib)   ...       0.00 
freq.    1426.87  E(vib)   ...       0.00 
freq.    1430.03  E(vib)   ...       0.00 
freq.    1432.15  E(vib)   ...       0.00 
freq.    1433.97  E(vib)   ...       0.00 
freq.    1434.53  E(vib)   ...       0.00 
freq.    1436.59  E(vib)   ...       0.00 
freq.    1437.91  E(vib)   ...       0.00 
freq.    1439.39  E(vib)   ...       0.00 
freq.    1442.66  E(vib)   ...       0.00 
freq.    1443.78  E(vib)   ...       0.00 
freq.    1445.08  E(vib)   ...       0.00 
freq.    1445.63  E(vib)   ...       0.00 
freq.    1447.56  E(vib)   ...       0.00 
freq.    1450.05  E(vib)   ...       0.00 
freq.    1450.95  E(vib)   ...       0.00 
freq.    1451.74  E(vib)   ...       0.00 
freq.    1452.87  E(vib)   ...       0.00 
freq.    1453.04  E(vib)   ...       0.00 
freq.    1454.24  E(vib)   ...       0.00 
freq.    1455.19  E(vib)   ...       0.00 
freq.    1455.30  E(vib)   ...       0.00 
freq.    1455.41  E(vib)   ...       0.00 
freq.    1458.50  E(vib)   ...       0.00 
freq.    1458.71  E(vib)   ...       0.00 
freq.    1462.25  E(vib)   ...       0.00 
freq.    1467.74  E(vib)   ...       0.00 
freq.    1470.08  E(vib)   ...       0.00 
freq.    1474.57  E(vib)   ...       0.00 
freq.    1479.63  E(vib)   ...       0.00 
freq.    1518.75  E(vib)   ...       0.00 
freq.    1555.34  E(vib)   ...       0.00 
freq.    1637.53  E(vib)   ...       0.00 
freq.    1642.33  E(vib)   ...       0.00 
freq.    1666.07  E(vib)   ...       0.00 
freq.    1674.05  E(vib)   ...       0.00 
freq.    1678.28  E(vib)   ...       0.00 
freq.    1686.02  E(vib)   ...       0.00 
freq.    1690.84  E(vib)   ...       0.00 
freq.    2912.83  E(vib)   ...       0.00 
freq.    2931.84  E(vib)   ...       0.00 
freq.    2934.72  E(vib)   ...       0.00 
freq.    2935.26  E(vib)   ...       0.00 
freq.    2939.30  E(vib)   ...       0.00 
freq.    2945.15  E(vib)   ...       0.00 
freq.    2947.09  E(vib)   ...       0.00 
freq.    2947.57  E(vib)   ...       0.00 
freq.    2953.03  E(vib)   ...       0.00 
freq.    2954.12  E(vib)   ...       0.00 
freq.    2954.43  E(vib)   ...       0.00 
freq.    2957.45  E(vib)   ...       0.00 
freq.    2958.27  E(vib)   ...       0.00 
freq.    2959.27  E(vib)   ...       0.00 
freq.    2963.43  E(vib)   ...       0.00 
freq.    2964.26  E(vib)   ...       0.00 
freq.    2964.84  E(vib)   ...       0.00 
freq.    2964.88  E(vib)   ...       0.00 
freq.    2967.61  E(vib)   ...       0.00 
freq.    2972.45  E(vib)   ...       0.00 
freq.    2972.70  E(vib)   ...       0.00 
freq.    2972.94  E(vib)   ...       0.00 
freq.    2974.68  E(vib)   ...       0.00 
freq.    2980.18  E(vib)   ...       0.00 
freq.    2980.24  E(vib)   ...       0.00 
freq.    2980.70  E(vib)   ...       0.00 
freq.    2984.51  E(vib)   ...       0.00 
freq.    2984.67  E(vib)   ...       0.00 
freq.    2986.30  E(vib)   ...       0.00 
freq.    2988.07  E(vib)   ...       0.00 
freq.    2991.71  E(vib)   ...       0.00 
freq.    2995.02  E(vib)   ...       0.00 
freq.    2997.96  E(vib)   ...       0.00 
freq.    2998.31  E(vib)   ...       0.00 
freq.    2998.67  E(vib)   ...       0.00 
freq.    3012.26  E(vib)   ...       0.00 
freq.    3013.80  E(vib)   ...       0.00 
freq.    3014.49  E(vib)   ...       0.00 
freq.    3017.70  E(vib)   ...       0.00 
freq.    3018.98  E(vib)   ...       0.00 
freq.    3020.94  E(vib)   ...       0.00 
freq.    3023.09  E(vib)   ...       0.00 
freq.    3023.23  E(vib)   ...       0.00 
freq.    3024.05  E(vib)   ...       0.00 
freq.    3027.34  E(vib)   ...       0.00 
freq.    3027.39  E(vib)   ...       0.00 
freq.    3030.30  E(vib)   ...       0.00 
freq.    3030.77  E(vib)   ...       0.00 
freq.    3036.71  E(vib)   ...       0.00 
freq.    3038.45  E(vib)   ...       0.00 
freq.    3041.95  E(vib)   ...       0.00 
freq.    3043.66  E(vib)   ...       0.00 
freq.    3044.86  E(vib)   ...       0.00 
freq.    3045.83  E(vib)   ...       0.00 
freq.    3054.39  E(vib)   ...       0.00 
freq.    3057.64  E(vib)   ...       0.00 
freq.    3065.17  E(vib)   ...       0.00 
freq.    3067.68  E(vib)   ...       0.00 
freq.    3162.19  E(vib)   ...       0.00 
freq.    3435.12  E(vib)   ...       0.00 
freq.    3437.61  E(vib)   ...       0.00 
freq.    3486.18  E(vib)   ...       0.00 
freq.    3495.29  E(vib)   ...       0.00 
freq.    3519.18  E(vib)   ...       0.00 

------------
INNER ENERGY
------------

The inner energy is: U= E(el) + E(ZPE) + E(vib) + E(rot) + E(trans)
    E(el)   - is the total energy from the electronic structure calculation
              = E(kin-el) + E(nuc-el) + E(el-el) + E(nuc-nuc)
    E(ZPE)  - the the zero temperature vibrational energy from the frequency calculation
    E(vib)  - the the finite temperature correction to E(ZPE) due to population
              of excited vibrational states
    E(rot)  - is the rotational thermal energy
    E(trans)- is the translational thermal energy

Summary of contributions to the inner energy U:
Electronic energy                ...  -2380.08877224 Eh
Zero point energy                ...      0.97810004 Eh     613.77 kcal/mol
Thermal vibrational correction   ...      0.05544576 Eh      34.79 kcal/mol
Thermal rotational correction    ...      0.00141627 Eh       0.89 kcal/mol
Thermal translational correction ...      0.00141627 Eh       0.89 kcal/mol
-----------------------------------------------------------------------
Total thermal energy                  -2379.05239389 Eh


Summary of corrections to the electronic energy:
(perhaps to be used in another calculation)
Total thermal correction                  0.05827831 Eh      36.57 kcal/mol
Non-thermal (ZPE) correction              0.97810004 Eh     613.77 kcal/mol
-----------------------------------------------------------------------
Total correction                          1.03637835 Eh     650.34 kcal/mol


--------
ENTHALPY
--------

The enthalpy is H = U + kB*T
                kB is Boltzmann's constant
Total free energy                 ...  -2379.05239389 Eh 
Thermal Enthalpy correction       ...      0.00094421 Eh       0.59 kcal/mol
-----------------------------------------------------------------------
Total Enthalpy                    ...  -2379.05144968 Eh


Note: Only C1 symmetry has been detected, increase convergence thresholds 
      if your molecule has a higher symmetry. Symmetry factor of 1.0 is   
      used for the rotational entropy correction. 
 

Note: Rotational entropy computed according to Herzberg 
Infrared and Raman Spectra, Chapter V,1, Van Nostrand Reinhold, 1945 
Point Group:  C1, Symmetry Number:   1  
Rotational constants in cm-1:     0.002194     0.001565     0.001414 

Vibrational entropy computed according to the QRRHO of S. Grimme
Chem.Eur.J. 2012 18 9955


-------
ENTROPY
-------

The entropy contributions are T*S = T*(S(el)+S(vib)+S(rot)+S(trans))
     S(el)   - electronic entropy
     S(vib)  - vibrational entropy
     S(rot)  - rotational entropy
     S(trans)- translational entropy
The entropies will be listed as mutliplied by the temperature to get
units of energy

Electronic entropy                ...      0.00000000 Eh      0.00 kcal/mol
Vibrational entropy               ...      0.10146939 Eh     63.67 kcal/mol
Rotational entropy                ...      0.01854832 Eh     11.64 kcal/mol
Translational entropy             ...      0.02166895 Eh     13.60 kcal/mol
-----------------------------------------------------------------------
Final entropy term                ...      0.14168667 Eh     88.91 kcal/mol

In case the symmetry of your molecule has not been determined correctly
or in case you have a reason to use a different symmetry number we print 
out the resulting rotational entropy values for sn=1,12 :
 --------------------------------------------------------
|  sn= 1 | S(rot)=       0.01854832 Eh     11.64 kcal/mol|
|  sn= 2 | S(rot)=       0.01789387 Eh     11.23 kcal/mol|
|  sn= 3 | S(rot)=       0.01751103 Eh     10.99 kcal/mol|
|  sn= 4 | S(rot)=       0.01723941 Eh     10.82 kcal/mol|
|  sn= 5 | S(rot)=       0.01702872 Eh     10.69 kcal/mol|
|  sn= 6 | S(rot)=       0.01685658 Eh     10.58 kcal/mol|
|  sn= 7 | S(rot)=       0.01671103 Eh     10.49 kcal/mol|
|  sn= 8 | S(rot)=       0.01658495 Eh     10.41 kcal/mol|
|  sn= 9 | S(rot)=       0.01647375 Eh     10.34 kcal/mol|
|  sn=10 | S(rot)=       0.01637427 Eh     10.27 kcal/mol|
|  sn=11 | S(rot)=       0.01628428 Eh     10.22 kcal/mol|
|  sn=12 | S(rot)=       0.01620212 Eh     10.17 kcal/mol|
 --------------------------------------------------------


-------------------
GIBBS FREE ENERGY
-------------------

The Gibbs free energy is G = H - T*S

Total enthalpy                    ...  -2379.05144968 Eh 
Total entropy correction          ...     -0.14168667 Eh    -88.91 kcal/mol
-----------------------------------------------------------------------
Final Gibbs free energy         ...  -2379.19313635 Eh

For completeness - the Gibbs free energy minus the electronic energy
G-E(el)                           ...      0.89563589 Eh    562.02 kcal/mol

--------------------------------------------------------------------------
WARNING: No preset parameters were found for the device that Open MPI
detected:

  Local host:            eu-g1-007-4
  Device name:           mlx5_0
  Device vendor ID:      0x02c9
  Device vendor part ID: 4123

Default device parameters will be used, which may result in lower
performance.  You can edit any of the files specified by the
btl_openib_device_param_files MCA parameter to set values for your
device.

NOTE: You can turn off this warning by setting the MCA parameter
      btl_openib_warn_no_device_params_found to 0.
--------------------------------------------------------------------------
--------------------------------------------------------------------------
WARNING: There was an error initializing an OpenFabrics device.

  Local host:   eu-g1-007-4
  Local device: mlx5_0
--------------------------------------------------------------------------

Timings for individual modules:

Sum of individual times         ...    26218.487 sec (= 436.975 min)
GTO integral calculation        ...       13.083 sec (=   0.218 min)   0.0 %
SCF iterations                  ...      384.847 sec (=   6.414 min)   1.5 %
SCF Gradient evaluation         ...       73.884 sec (=   1.231 min)   0.3 %
Geometry relaxation             ...        4.028 sec (=   0.067 min)   0.0 %
Analytical frequency calculation...    25742.645 sec (= 429.044 min)  98.2 %
                             ****ORCA TERMINATED NORMALLY****
TOTAL RUN TIME: 0 days 7 hours 17 minutes 15 seconds 572 msec
