
                                 *****************
                                 * O   R   C   A *
                                 *****************

           --- An Ab Initio, DFT and Semiempirical electronic structure package ---

                  #######################################################
                  #                        -***-                        #
                  #          Department of theory and spectroscopy      #
                  #               Directorship: Frank Neese             #
                  #        Max Planck Institute fuer Kohlenforschung    #
                  #                Kaiser Wilhelm Platz 1               #
                  #                 D-45470 Muelheim/Ruhr               #
                  #                      Germany                        #
                  #                                                     #
                  #                  All rights reserved                #
                  #                        -***-                        #
                  #######################################################


                         Program Version 4.2.0 -  RELEASE  -


 With contributions from (in alphabetic order):
   Daniel Aravena         : Magnetic Suceptibility
   Michael Atanasov       : Ab Initio Ligand Field Theory (pilot matlab implementation)
   Alexander A. Auer      : GIAO ZORA, VPT2
   Ute Becker             : Parallelization
   Giovanni Bistoni       : ED, misc. LED, open-shell LED, HFLED
   Martin Brehm           : Molecular dynamics
   Dmytro Bykov           : SCF Hessian
   Vijay G. Chilkuri      : MRCI spin determinant printing, contributions to CSF-ICE
   Dipayan Datta          : RHF DLPNO-CCSD density
   Achintya Kumar Dutta   : EOM-CC, STEOM-CC
   Dmitry Ganyushin       : Spin-Orbit,Spin-Spin,Magnetic field MRCI
   Miquel Garcia          : C-PCM Hessian, Gaussian charge scheme
   Yang Guo               : DLPNO-NEVPT2, CIM, IAO-localization
   Andreas Hansen         : Spin unrestricted coupled pair/coupled cluster methods
   Benjamin Helmich-Paris : CASSCF linear response (MC-RPA)
   Lee Huntington         : MR-EOM, pCC
   Robert Izsak           : Overlap fitted RIJCOSX, COSX-SCS-MP3, EOM
   Christian Kollmar      : KDIIS, OOCD, Brueckner-CCSD(T), CCSD density
   Simone Kossmann        : Meta GGA functionals, TD-DFT gradient, OOMP2, MP2 Hessian
   Martin Krupicka        : AUTO-CI
   Lucas Lang             : DCDCAS
   Dagmar Lenk            : GEPOL surface, SMD
   Dimitrios Liakos       : Extrapolation schemes; Compound Job, initial MDCI parallelization
   Dimitrios Manganas     : Further ROCIS development; embedding schemes
   Dimitrios Pantazis     : SARC Basis sets
   Taras Petrenko         : DFT Hessian,TD-DFT gradient, ASA, ECA, R-Raman, ABS, FL, XAS/XES, NRVS
   Peter Pinski           : DLPNO-MP2, DLPNO-MP2 Gradient
   Christoph Reimann      : Effective Core Potentials
   Marius Retegan         : Local ZFS, SOC
   Christoph Riplinger    : Optimizer, TS searches, QM/MM, DLPNO-CCSD(T), (RO)-DLPNO pert. Triples
   Tobias Risthaus        : Range-separated hybrids, TD-DFT gradient, RPA, STAB
   Michael Roemelt        : Original ROCIS implementation
   Masaaki Saitow         : Open-shell DLPNO-CCSD energy and density
   Barbara Sandhoefer     : DKH picture change effects
   Avijit Sen             : IP-ROCIS
   Kantharuban Sivalingam : CASSCF convergence, NEVPT2, FIC-MRCI
   Bernardo de Souza      : ESD, SOC TD-DFT
   Georgi Stoychev        : AutoAux, RI-MP2 NMR
   Willem Van den Heuvel  : Paramagnetic NMR
   Boris Wezisla          : Elementary symmetry handling
   Frank Wennmohs         : Technical directorship


 We gratefully acknowledge several colleagues who have allowed us to
 interface, adapt or use parts of their codes:
   Stefan Grimme, W. Hujo, H. Kruse,             : VdW corrections, initial TS optimization,
                  C. Bannwarth                     DFT functionals, gCP, sTDA/sTD-DF
   Ed Valeev, F. Pavosevic, A. Kumar             : LibInt (2-el integral package), F12 methods
   Garnet Chan, S. Sharma, J. Yang, R. Olivares  : DMRG
   Ulf Ekstrom                                   : XCFun DFT Library
   Mihaly Kallay                                 : mrcc  (arbitrary order and MRCC methods)
   Andreas Klamt, Michael Diedenhofen            : otool_cosmo (COSMO solvation model)
   Jiri Pittner, Ondrej Demel                    : Mk-CCSD
   Frank Weinhold                                : gennbo (NPA and NBO analysis)
   Christopher J. Cramer and Donald G. Truhlar   : smd solvation model
   Lars Goerigk                                  : TD-DFT with DH, B97 family of functionals
   V. Asgeirsson, H. Jonsson                     : NEB implementation
   FAccTs GmbH                                   : IRC, NEB, NEB-TS, Multilevel, MM, QM/MM, CI optimization
   S Lehtola, MJT Oliveira, MAL Marques          : LibXC Library


 Your calculation uses the libint2 library for the computation of 2-el integrals
 For citations please refer to: http://libint.valeyev.net

 Your ORCA version has been built with support for libXC version: 4.2.3
 For citations please refer to: https://tddft.org/programs/libxc/

 This ORCA versions uses:
   CBLAS   interface :  Fast vector & matrix operations
   LAPACKE interface :  Fast linear algebra routines
   SCALAPACK package :  Parallel linear algebra routines




***************************************
The coordinates will be read from file: 5.xyz
***************************************


Your calculation utilizes the atom-pairwise dispersion correction
with the Becke-Johnson damping scheme (D3BJ)
Cite in your paper:
S.Grimme, S.Ehrlich, L.Goerigk, J Comput Chem, (2011), 32, 1456–1465 
S.Grimme, J.Antony, S.Ehrlich and H.Krieg, J.Chem.Phys., 132, (2010), 154104 
   

----- Orbital basis set information -----
Your calculation utilizes the basis: def2-TZVP
   F. Weigend and R. Ahlrichs, Phys. Chem. Chem. Phys. 7, 3297 (2005).

----- AuxJ basis set information -----
Your calculation utilizes the auxiliary basis: def2/J
   F. Weigend, Phys. Chem. Chem. Phys. 8, 1057 (2006).

================================================================================
                                        WARNINGS
                       Please study these warnings very carefully!
================================================================================


WARNING: Geometry Optimization
  ===> : Switching off AutoStart
         For restart on a previous wavefunction, please use MOREAD

INFO   : the flag for use of LIBINT has been found!

================================================================================
                                       INPUT FILE
================================================================================
NAME = 5.inp
|  1> !RI BP86 def2-tzvp def2/J D3BJ VeryTightSCF VeryTightOpt Grid5 FinalGrid6 freq
|  2> %maxcore 4000
|  3> %pal nprocs 24
|  4> end
|  5> * xyzfile 0 1 5.xyz 
|  6> 
|  7>                          ****END OF INPUT****
================================================================================

                       *****************************
                       * Geometry Optimization Run *
                       *****************************

Geometry optimization settings:
Update method            Update   .... BFGS
Choice of coordinates    CoordSys .... Z-matrix Internals
Initial Hessian          InHess   .... Almoef's Model

Convergence Tolerances:
Energy Change            TolE     ....  2.0000e-07 Eh
Max. Gradient            TolMAXG  ....  3.0000e-05 Eh/bohr
RMS Gradient             TolRMSG  ....  8.0000e-06 Eh/bohr
Max. Displacement        TolMAXD  ....  2.0000e-04 bohr
RMS Displacement         TolRMSD  ....  1.0000e-04 bohr
Strict Convergence                ....  False
------------------------------------------------------------------------------
                        ORCA OPTIMIZATION COORDINATE SETUP
------------------------------------------------------------------------------

The optimization will be done in new redundant internal coordinates
Making redundant internal coordinates   ...  (new redundants) done
Evaluating the initial hessian          ...  (Almloef) done
Evaluating the coordinates              ...  done
Calculating the B-matrix                .... done
Calculating the G-matrix                .... done
Diagonalizing the G-matrix              .... done
Small eigenvalue found = 1.267e-03
Small eigenvalue found = 2.335e-03
Small eigenvalue found = 2.896e-03
Small eigenvalue found = 4.841e-03
Small eigenvalue found = 5.381e-03
Small eigenvalue found = 6.195e-03
Small eigenvalue found = 7.328e-03
Small eigenvalue found = 8.681e-03
Small eigenvalue found = 1.068e-02
Small eigenvalue found = 1.087e-02
Small eigenvalue found = 1.331e-02
Small eigenvalue found = 1.406e-02
Small eigenvalue found = 1.664e-02
Small eigenvalue found = 1.966e-02
Small eigenvalue found = 2.016e-02
Small eigenvalue found = 2.304e-02
Small eigenvalue found = 2.351e-02
Small eigenvalue found = 2.684e-02
The first mode is                       ....  328
The number of degrees of freedom        ....  339

    -----------------------------------------------------------------
                    Redundant Internal Coordinates


    -----------------------------------------------------------------
         Definition                    Initial Value    Approx d2E/dq
    -----------------------------------------------------------------
      1. B(C   1,O   0)                  1.2493         0.938235   
      2. B(C   2,C   1)                  1.5276         0.376868   
      3. B(C   3,C   2)                  1.5477         0.350053   
      4. B(C   4,C   3)                  1.5356         0.366027   
      5. B(C   5,C   4)                  1.5271         0.377609   
      6. B(N   6,C   2)                  1.4683         0.419785   
      7. B(N   6,C   5)                  1.4714         0.415021   
      8. B(C   7,N   6)                  1.3633         0.617170   
      9. B(O   8,C   7)                  1.2391         0.974318   
     10. B(N   9,C   1)                  1.3494         0.649666   
     11. B(C  10,N   9)                  1.4750         0.409553   
     12. B(C  11,C  10)                  1.5502         0.346883   
     13. B(N  12,C  11)                  1.3660         0.611281   
     14. B(C  13,N  12)                  1.4687         0.419021   
     15. B(C  14,C  13)                  1.5287         0.375396   
     16. B(N  15,C  14)                  1.3605         0.623674   
     17. B(C  16,N  15)                  1.4491         0.450443   
     18. B(C  17,C  16)                  1.5362         0.365110   
     19. B(C  18,C  17)                  1.5699         0.322652   
     20. B(C  19,C  18)                  1.5258         0.379338   
     21. B(N  20,C  19)                  1.3658         0.611642   
     22. B(C  21,N  20)                  1.4624         0.428846   
     23. B(C  22,C  21)                  1.5486         0.348897   
     24. B(N  23,C  22)                  1.3682         0.606271   
     25. B(C  24,C   7)                  1.5371         0.363920   
     26. B(C  24,N  23)                  1.4609         0.431318   
     27. B(C  25,C  24)                  1.5271         0.377512   
     28. B(O  26,C  22)                  1.2289         1.011475   
     29. B(C  27,C  21)                  1.5329         0.369584   
     30. B(C  28,C  27)                  1.5347         0.367210   
     31. B(C  29,C  28)                  1.5335         0.368856   
     32. B(C  30,C  28)                  1.5328         0.369764   
     33. B(O  31,C  19)                  1.2318         1.000450   
     34. B(C  32,C  18)                  1.5405         0.359406   
     35. B(C  33,C  32)                  1.5138         0.396545   
     36. B(C  34,C  33)                  1.5350         0.366748   
     37. B(C  35,C  34)                  1.5328         0.369700   
     38. B(C  36,C  35)                  1.5361         0.365331   
     39. B(C  37,C  36)                  1.5429         0.356333   
     40. B(C  38,C  37)                  1.5354         0.366263   
     41. B(C  39,C  38)                  1.5313         0.371742   
     42. B(C  40,C  39)                  1.5291         0.374832   
     43. B(C  41,C  40)                  1.5298         0.373888   
     44. B(O  42,C  32)                  1.2212         1.040538   
     45. B(O  43,C  17)                  1.4189         0.503191   
     46. B(O  44,C  14)                  1.2382         0.977454   
     47. B(C  45,C  13)                  1.5402         0.359866   
     48. B(C  46,C  45)                  1.5279         0.376455   
     49. B(O  47,C  11)                  1.2272         1.017774   
     50. B(C  48,C  10)                  1.5419         0.357607   
     51. B(C  49,C  48)                  1.5312         0.371872   
     52. B(C  50,C  48)                  1.5309         0.372387   
     53. B(H  51,C   2)                  1.1030         0.343285   
     54. B(H  52,C   3)                  1.0990         0.348439   
     55. B(H  53,C   3)                  1.0967         0.351296   
     56. B(H  54,C   4)                  1.0987         0.348782   
     57. B(H  55,C   4)                  1.0967         0.351363   
     58. B(H  56,C   5)                  1.0931         0.356033   
     59. B(H  57,C   5)                  1.1042         0.341830   
     60. B(H  58,N   9)                  1.0166         0.422281   
     61. B(H  59,C  10)                  1.0993         0.348061   
     62. B(H  60,N  12)                  1.0270         0.406477   
     63. B(H  61,C  13)                  1.1006         0.346409   
     64. B(H  62,N  15)                  1.0159         0.423468   
     65. B(H  63,C  16)                  1.0986         0.348908   
     66. B(H  64,C  16)                  1.0986         0.348876   
     67. B(H  65,C  17)                  1.1032         0.343044   
     68. B(H  66,C  18)                  1.1010         0.345893   
     69. B(H  67,N  20)                  1.0137         0.426810   
     70. B(H  68,C  21)                  1.1022         0.344277   
     71. B(H  69,O  44)                  2.0063         0.011136   
     72. B(H  69,N  23)                  1.0246         0.410094   
     73. B(H  70,C  24)                  1.1027         0.343746   
     74. B(H  71,C  25)                  1.0980         0.349627   
     75. B(H  72,C  25)                  1.0971         0.350865   
     76. B(H  73,C  25)                  1.0970         0.350918   
     77. B(H  74,C  27)                  1.1003         0.346717   
     78. B(H  75,C  27)                  1.0982         0.349467   
     79. B(H  76,C  28)                  1.1046         0.341233   
     80. B(H  77,C  29)                  1.1006         0.346291   
     81. B(H  78,C  29)                  1.0996         0.347578   
     82. B(H  79,C  29)                  1.1017         0.344924   
     83. B(H  80,C  30)                  1.0995         0.347719   
     84. B(H  81,C  30)                  1.1015         0.345227   
     85. B(H  82,C  30)                  1.0998         0.347334   
     86. B(H  83,C  33)                  1.1036         0.342528   
     87. B(H  84,H  54)                  2.1134         0.001606   
     88. B(H  84,C  33)                  1.0952         0.353299   
     89. B(H  85,C  34)                  1.0983         0.349280   
     90. B(H  86,C  34)                  1.1003         0.346684   
     91. B(H  87,C  35)                  1.1017         0.344995   
     92. B(H  88,C  35)                  1.1041         0.341896   
     93. B(H  89,C  36)                  1.1036         0.342496   
     94. B(H  90,C  36)                  1.1011         0.345705   
     95. B(H  91,C  37)                  1.1019         0.344730   
     96. B(H  92,H  60)                  4.9240         0.000000   
     97. B(H  92,C  37)                  1.1039         0.342181   
     98. B(H  93,C  38)                  1.1042         0.341769   
     99. B(H  94,C  38)                  1.1022         0.344279   
    100. B(H  95,C  39)                  1.1040         0.342057   
    101. B(H  96,C  39)                  1.1035         0.342727   
    102. B(H  97,C  40)                  1.1030         0.343308   
    103. B(H  98,C  40)                  1.1030         0.343247   
    104. B(H  99,C  41)                  1.0994         0.347859   
    105. B(H 100,C  41)                  1.1004         0.346629   
    106. B(H 101,C  41)                  1.1011         0.345692   
    107. B(H 102,H  95)                  2.5785         0.000291   
    108. B(H 102,O   0)                  1.7664         0.026883   
    109. B(H 102,O  43)                  0.9866         0.471488   
    110. B(H 103,H 101)                  4.9679         0.000000   
    111. B(H 103,C  45)                  1.1024         0.344083   
    112. B(H 104,C  45)                  1.0984         0.349127   
    113. B(H 105,C  46)                  1.0984         0.349208   
    114. B(H 106,C  46)                  1.0997         0.347456   
    115. B(H 107,C  46)                  1.0996         0.347683   
    116. B(H 108,C  48)                  1.0997         0.347443   
    117. B(H 109,C  49)                  1.0987         0.348760   
    118. B(H 110,C  49)                  1.1009         0.345984   
    119. B(H 111,C  49)                  1.0986         0.348959   
    120. B(H 112,C  50)                  1.0980         0.349621   
    121. B(H 113,H  98)                  2.1450         0.001430   
    122. B(H 113,C  50)                  1.0980         0.349713   
    123. B(H 114,C  50)                  1.1017         0.345008   
    124. A(O   0,C   1,N   9)          123.3070         0.465741   
    125. A(C   2,C   1,N   9)          115.2613         0.398011   
    126. A(O   0,C   1,C   2)          121.3912         0.424816   
    127. A(C   1,C   2,H  51)          108.3755         0.322248   
    128. A(N   6,C   2,H  51)          109.2639         0.326045   
    129. A(C   1,C   2,N   6)          111.0482         0.368927   
    130. A(C   1,C   2,C   3)          112.5725         0.359880   
    131. A(C   3,C   2,H  51)          111.3922         0.318384   
    132. A(C   3,C   2,N   6)          104.1322         0.364290   
    133. A(C   4,C   3,H  53)          112.8259         0.321926   
    134. A(C   4,C   3,H  52)          110.7575         0.321495   
    135. A(C   2,C   3,C   4)          104.3171         0.358097   
    136. A(C   2,C   3,H  53)          111.9117         0.319585   
    137. A(C   2,C   3,H  52)          109.0623         0.319159   
    138. A(H  52,C   3,H  53)          107.9254         0.288222   
    139. A(H  54,C   4,H  55)          108.0845         0.288275   
    140. A(C   3,C   4,H  55)          113.1571         0.321936   
    141. A(C   3,C   4,C   5)          103.5436         0.362752   
    142. A(C   3,C   4,H  54)          110.0051         0.321547   
    143. A(C   5,C   4,H  55)          112.7208         0.323584   
    144. A(C   5,C   4,H  54)          109.2453         0.323193   
    145. A(H  56,C   5,H  57)          108.6954         0.287963   
    146. A(C   4,C   5,N   6)          101.9509         0.368329   
    147. A(C   4,C   5,H  56)          112.6579         0.324286   
    148. A(N   6,C   5,H  57)          110.4704         0.325207   
    149. A(N   6,C   5,H  56)          111.4771         0.327393   
    150. A(C   4,C   5,H  57)          111.4953         0.322128   
    151. A(C   5,N   6,C   7)          129.1432         0.398614   
    152. A(C   2,N   6,C   7)          118.2176         0.399415   
    153. A(C   2,N   6,C   5)          111.9949         0.372750   
    154. A(O   8,C   7,C  24)          121.9413         0.425027   
    155. A(N   6,C   7,O   8)          120.0376         0.464585   
    156. A(N   6,C   7,C  24)          117.9584         0.392035   
    157. A(C   1,N   9,C  10)          126.5041         0.401292   
    158. A(C  10,N   9,H  58)          114.7041         0.333159   
    159. A(C   1,N   9,H  58)          114.0055         0.360036   
    160. A(C  48,C  10,H  59)          107.7911         0.320217   
    161. A(C  11,C  10,H  59)          104.2383         0.318629   
    162. A(N   9,C  10,C  11)          109.5323         0.362193   
    163. A(N   9,C  10,C  48)          113.6256         0.364083   
    164. A(N   9,C  10,H  59)          105.4982         0.325463   
    165. A(C  11,C  10,C  48)          115.2420         0.356132   
    166. A(N  12,C  11,O  47)          124.5982         0.467490   
    167. A(C  10,C  11,O  47)          121.3579         0.424700   
    168. A(C  10,C  11,N  12)          114.0262         0.388114   
    169. A(C  13,N  12,H  60)          116.8042         0.332316   
    170. A(C  11,N  12,C  13)          120.9319         0.398614   
    171. A(C  11,N  12,H  60)          114.2252         0.354028   
    172. A(C  14,C  13,C  45)          111.6385         0.361339   
    173. A(N  12,C  13,H  61)          109.0368         0.326434   
    174. A(C  14,C  13,H  61)          106.3983         0.322520   
    175. A(N  12,C  13,C  14)          107.8919         0.368564   
    176. A(C  45,C  13,H  61)          109.5667         0.320298   
    177. A(N  12,C  13,C  45)          112.1133         0.365904   
    178. A(C  13,C  14,N  15)          115.0261         0.394897   
    179. A(N  15,C  14,O  44)          122.2180         0.465751   
    180. A(C  13,C  14,O  44)          122.7441         0.427643   
    181. A(C  14,N  15,H  62)          118.7225         0.357714   
    182. A(C  16,N  15,H  62)          118.6762         0.338634   
    183. A(C  14,N  15,C  16)          120.9821         0.405156   
    184. A(H  63,C  16,H  64)          109.0711         0.287971   
    185. A(C  17,C  16,H  64)          110.4627         0.321429   
    186. A(N  15,C  16,H  63)          109.4209         0.330745   
    187. A(C  17,C  16,H  63)          108.8301         0.321434   
    188. A(N  15,C  16,C  17)          111.4211         0.371396   
    189. A(N  15,C  16,H  64)          107.5991         0.330740   
    190. A(O  43,C  17,H  65)          108.9016         0.335932   
    191. A(C  18,C  17,H  65)          108.8174         0.314155   
    192. A(C  16,C  17,H  65)          108.1885         0.320544   
    193. A(C  16,C  17,C  18)          108.6702         0.353028   
    194. A(C  18,C  17,O  43)          112.3882         0.370574   
    195. A(C  16,C  17,O  43)          109.7827         0.378564   
    196. A(C  19,C  18,H  66)          109.4190         0.322994   
    197. A(C  17,C  18,H  66)          108.3674         0.314577   
    198. A(C  17,C  18,C  32)          113.4363         0.352089   
    199. A(C  17,C  18,C  19)          105.6441         0.355322   
    200. A(C  19,C  18,C  32)          116.0264         0.361905   
    201. A(C  32,C  18,H  66)          103.7580         0.320153   
    202. A(C  18,C  19,N  20)          113.4687         0.394272   
    203. A(N  20,C  19,O  31)          121.9387         0.466073   
    204. A(C  18,C  19,O  31)          124.2422         0.430236   
    205. A(C  19,N  20,H  67)          118.7786         0.357008   
    206. A(C  19,N  20,C  21)          122.3012         0.400284   
    207. A(C  21,N  20,H  67)          118.9120         0.336313   
    208. A(C  27,C  21,H  68)          109.2504         0.321372   
    209. A(C  22,C  21,H  68)          105.4065         0.318362   
    210. A(N  20,C  21,H  68)          105.4248         0.327349   
    211. A(N  20,C  21,C  22)          111.8833         0.365417   
    212. A(C  22,C  21,C  27)          111.1203         0.358484   
    213. A(N  20,C  21,C  27)          113.2599         0.369044   
    214. A(C  21,C  22,N  23)          115.6156         0.387949   
    215. A(C  21,C  22,O  26)          121.2238         0.424668   
    216. A(N  23,C  22,O  26)          123.1175         0.466255   
    217. A(C  22,N  23,C  24)          119.6632         0.400068   
    218. A(C  24,N  23,H  69)          116.3093         0.334406   
    219. A(C  22,N  23,H  69)          120.7195         0.354065   
    220. A(C  25,C  24,H  70)          109.7406         0.322409   
    221. A(N  23,C  24,H  70)          104.6697         0.327576   
    222. A(C   7,C  24,H  70)          107.8233         0.320480   
    223. A(N  23,C  24,C  25)          111.3666         0.370759   
    224. A(C   7,C  24,N  23)          112.0578         0.368430   
    225. A(C   7,C  24,C  25)          110.9224         0.362378   
    226. A(H  71,C  25,H  73)          109.3913         0.288327   
    227. A(C  24,C  25,H  73)          110.2109         0.323503   
    228. A(H  71,C  25,H  72)          109.0364         0.288320   
    229. A(C  24,C  25,H  72)          110.8424         0.323495   
    230. A(C  24,C  25,H  71)          109.0054         0.323307   
    231. A(H  72,C  25,H  73)          108.3295         0.288486   
    232. A(C  28,C  27,H  75)          109.9714         0.321820   
    233. A(C  21,C  27,C  28)          114.3864         0.361623   
    234. A(H  74,C  27,H  75)          106.5030         0.287764   
    235. A(C  21,C  27,H  75)          108.0555         0.322160   
    236. A(C  28,C  27,H  74)          110.0799         0.321405   
    237. A(C  21,C  27,H  74)          107.5150         0.321744   
    238. A(C  29,C  28,C  30)          110.6567         0.361929   
    239. A(C  27,C  28,C  30)          109.6837         0.361653   
    240. A(C  27,C  28,C  29)          112.5476         0.361501   
    241. A(C  30,C  28,H  76)          107.6582         0.320931   
    242. A(C  29,C  28,H  76)          108.1293         0.320802   
    243. A(C  27,C  28,H  76)          107.9969         0.320567   
    244. A(C  28,C  29,H  79)          110.6837         0.321367   
    245. A(H  78,C  29,H  79)          107.6998         0.287287   
    246. A(H  77,C  29,H  79)          107.5531         0.287121   
    247. A(H  77,C  29,H  78)          107.1430         0.287465   
    248. A(C  28,C  29,H  78)          111.0092         0.321771   
    249. A(C  28,C  29,H  77)          112.5344         0.321575   
    250. A(H  81,C  30,H  82)          107.7702         0.287295   
    251. A(H  80,C  30,H  82)          108.0541         0.287618   
    252. A(C  28,C  30,H  82)          111.2732         0.321863   
    253. A(H  80,C  30,H  81)          107.7120         0.287345   
    254. A(C  28,C  30,H  81)          110.7402         0.321543   
    255. A(C  28,C  30,H  80)          111.1398         0.321922   
    256. A(C  33,C  32,O  42)          121.4804         0.436758   
    257. A(C  18,C  32,O  42)          117.6373         0.429104   
    258. A(C  18,C  32,C  33)          120.8792         0.364659   
    259. A(C  32,C  33,C  34)          111.0586         0.365924   
    260. A(C  34,C  33,H  84)          111.3782         0.322329   
    261. A(H  83,C  33,H  84)          106.9817         0.287707   
    262. A(C  32,C  33,H  84)          110.4011         0.326491   
    263. A(C  34,C  33,H  83)          110.2333         0.320700   
    264. A(C  32,C  33,H  83)          106.5974         0.324833   
    265. A(C  33,C  34,C  35)          114.2797         0.361565   
    266. A(H  85,C  34,H  86)          106.3350         0.287735   
    267. A(C  35,C  34,H  86)          109.8731         0.321755   
    268. A(C  33,C  34,H  86)          109.3231         0.321333   
    269. A(C  35,C  34,H  85)          109.4519         0.322149   
    270. A(C  33,C  34,H  85)          107.2500         0.321726   
    271. A(C  34,C  35,C  36)          110.4404         0.361326   
    272. A(H  87,C  35,H  88)          106.1193         0.286558   
    273. A(C  36,C  35,H  88)          108.9801         0.320400   
    274. A(C  34,C  35,H  88)          110.2024         0.321024   
    275. A(C  36,C  35,H  87)          110.9160         0.320874   
    276. A(C  34,C  35,H  87)          110.0900         0.321498   
    277. A(C  35,C  36,C  37)          112.5016         0.359066   
    278. A(H  89,C  36,H  90)          105.9247         0.286728   
    279. A(C  37,C  36,H  90)          109.3781         0.319676   
    280. A(C  35,C  36,H  90)          110.7659         0.320981   
    281. A(C  37,C  36,H  89)          109.6454         0.319189   
    282. A(C  35,C  36,H  89)          108.4054         0.320492   
    283. A(C  36,C  37,C  38)          114.3446         0.359221   
    284. A(H  91,C  37,H  92)          105.9522         0.286561   
    285. A(C  38,C  37,H  92)          107.8395         0.320578   
    286. A(C  36,C  37,H  92)          109.1633         0.319141   
    287. A(C  38,C  37,H  91)          110.3437         0.320967   
    288. A(C  36,C  37,H  91)          108.8554         0.319528   
    289. A(C  37,C  38,C  39)          112.0088         0.361823   
    290. A(H  93,C  38,H  94)          106.0388         0.286448   
    291. A(C  39,C  38,H  94)          108.7722         0.321679   
    292. A(C  37,C  38,H  94)          110.0771         0.320898   
    293. A(C  39,C  38,H  93)          110.1380         0.321294   
    294. A(C  37,C  38,H  93)          109.6283         0.320514   
    295. A(C  38,C  39,C  40)          114.5322         0.363255   
    296. A(H  95,C  39,H  96)          105.5020         0.286284   
    297. A(C  40,C  39,H  96)          108.9545         0.321877   
    298. A(C  38,C  39,H  96)          109.8686         0.321441   
    299. A(C  40,C  39,H  95)          109.2919         0.321774   
    300. A(C  38,C  39,H  95)          108.3028         0.321338   
    301. A(C  39,C  40,C  41)          112.6228         0.363612   
    302. A(H  97,C  40,H  98)          105.8009         0.286515   
    303. A(C  41,C  40,H  98)          109.5158         0.321824   
    304. A(C  39,C  40,H  98)          109.4251         0.321957   
    305. A(C  41,C  40,H  97)          109.8480         0.321833   
    306. A(C  39,C  40,H  97)          109.3992         0.321966   
    307. A(H 100,C  41,H 101)          107.3382         0.287264   
    308. A(H  99,C  41,H 101)          107.7196         0.287423   
    309. A(C  40,C  41,H 101)          110.8169         0.322198   
    310. A(H  99,C  41,H 100)          107.8548         0.287545   
    311. A(C  40,C  41,H 100)          111.0533         0.322341   
    312. A(C  40,C  41,H  99)          111.8675         0.322528   
    313. A(C  17,O  43,H 102)          107.4567         0.351269   
    314. A(C  13,C  45,C  46)          112.6993         0.361513   
    315. A(C  46,C  45,H 104)          110.6421         0.323083   
    316. A(C  13,C  45,H 104)          106.7428         0.320707   
    317. A(C  46,C  45,H 103)          110.6146         0.322313   
    318. A(C  13,C  45,H 103)          108.7567         0.319945   
    319. A(H 103,C  45,H 104)          107.1578         0.287377   
    320. A(H 106,C  46,H 107)          107.4568         0.287629   
    321. A(H 105,C  46,H 107)          107.8633         0.287855   
    322. A(C  45,C  46,H 107)          110.9516         0.322863   
    323. A(H 105,C  46,H 106)          107.8679         0.287826   
    324. A(C  45,C  46,H 106)          111.8659         0.322829   
    325. A(C  45,C  46,H 105)          110.6664         0.323095   
    326. A(C  50,C  48,H 108)          108.5620         0.322253   
    327. A(C  49,C  48,H 108)          108.7534         0.322180   
    328. A(C  10,C  48,H 108)          108.4157         0.320124   
    329. A(C  49,C  48,C  50)          111.3833         0.362871   
    330. A(C  10,C  48,C  50)          109.9605         0.360457   
    331. A(C  10,C  48,C  49)          109.6999         0.360372   
    332. A(H 110,C  49,H 111)          107.9603         0.287603   
    333. A(H 109,C  49,H 111)          107.9357         0.287963   
    334. A(C  48,C  49,H 111)          110.1398         0.322409   
    335. A(H 109,C  49,H 110)          107.7633         0.287577   
    336. A(C  48,C  49,H 110)          111.1271         0.321958   
    337. A(C  48,C  49,H 109)          111.7695         0.322379   
    338. A(H 113,C  50,H 114)          107.7305         0.287573   
    339. A(H 112,C  50,H 114)          108.0803         0.287561   
    340. A(C  48,C  50,H 114)          110.7332         0.321882   
    341. A(H 112,C  50,H 113)          107.8293         0.288171   
    342. A(C  48,C  50,H 113)          110.5609         0.322597   
    343. A(C  48,C  50,H 112)          111.7577         0.322583   
    344. D(H  51,C   2,C   1,N   9)      4.1558         0.010609   
    345. D(C   3,C   2,C   1,N   9)   -119.5081         0.010609   
    346. D(N   6,C   2,C   1,N   9)    124.1778         0.010609   
    347. D(N   6,C   2,C   1,O   0)    -58.0621         0.010609   
    348. D(C   3,C   2,C   1,O   0)     58.2520         0.010609   
    349. D(H  51,C   2,C   1,O   0)   -178.0841         0.010609   
    350. D(C   4,C   3,C   2,N   6)     17.5800         0.009872   
    351. D(H  53,C   3,C   2,H  51)   -102.4835         0.009872   
    352. D(H  53,C   3,C   2,C   1)     19.4883         0.009872   
    353. D(C   4,C   3,C   2,H  51)    135.2270         0.009872   
    354. D(H  53,C   3,C   2,N   6)    139.8696         0.009872   
    355. D(H  52,C   3,C   2,H  51)     16.8558         0.009872   
    356. D(C   4,C   3,C   2,C   1)   -102.8012         0.009872   
    357. D(H  52,C   3,C   2,C   1)    138.8275         0.009872   
    358. D(H  52,C   3,C   2,N   6)   -100.7912         0.009872   
    359. D(H  55,C   4,C   3,H  53)     82.0142         0.010725   
    360. D(H  55,C   4,C   3,H  52)    -39.0925         0.010725   
    361. D(H  54,C   4,C   3,H  52)   -160.0913         0.010725   
    362. D(H  55,C   4,C   3,C   2)   -156.2986         0.010725   
    363. D(H  54,C   4,C   3,H  53)    -38.9846         0.010725   
    364. D(C   5,C   4,C   3,C   2)    -33.9456         0.010725   
    365. D(H  54,C   4,C   3,C   2)     82.7026         0.010725   
    366. D(C   5,C   4,C   3,H  53)   -155.6328         0.010725   
    367. D(C   5,C   4,C   3,H  52)     83.2605         0.010725   
    368. D(N   6,C   5,C   4,C   3)     36.7885         0.011372   
    369. D(H  57,C   5,C   4,C   3)    -81.0868         0.011372   
    370. D(H  56,C   5,C   4,H  55)    -80.9716         0.011372   
    371. D(H  56,C   5,C   4,C   3)    156.3856         0.011372   
    372. D(H  57,C   5,C   4,H  54)    161.7313         0.011372   
    373. D(H  56,C   5,C   4,H  54)     39.2037         0.011372   
    374. D(H  57,C   5,C   4,H  55)     41.5560         0.011372   
    375. D(N   6,C   5,C   4,H  54)    -80.3934         0.011372   
    376. D(N   6,C   5,C   4,H  55)    159.4313         0.011372   
    377. D(C   5,N   6,C   2,C   3)      6.0698         0.015026   
    378. D(C   7,N   6,C   5,H  57)    -79.0090         0.014690   
    379. D(C   7,N   6,C   5,H  56)     41.9581         0.014690   
    380. D(C   7,N   6,C   5,C   4)    162.3839         0.014690   
    381. D(C   2,N   6,C   5,H  57)     91.4832         0.014690   
    382. D(C   2,N   6,C   5,H  56)   -147.5497         0.014690   
    383. D(C   7,N   6,C   2,H  51)     58.6034         0.015026   
    384. D(C   2,N   6,C   5,C   4)    -27.1239         0.014690   
    385. D(C   7,N   6,C   2,C   3)    177.7100         0.015026   
    386. D(C   5,N   6,C   2,C   1)    127.4707         0.015026   
    387. D(C   7,N   6,C   2,C   1)    -60.8891         0.015026   
    388. D(C   5,N   6,C   2,H  51)   -113.0369         0.015026   
    389. D(C  24,C   7,N   6,C   5)      0.0534         0.030821   
    390. D(C  24,C   7,N   6,C   2)   -169.9369         0.030821   
    391. D(O   8,C   7,N   6,C   5)    177.2298         0.030821   
    392. D(O   8,C   7,N   6,C   2)      7.2396         0.030821   
    393. D(H  58,N   9,C   1,O   0)    165.2869         0.034442   
    394. D(C  10,N   9,C   1,C   2)   -170.9954         0.034442   
    395. D(H  58,N   9,C   1,C   2)    -17.0009         0.034442   
    396. D(C  10,N   9,C   1,O   0)     11.2924         0.034442   
    397. D(H  59,C  10,N   9,C   1)   -177.7573         0.014310   
    398. D(C  48,C  10,N   9,H  58)    146.2672         0.014310   
    399. D(C  48,C  10,N   9,C   1)    -59.8931         0.014310   
    400. D(C  11,C  10,N   9,C   1)     70.5770         0.014310   
    401. D(H  59,C  10,N   9,H  58)     28.4031         0.014310   
    402. D(C  11,C  10,N   9,H  58)    -83.2626         0.014310   
    403. D(O  47,C  11,C  10,N   9)    112.5416         0.009107   
    404. D(N  12,C  11,C  10,H  59)   -178.4883         0.009107   
    405. D(N  12,C  11,C  10,C  48)     63.5980         0.009107   
    406. D(N  12,C  11,C  10,N   9)    -65.9979         0.009107   
    407. D(O  47,C  11,C  10,H  59)      0.0512         0.009107   
    408. D(O  47,C  11,C  10,C  48)   -117.8625         0.009107   
    409. D(H  60,N  12,C  11,O  47)   -166.8028         0.030192   
    410. D(H  60,N  12,C  11,C  10)     11.6820         0.030192   
    411. D(C  13,N  12,C  11,O  47)    -19.0128         0.030192   
    412. D(C  13,N  12,C  11,C  10)    159.4721         0.030192   
    413. D(H  61,C  13,N  12,C  11)    -43.2870         0.014972   
    414. D(H  61,C  13,N  12,H  60)    103.7156         0.014972   
    415. D(C  45,C  13,N  12,H  60)   -134.7768         0.014972   
    416. D(C  45,C  13,N  12,C  11)     78.2206         0.014972   
    417. D(C  14,C  13,N  12,C  11)   -158.4514         0.014972   
    418. D(C  14,C  13,N  12,H  60)    -11.4487         0.014972   
    419. D(O  44,C  14,C  13,C  45)   -105.1256         0.010532   
    420. D(O  44,C  14,C  13,N  12)    131.2580         0.010532   
    421. D(N  15,C  14,C  13,H  61)   -166.8570         0.010532   
    422. D(N  15,C  14,C  13,C  45)     73.6500         0.010532   
    423. D(O  44,C  14,C  13,H  61)     14.3673         0.010532   
    424. D(N  15,C  14,C  13,N  12)    -49.9663         0.010532   
    425. D(H  62,N  15,C  14,O  44)   -174.6541         0.031526   
    426. D(H  62,N  15,C  14,C  13)      6.5631         0.031526   
    427. D(C  16,N  15,C  14,O  44)     -9.3509         0.031526   
    428. D(C  16,N  15,C  14,C  13)    171.8663         0.031526   
    429. D(H  64,C  16,N  15,H  62)   -153.1178         0.017309   
    430. D(H  64,C  16,N  15,C  14)     41.5724         0.017309   
    431. D(H  63,C  16,N  15,H  62)    -34.7388         0.017309   
    432. D(H  63,C  16,N  15,C  14)    159.9513         0.017309   
    433. D(C  17,C  16,N  15,C  14)    -79.6542         0.017309   
    434. D(C  17,C  16,N  15,H  62)     85.6556         0.017309   
    435. D(H  65,C  17,C  16,H  64)    -67.7877         0.010674   
    436. D(H  65,C  17,C  16,H  63)    172.4953         0.010674   
    437. D(H  65,C  17,C  16,N  15)     51.7540         0.010674   
    438. D(O  43,C  17,C  16,H  64)    173.4913         0.010674   
    439. D(O  43,C  17,C  16,H  63)     53.7744         0.010674   
    440. D(O  43,C  17,C  16,N  15)    -66.9669         0.010674   
    441. D(C  18,C  17,C  16,H  64)     50.2074         0.010674   
    442. D(C  18,C  17,C  16,H  63)    -69.5096         0.010674   
    443. D(C  18,C  17,C  16,N  15)    169.7492         0.010674   
    444. D(H  66,C  18,C  17,H  65)    122.7630         0.008518   
    445. D(H  66,C  18,C  17,O  43)   -116.5393         0.008518   
    446. D(H  66,C  18,C  17,C  16)      5.1672         0.008518   
    447. D(C  32,C  18,C  17,O  43)     -1.8910         0.008518   
    448. D(C  32,C  18,C  17,C  16)    119.8155         0.008518   
    449. D(C  32,C  18,C  17,H  65)   -122.5886         0.008518   
    450. D(C  19,C  18,C  17,H  65)      5.5838         0.008518   
    451. D(C  19,C  18,C  17,O  43)    126.2814         0.008518   
    452. D(C  19,C  18,C  17,C  16)   -112.0121         0.008518   
    453. D(O  31,C  19,C  18,H  66)    154.7572         0.010740   
    454. D(O  31,C  19,C  18,C  32)     37.8360         0.010740   
    455. D(O  31,C  19,C  18,C  17)    -88.7753         0.010740   
    456. D(N  20,C  19,C  18,H  66)    -31.9435         0.010740   
    457. D(N  20,C  19,C  18,C  17)     84.5240         0.010740   
    458. D(N  20,C  19,C  18,C  32)   -148.8647         0.010740   
    459. D(H  67,N  20,C  19,O  31)   -176.8439         0.030230   
    460. D(H  67,N  20,C  19,C  18)      9.6828         0.030230   
    461. D(C  21,N  20,C  19,O  31)      2.1020         0.030230   
    462. D(C  21,N  20,C  19,C  18)   -171.3714         0.030230   
    463. D(H  68,C  21,N  20,H  67)     -9.5761         0.015680   
    464. D(H  68,C  21,N  20,C  19)    171.4794         0.015680   
    465. D(C  27,C  21,N  20,H  67)    109.8217         0.015680   
    466. D(C  27,C  21,N  20,C  19)    -69.1228         0.015680   
    467. D(C  22,C  21,N  20,H  67)   -123.6437         0.015680   
    468. D(C  22,C  21,N  20,C  19)     57.4118         0.015680   
    469. D(N  23,C  22,C  21,C  27)    165.5155         0.009203   
    470. D(N  23,C  22,C  21,N  20)     37.8273         0.009203   
    471. D(O  26,C  22,C  21,H  68)    101.4318         0.009203   
    472. D(O  26,C  22,C  21,C  27)    -16.8011         0.009203   
    473. D(O  26,C  22,C  21,N  20)   -144.4893         0.009203   
    474. D(N  23,C  22,C  21,H  68)    -76.2516         0.009203   
    475. D(H  69,N  23,C  22,O  26)   -167.5124         0.029662   
    476. D(H  69,N  23,C  22,C  21)     10.1223         0.029662   
    477. D(C  24,N  23,C  22,O  26)     -8.8038         0.029662   
    478. D(C  24,N  23,C  22,C  21)    168.8309         0.029662   
    479. D(H  70,C  24,N  23,H  69)    179.5744         0.015861   
    480. D(H  70,C  24,N  23,C  22)     19.9536         0.015861   
    481. D(C  25,C  24,N  23,H  69)     61.0634         0.015861   
    482. D(C  25,C  24,N  23,C  22)    -98.5574         0.015861   
    483. D(C   7,C  24,N  23,H  69)    -63.8450         0.015861   
    484. D(C   7,C  24,N  23,C  22)    136.5342         0.015861   
    485. D(H  70,C  24,C   7,O   8)   -126.1744         0.009942   
    486. D(H  70,C  24,C   7,N   6)     50.9451         0.009942   
    487. D(C  25,C  24,C   7,O   8)     -5.9921         0.009942   
    488. D(C  25,C  24,C   7,N   6)    171.1274         0.009942   
    489. D(N  23,C  24,C   7,O   8)    119.1614         0.009942   
    490. D(N  23,C  24,C   7,N   6)    -63.7191         0.009942   
    491. D(H  73,C  25,C  24,H  70)   -176.1466         0.011366   
    492. D(H  73,C  25,C  24,N  23)    -60.7230         0.011366   
    493. D(H  73,C  25,C  24,C   7)     64.8185         0.011366   
    494. D(H  72,C  25,C  24,H  70)     63.9369         0.011366   
    495. D(H  72,C  25,C  24,N  23)    179.3605         0.011366   
    496. D(H  72,C  25,C  24,C   7)    -55.0980         0.011366   
    497. D(H  71,C  25,C  24,H  70)    -56.0803         0.011366   
    498. D(H  71,C  25,C  24,N  23)     59.3433         0.011366   
    499. D(H  71,C  25,C  24,C   7)   -175.1151         0.011366   
    500. D(H  75,C  27,C  21,H  68)   -174.3770         0.010921   
    501. D(H  75,C  27,C  21,C  22)    -58.4925         0.010921   
    502. D(H  75,C  27,C  21,N  20)     68.4448         0.010921   
    503. D(H  74,C  27,C  21,H  68)    -59.7832         0.010921   
    504. D(H  74,C  27,C  21,C  22)     56.1013         0.010921   
    505. D(H  74,C  27,C  21,N  20)   -176.9614         0.010921   
    506. D(C  28,C  27,C  21,H  68)     62.7884         0.010921   
    507. D(C  28,C  27,C  21,C  22)    178.6730         0.010921   
    508. D(C  28,C  27,C  21,N  20)    -54.3897         0.010921   
    509. D(H  76,C  28,C  27,H  75)    -63.3215         0.010790   
    510. D(H  76,C  28,C  27,H  74)    179.6365         0.010790   
    511. D(H  76,C  28,C  27,C  21)     58.4692         0.010790   
    512. D(C  30,C  28,C  27,H  75)     53.7402         0.010790   
    513. D(C  30,C  28,C  27,H  74)    -63.3019         0.010790   
    514. D(C  30,C  28,C  27,C  21)    175.5308         0.010790   
    515. D(C  29,C  28,C  27,H  75)    177.3954         0.010790   
    516. D(C  29,C  28,C  27,H  74)     60.3533         0.010790   
    517. D(C  29,C  28,C  27,C  21)    -60.8139         0.010790   
    518. D(H  79,C  29,C  28,C  30)     64.6774         0.010880   
    519. D(H  79,C  29,C  28,C  27)    -58.4355         0.010880   
    520. D(H  78,C  29,C  28,H  76)     62.8131         0.010880   
    521. D(H  78,C  29,C  28,C  30)    -54.8680         0.010880   
    522. D(H  78,C  29,C  28,C  27)   -177.9809         0.010880   
    523. D(H  77,C  29,C  28,H  76)    -57.2661         0.010880   
    524. D(H  77,C  29,C  28,C  30)   -174.9472         0.010880   
    525. D(H  79,C  29,C  28,H  76)   -177.6415         0.010880   
    526. D(H  77,C  29,C  28,C  27)     61.9400         0.010880   
    527. D(H  82,C  30,C  28,H  76)    -59.9554         0.010931   
    528. D(H  82,C  30,C  28,C  29)     58.0139         0.010931   
    529. D(H  82,C  30,C  28,C  27)   -177.2293         0.010931   
    530. D(H  81,C  30,C  28,H  76)   -179.7999         0.010931   
    531. D(H  81,C  30,C  28,C  29)    -61.8305         0.010931   
    532. D(H  81,C  30,C  28,C  27)     62.9263         0.010931   
    533. D(H  80,C  30,C  28,H  76)     60.5168         0.010931   
    534. D(H  80,C  30,C  28,C  29)    178.4861         0.010931   
    535. D(H  80,C  30,C  28,C  27)    -56.7571         0.010931   
    536. D(O  42,C  32,C  18,H  66)     10.1580         0.009716   
    537. D(O  42,C  32,C  18,C  19)    130.1900         0.009716   
    538. D(O  42,C  32,C  18,C  17)   -107.2113         0.009716   
    539. D(C  33,C  32,C  18,H  66)   -170.4792         0.009716   
    540. D(C  33,C  32,C  18,C  19)    -50.4472         0.009716   
    541. D(C  33,C  32,C  18,C  17)     72.1515         0.009716   
    542. D(H  84,C  33,C  32,O  42)   -177.7043         0.011679   
    543. D(H  84,C  33,C  32,C  18)      2.9576         0.011679   
    544. D(H  83,C  33,C  32,O  42)    -61.8543         0.011679   
    545. D(H  83,C  33,C  32,C  18)    118.8076         0.011679   
    546. D(C  34,C  33,C  32,O  42)     58.2432         0.011679   
    547. D(C  34,C  33,C  32,C  18)   -121.0949         0.011679   
    548. D(H  86,C  34,C  33,H  84)   -179.0293         0.010764   
    549. D(H  86,C  34,C  33,H  83)     62.3792         0.010764   
    550. D(H  86,C  34,C  33,C  32)    -55.5343         0.010764   
    551. D(H  85,C  34,C  33,H  84)    -64.1341         0.010764   
    552. D(H  85,C  34,C  33,H  83)    177.2744         0.010764   
    553. D(H  85,C  34,C  33,C  32)     59.3609         0.010764   
    554. D(C  35,C  34,C  33,H  84)     57.3730         0.010764   
    555. D(C  35,C  34,C  33,H  83)    -61.2185         0.010764   
    556. D(C  35,C  34,C  33,C  32)   -179.1321         0.010764   
    557. D(H  88,C  35,C  34,H  86)   -159.1343         0.010927   
    558. D(H  88,C  35,C  34,H  85)     84.4534         0.010927   
    559. D(H  88,C  35,C  34,C  33)    -35.8330         0.010927   
    560. D(H  87,C  35,C  34,H  86)    -42.4168         0.010927   
    561. D(H  87,C  35,C  34,H  85)   -158.8290         0.010927   
    562. D(H  87,C  35,C  34,C  33)     80.8846         0.010927   
    563. D(C  36,C  35,C  34,H  86)     80.4020         0.010927   
    564. D(C  36,C  35,C  34,H  85)    -36.0102         0.010927   
    565. D(C  36,C  35,C  34,C  33)   -156.2966         0.010927   
    566. D(H  90,C  36,C  35,H  87)    -37.1775         0.010686   
    567. D(H  90,C  36,C  35,C  34)   -159.5129         0.010686   
    568. D(H  89,C  36,C  35,H  88)   -164.8927         0.010686   
    569. D(H  89,C  36,C  35,H  87)     78.6353         0.010686   
    570. D(H  89,C  36,C  35,C  34)    -43.7001         0.010686   
    571. D(C  37,C  36,C  35,H  88)    -43.4689         0.010686   
    572. D(C  37,C  36,C  35,H  87)   -159.9408         0.010686   
    573. D(H  90,C  36,C  35,H  88)     79.2945         0.010686   
    574. D(C  37,C  36,C  35,C  34)     77.7238         0.010686   
    575. D(H  92,C  37,C  36,H  90)   -145.8012         0.010202   
    576. D(H  92,C  37,C  36,H  89)     98.4527         0.010202   
    577. D(H  92,C  37,C  36,C  35)    -22.2614         0.010202   
    578. D(H  91,C  37,C  36,H  90)    -30.5785         0.010202   
    579. D(H  91,C  37,C  36,H  89)   -146.3246         0.010202   
    580. D(H  91,C  37,C  36,C  35)     92.9612         0.010202   
    581. D(C  38,C  37,C  36,H  90)     93.3208         0.010202   
    582. D(C  38,C  37,C  36,H  89)    -22.4254         0.010202   
    583. D(C  38,C  37,C  36,C  35)   -143.1395         0.010202   
    584. D(H  94,C  38,C  37,H  92)     80.0929         0.010738   
    585. D(H  94,C  38,C  37,H  91)    -35.2003         0.010738   
    586. D(H  94,C  38,C  37,C  36)   -158.2989         0.010738   
    587. D(H  93,C  38,C  37,H  92)   -163.6333         0.010738   
    588. D(H  93,C  38,C  37,H  91)     81.0735         0.010738   
    589. D(H  93,C  38,C  37,C  36)    -42.0250         0.010738   
    590. D(C  39,C  38,C  37,H  92)    -41.0579         0.010738   
    591. D(C  39,C  38,C  37,H  91)   -156.3511         0.010738   
    592. D(C  39,C  38,C  37,C  36)     80.5503         0.010738   
    593. D(H  95,C  39,C  38,H  94)    -57.7998         0.011041   
    594. D(H  95,C  39,C  38,H  93)   -173.6136         0.011041   
    595. D(H  95,C  39,C  38,C  37)     64.1012         0.011041   
    596. D(C  40,C  39,C  38,H  94)     64.4412         0.011041   
    597. D(C  40,C  39,C  38,H  93)    -51.3726         0.011041   
    598. D(C  40,C  39,C  38,C  37)   -173.6578         0.011041   
    599. D(H  96,C  39,C  38,H  94)   -172.5628         0.011041   
    600. D(H  96,C  39,C  38,H  93)     71.6234         0.011041   
    601. D(H  96,C  39,C  38,C  37)    -50.6618         0.011041   
    602. D(H  98,C  40,C  39,H  95)     70.3278         0.011214   
    603. D(H  98,C  40,C  39,C  38)    -51.3738         0.011214   
    604. D(H  97,C  40,C  39,H  96)    -59.3753         0.011214   
    605. D(H  97,C  40,C  39,H  95)   -174.1862         0.011214   
    606. D(H  97,C  40,C  39,C  38)     64.1122         0.011214   
    607. D(C  41,C  40,C  39,H  96)     63.0849         0.011214   
    608. D(C  41,C  40,C  39,H  95)    -51.7260         0.011214   
    609. D(H  98,C  40,C  39,H  96)   -174.8613         0.011214   
    610. D(C  41,C  40,C  39,C  38)   -173.4276         0.011214   
    611. D(H 101,C  41,C  40,H  98)    -61.5789         0.011161   
    612. D(H 101,C  41,C  40,H  97)   -177.3690         0.011161   
    613. D(H 101,C  41,C  40,C  39)     60.4236         0.011161   
    614. D(H 100,C  41,C  40,H  98)    179.2132         0.011161   
    615. D(H 100,C  41,C  40,H  97)     63.4231         0.011161   
    616. D(H 100,C  41,C  40,C  39)    -58.7843         0.011161   
    617. D(H  99,C  41,C  40,H  98)     58.6496         0.011161   
    618. D(H  99,C  41,C  40,H  97)    -57.1405         0.011161   
    619. D(H  99,C  41,C  40,C  39)   -179.3479         0.011161   
    620. D(H 102,O  43,C  17,H  65)    -15.4920         0.020026   
    621. D(H 102,O  43,C  17,C  18)   -136.1411         0.020026   
    622. D(H 102,O  43,C  17,C  16)    102.7883         0.020026   
    623. D(H 104,C  45,C  13,H  61)     64.2882         0.010390   
    624. D(H 104,C  45,C  13,C  14)   -178.1096         0.010390   
    625. D(H 104,C  45,C  13,N  12)    -56.9149         0.010390   
    626. D(H 103,C  45,C  13,H  61)    179.5971         0.010390   
    627. D(H 103,C  45,C  13,C  14)    -62.8007         0.010390   
    628. D(H 103,C  45,C  13,N  12)     58.3940         0.010390   
    629. D(C  46,C  45,C  13,H  61)    -57.3719         0.010390   
    630. D(C  46,C  45,C  13,C  14)     60.2303         0.010390   
    631. D(C  46,C  45,C  13,N  12)   -178.5750         0.010390   
    632. D(H 107,C  46,C  45,H 104)    -60.9446         0.011306   
    633. D(H 107,C  46,C  45,H 103)   -179.5331         0.011306   
    634. D(H 107,C  46,C  45,C  13)     58.4790         0.011306   
    635. D(H 106,C  46,C  45,H 104)    179.0696         0.011306   
    636. D(H 106,C  46,C  45,H 103)     60.4811         0.011306   
    637. D(H 106,C  46,C  45,C  13)    -61.5068         0.011306   
    638. D(H 105,C  46,C  45,H 104)     58.7570         0.011306   
    639. D(H 105,C  46,C  45,H 103)    -59.8315         0.011306   
    640. D(H 105,C  46,C  45,C  13)    178.1806         0.011306   
    641. D(H 108,C  48,C  10,H  59)    177.6432         0.010270   
    642. D(H 108,C  48,C  10,C  11)    -66.4528         0.010270   
    643. D(H 108,C  48,C  10,N   9)     61.1131         0.010270   
    644. D(C  50,C  48,C  10,H  59)     59.0959         0.010270   
    645. D(C  50,C  48,C  10,C  11)    175.0000         0.010270   
    646. D(C  50,C  48,C  10,N   9)    -57.4341         0.010270   
    647. D(C  49,C  48,C  10,H  59)    -63.7283         0.010270   
    648. D(C  49,C  48,C  10,C  11)     52.1758         0.010270   
    649. D(C  49,C  48,C  10,N   9)    179.7417         0.010270   
    650. D(H 111,C  49,C  48,C  50)     58.0959         0.011048   
    651. D(H 111,C  49,C  48,C  10)   -179.9259         0.011048   
    652. D(H 110,C  49,C  48,H 108)    178.9019         0.011048   
    653. D(H 110,C  49,C  48,C  50)    -61.4960         0.011048   
    654. D(H 110,C  49,C  48,C  10)     60.4822         0.011048   
    655. D(H 109,C  49,C  48,H 108)     58.4708         0.011048   
    656. D(H 109,C  49,C  48,C  50)    178.0729         0.011048   
    657. D(H 111,C  49,C  48,H 108)    -61.5062         0.011048   
    658. D(H 109,C  49,C  48,C  10)    -59.9489         0.011048   
    659. D(H 114,C  50,C  48,H 108)   -178.2128         0.011077   
    660. D(H 114,C  50,C  48,C  49)     62.0717         0.011077   
    661. D(H 114,C  50,C  48,C  10)    -59.7556         0.011077   
    662. D(H 113,C  50,C  48,H 108)     62.4620         0.011077   
    663. D(H 113,C  50,C  48,C  49)    -57.2536         0.011077   
    664. D(H 113,C  50,C  48,C  10)   -179.0809         0.011077   
    665. D(H 112,C  50,C  48,H 108)    -57.6574         0.011077   
    666. D(H 112,C  50,C  48,C  49)   -177.3729         0.011077   
    667. D(H 112,C  50,C  48,C  10)     60.7998         0.011077   
    -----------------------------------------------------------------

Number of atoms                         .... 115
Number of degrees of freedom            .... 667

         *************************************************************
         *                GEOMETRY OPTIMIZATION CYCLE   1            *
         *************************************************************
---------------------------------
CARTESIAN COORDINATES (ANGSTROEM)
---------------------------------
  O     -1.257146    1.339901   -0.273923
  C     -1.293850    1.612170   -1.492667
  C     -1.120245    0.528814   -2.555586
  C     -2.175525   -0.596840   -2.434461
  C     -1.418065   -1.758000   -1.774238
  C     -0.003037   -1.625511   -2.332897
  N      0.163904   -0.165037   -2.396523
  C      1.309425    0.566393   -2.503740
  O      1.250917    1.800670   -2.595353
  N     -1.532945    2.852209   -1.968009
  C     -1.555198    4.102530   -1.185869
  C     -0.114189    4.461394   -0.741162
  N      0.432646    3.574016    0.141650
  C      1.887651    3.489244    0.323312
  C      2.207971    2.116215    0.914105
  N      1.468690    1.771480    2.002936
  C      1.539304    0.435625    2.559979
  C      0.686075   -0.554643    1.752887
  C      1.010617   -2.011211    2.240368
  C      1.723049   -2.686834    1.072403
  N      3.064810   -2.434608    1.034359
  C      3.902292   -2.828822   -0.097874
  C      3.397910   -2.218756   -1.428885
  N      2.913994   -0.941538   -1.348309
  C      2.644759   -0.191806   -2.572879
  C      3.793656    0.756627   -2.908566
  O      3.477208   -2.841281   -2.485429
  C      4.081606   -4.346415   -0.218758
  C      4.611096   -5.025109    1.051774
  C      5.993290   -4.504506    1.464099
  C      4.643466   -6.544270    0.850400
  O      1.148623   -3.296074    0.168903
  C     -0.213891   -2.754886    2.806710
  C     -1.316051   -3.245694    1.892484
  C     -2.667778   -2.628519    2.277473
  C     -3.842788   -3.092992    1.409596
  C     -4.975194   -2.055566    1.440069
  C     -4.686378   -0.839458    0.535586
  C     -5.173964    0.501327    1.102990
  C     -4.202906    1.072735    2.140071
  C     -4.703401    2.328840    2.854079
  C     -3.640755    2.953662    3.759940
  O     -0.266388   -2.921468    4.015310
  O     -0.688165   -0.230974    1.894460
  O      3.089804    1.378528    0.454458
  C      2.428879    4.628286    1.207506
  C      3.946359    4.572977    1.376928
  O      0.464202    5.448238   -1.185643
  C     -2.611103    4.109829   -0.062286
  C     -2.552124    5.440624    0.692837
  C     -4.002530    3.863392   -0.651146
  H     -1.154704    1.007421   -3.548760
  H     -2.518269   -0.877237   -3.440254
  H     -3.050957   -0.276687   -1.856573
  H     -1.391818   -1.618470   -0.684757
  H     -1.865207   -2.737750   -1.981300
  H      0.749288   -2.086595   -1.687716
  H      0.076772   -2.067610   -3.341549
  H     -1.301882    2.970010   -2.951009
  H     -1.821667    4.892483   -1.902342
  H     -0.098677    2.701275    0.245550
  H      2.375186    3.524627   -0.662726
  H      0.704438    2.377924    2.286040
  H      1.177039    0.452655    3.596987
  H      2.594020    0.128225    2.553195
  H      0.966826   -0.464341    0.689829
  H      1.696796   -1.944941    3.098782
  H      3.497047   -1.971850    1.825996
  H      4.883028   -2.360500    0.085829
  H      3.036762   -0.388182   -0.494756
  H      2.555697   -0.961337   -3.357565
  H      4.714293    0.171986   -3.036236
  H      3.587688    1.306684   -3.835163
  H      3.933387    1.484031   -2.099348
  H      4.765905   -4.533044   -1.059939
  H      3.113942   -4.782049   -0.501251
  H      3.904089   -4.810954    1.873070
  H      5.985286   -3.430179    1.703213
  H      6.363627   -5.032099    2.354993
  H      6.724733   -4.659359    0.654902
  H      3.649721   -6.929771    0.580562
  H      5.339354   -6.815705    0.040879
  H      4.973037   -7.060921    1.763674
  H     -1.352157   -4.343150    2.003215
  H     -1.065592   -3.037778    0.846787
  H     -2.562583   -1.538192    2.197517
  H     -2.877333   -2.842394    3.336285
  H     -4.201150   -4.076577    1.752819
  H     -3.513100   -3.234156    0.365345
  H     -5.111354   -1.718852    2.482237
  H     -5.931737   -2.512910    1.142924
  H     -5.130783   -1.019931   -0.456412
  H     -3.597708   -0.760994    0.370591
  H     -6.175358    0.372685    1.550167
  H     -5.295768    1.234706    0.289214
  H     -3.247688    1.296984    1.634035
  H     -3.963760    0.303208    2.893902
  H     -5.600922    2.081070    3.445411
  H     -5.031787    3.069852    2.105897
  H     -4.017140    3.848707    4.275634
  H     -3.304740    2.239027    4.526245
  H     -2.754960    3.250358    3.177021
  H     -0.971052    0.227100    1.067662
  H      1.927023    4.584879    2.188072
  H      2.126613    5.570283    0.730209
  H      4.299524    5.416707    1.985032
  H      4.270013    3.643978    1.868471
  H      4.452916    4.624273    0.402359
  H     -2.378243    3.294993    0.638603
  H     -1.565791    5.608060    1.147014
  H     -2.760744    6.287556    0.021172
  H     -3.301097    5.453079    1.496396
  H     -4.064851    2.889491   -1.154455
  H     -4.764627    3.882833    0.139020
  H     -4.259579    4.644296   -1.384465

----------------------------
CARTESIAN COORDINATES (A.U.)
----------------------------
  NO LB      ZA    FRAG     MASS         X           Y           Z
   0 O     8.0000    0    15.999   -2.375661    2.532045   -0.517639
   1 C     6.0000    0    12.011   -2.445022    3.046560   -2.820732
   2 C     6.0000    0    12.011   -2.116956    0.999314   -4.829357
   3 C     6.0000    0    12.011   -4.111146   -1.127865   -4.600464
   4 C     6.0000    0    12.011   -2.679755   -3.322139   -3.352823
   5 C     6.0000    0    12.011   -0.005738   -3.071770   -4.408537
   6 N     7.0000    0    14.007    0.309734   -0.311874   -4.528772
   7 C     6.0000    0    12.011    2.474455    1.070328   -4.731382
   8 O     8.0000    0    15.999    2.363891    3.402772   -4.904506
   9 N     7.0000    0    14.007   -2.896846    5.389894   -3.718998
  10 C     6.0000    0    12.011   -2.938898    7.752658   -2.240968
  11 C     6.0000    0    12.011   -0.215786    8.430814   -1.400594
  12 N     7.0000    0    14.007    0.817583    6.753911    0.267681
  13 C     6.0000    0    12.011    3.567143    6.593715    0.610971
  14 C     6.0000    0    12.011    4.172460    3.999066    1.727408
  15 N     7.0000    0    14.007    2.775422    3.347611    3.785000
  16 C     6.0000    0    12.011    2.908864    0.823212    4.837659
  17 C     6.0000    0    12.011    1.296493   -1.048123    3.312476
  18 C     6.0000    0    12.011    1.909790   -3.800637    4.233681
  19 C     6.0000    0    12.011    3.256090   -5.077380    2.026549
  20 N     7.0000    0    14.007    5.791652   -4.600743    1.954656
  21 C     6.0000    0    12.011    7.374263   -5.345699   -0.184955
  22 C     6.0000    0    12.011    6.421119   -4.192842   -2.700202
  23 N     7.0000    0    14.007    5.506651   -1.779249   -2.547935
  24 C     6.0000    0    12.011    4.997869   -0.362460   -4.862037
  25 C     6.0000    0    12.011    7.168970    1.429818   -5.496394
  26 O     8.0000    0    15.999    6.570971   -5.369244   -4.696780
  27 C     6.0000    0    12.011    7.713118   -8.213534   -0.413393
  28 C     6.0000    0    12.011    8.713709   -9.496080    1.987564
  29 C     6.0000    0    12.011   11.325677   -8.512282    2.766746
  30 C     6.0000    0    12.011    8.774878  -12.366878    1.607022
  31 O     8.0000    0    15.999    2.170583   -6.228678    0.319181
  32 C     6.0000    0    12.011   -0.404196   -5.205980    5.303914
  33 C     6.0000    0    12.011   -2.486976   -6.133473    3.576276
  34 C     6.0000    0    12.011   -5.041370   -4.967182    4.303800
  35 C     6.0000    0    12.011   -7.261817   -5.844907    2.663750
  36 C     6.0000    0    12.011   -9.401754   -3.884457    2.721336
  37 C     6.0000    0    12.011   -8.855972   -1.586346    1.012110
  38 C     6.0000    0    12.011   -9.777375    0.947371    2.084348
  39 C     6.0000    0    12.011   -7.942341    2.027176    4.044148
  40 C     6.0000    0    12.011   -8.888140    4.400870    5.393428
  41 C     6.0000    0    12.011   -6.880029    5.581612    7.105256
  42 O     8.0000    0    15.999   -0.503400   -5.520774    7.587835
  43 O     8.0000    0    15.999   -1.300444   -0.436478    3.580010
  44 O     8.0000    0    15.999    5.838884    2.605040    0.858802
  45 C     6.0000    0    12.011    4.589916    8.746193    2.281855
  46 C     6.0000    0    12.011    7.457538    8.641674    2.602017
  47 O     8.0000    0    15.999    0.877215   10.295678   -2.240541
  48 C     6.0000    0    12.011   -4.934271    7.766451   -0.117704
  49 C     6.0000    0    12.011   -4.822815   10.281290    1.309272
  50 C     6.0000    0    12.011   -7.563685    7.300754   -1.230487
  51 H     1.0000    0     1.008   -2.182074    1.903750   -6.706184
  52 H     1.0000    0     1.008   -4.758839   -1.657737   -6.501137
  53 H     1.0000    0     1.008   -5.765474   -0.522863   -3.508414
  54 H     1.0000    0     1.008   -2.630155   -3.058464   -1.294003
  55 H     1.0000    0     1.008   -3.524731   -5.173598   -3.744114
  56 H     1.0000    0     1.008    1.415949   -3.943093   -3.189321
  57 H     1.0000    0     1.008    0.145078   -3.907216   -6.314613
  58 H     1.0000    0     1.008   -2.460200    5.612506   -5.576599
  59 H     1.0000    0     1.008   -3.442452    9.245453   -3.594905
  60 H     1.0000    0     1.008   -0.186472    5.104670    0.464023
  61 H     1.0000    0     1.008    4.488452    6.660580   -1.252371
  62 H     1.0000    0     1.008    1.331196    4.493625    4.319990
  63 H     1.0000    0     1.008    2.224281    0.855395    6.797320
  64 H     1.0000    0     1.008    4.901987    0.242310    4.824840
  65 H     1.0000    0     1.008    1.827036   -0.877478    1.303588
  66 H     1.0000    0     1.008    3.206479   -3.675405    5.855849
  67 H     1.0000    0     1.008    6.608460   -3.726257    3.450631
  68 H     1.0000    0     1.008    9.227586   -4.460699    0.162194
  69 H     1.0000    0     1.008    5.738648   -0.733557   -0.934953
  70 H     1.0000    0     1.008    4.829567   -1.816664   -6.344878
  71 H     1.0000    0     1.008    8.908723    0.325006   -5.737654
  72 H     1.0000    0     1.008    6.779747    2.469275   -7.247408
  73 H     1.0000    0     1.008    7.433025    2.804412   -3.967192
  74 H     1.0000    0     1.008    9.006255   -8.566212   -2.002995
  75 H     1.0000    0     1.008    5.884498   -9.036763   -0.947228
  76 H     1.0000    0     1.008    7.377658   -9.091385    3.539590
  77 H     1.0000    0     1.008   11.310551   -6.482099    3.218606
  78 H     1.0000    0     1.008   12.025512   -9.509289    4.450292
  79 H     1.0000    0     1.008   12.707904   -8.804912    1.237586
  80 H     1.0000    0     1.008    6.896973  -13.095370    1.097103
  81 H     1.0000    0     1.008   10.089917  -12.879815    0.077250
  82 H     1.0000    0     1.008    9.397679  -13.343208    3.332860
  83 H     1.0000    0     1.008   -2.555207   -8.207363    3.785527
  84 H     1.0000    0     1.008   -2.013677   -5.740568    1.600195
  85 H     1.0000    0     1.008   -4.842580   -2.906762    4.152704
  86 H     1.0000    0     1.008   -5.437371   -5.371345    6.304665
  87 H     1.0000    0     1.008   -7.939023   -7.703614    3.312347
  88 H     1.0000    0     1.008   -6.638797   -6.111670    0.690401
  89 H     1.0000    0     1.008   -9.659060   -3.248159    4.690748
  90 H     1.0000    0     1.008  -11.209358   -4.748712    2.159814
  91 H     1.0000    0     1.008   -9.695775   -1.927391   -0.862495
  92 H     1.0000    0     1.008   -6.798683   -1.438070    0.700316
  93 H     1.0000    0     1.008  -11.669736    0.704273    2.929392
  94 H     1.0000    0     1.008  -10.007552    2.333257    0.546535
  95 H     1.0000    0     1.008   -6.137242    2.450944    3.087879
  96 H     1.0000    0     1.008   -7.490421    0.572979    5.468682
  97 H     1.0000    0     1.008  -10.584208    3.932652    6.510883
  98 H     1.0000    0     1.008   -9.508700    5.801180    3.979568
  99 H     1.0000    0     1.008   -7.591295    7.273002    8.079777
 100 H     1.0000    0     1.008   -6.245053    4.231147    8.553364
 101 H     1.0000    0     1.008   -5.206120    6.142286    6.003700
 102 H     1.0000    0     1.008   -1.835022    0.429156    2.017589
 103 H     1.0000    0     1.008    3.641547    8.664166    4.134857
 104 H     1.0000    0     1.008    4.018717   10.526309    1.379896
 105 H     1.0000    0     1.008    8.124922   10.236093    3.751166
 106 H     1.0000    0     1.008    8.069155    6.886121    3.530899
 107 H     1.0000    0     1.008    8.414792    8.738610    0.760349
 108 H     1.0000    0     1.008   -4.494228    6.226634    1.206785
 109 H     1.0000    0     1.008   -2.958916   10.597697    2.167542
 110 H     1.0000    0     1.008   -5.217050   11.881759    0.040010
 111 H     1.0000    0     1.008   -6.238169   10.304827    2.827779
 112 H     1.0000    0     1.008   -7.681455    5.460347   -2.181604
 113 H     1.0000    0     1.008   -9.003840    7.337491    0.262710
 114 H     1.0000    0     1.008   -8.049438    8.776447   -2.616259

--------------------------------
INTERNAL COORDINATES (ANGSTROEM)
--------------------------------
 O      0   0   0     0.000000000000     0.00000000     0.00000000
 C      1   0   0     1.249326151325     0.00000000     0.00000000
 C      2   1   0     1.527610682631   121.39122659     0.00000000
 C      3   2   1     1.547702995331   112.57250447    58.25202109
 C      4   3   2     1.535555944519   104.31712732   257.19875130
 C      5   4   3     1.527076058015   103.54364751   326.05438862
 N      3   2   1     1.468253531487   111.04819084   301.93794644
 C      7   3   2     1.363343072747   118.21761271   299.11094404
 O      8   7   3     1.239053671184   120.03755906     7.23955649
 N      2   1   3     1.349374893372   123.30702269   177.57610326
 C     10   2   1     1.474970951171   126.50409207    11.29242855
 C     11  10   2     1.550178818331   109.53227023    70.57703434
 N     12  11  10     1.365953207844   114.02621959   294.00207146
 C     13  12  11     1.468749127163   120.93185595   159.47210529
 C     14  13  12     1.528676110183   107.89185324   201.54862898
 N     15  14  13     1.360489399846   115.02611451   310.03369847
 C     16  15  14     1.449065442861   120.98208989   171.86626274
 C     17  16  15     1.536238614338   111.42106805   280.34575402
 C     18  17  16     1.569890349973   108.67016754   169.74915358
 C     19  18  17     1.525832899707   105.64414521   247.98792251
 N     20  19  18     1.365792441441   113.46871698    84.52396308
 C     21  20  19     1.462440646037   122.30117051   188.62861421
 C     22  21  20     1.548603461363   111.88330056    57.41177689
 N     23  22  21     1.368193393434   115.61558022    37.82730372
 C     24  23  22     1.460875905283   119.66320697   168.83085127
 C     25  24  23     1.527146002345   111.36661699   261.44262559
 O     23  22  21     1.228865535058   121.22377618   215.51069624
 C     22  21  20     1.532923482494   113.25993435   290.87722952
 C     28  22  21     1.534677984219   114.38644516   305.61028888
 C     29  28  22     1.533460196967   112.54757284   299.18605518
 C     29  28  22     1.532791156221   109.68370467   175.53081851
 O     20  19  18     1.231848847837   124.24219608   271.22466622
 C     19  18  17     1.540525169402   113.43626805   119.81554078
 C     33  19  18     1.513756455667   120.87918334    72.15149413
 C     34  33  19     1.535020442621   111.05855229   238.90506963
 C     35  34  33     1.532838345681   114.27972043   180.86793782
 C     36  35  34     1.536074019367   110.44035906   203.70338436
 C     37  36  35     1.542862279974   112.50161917    77.72375365
 C     38  37  36     1.535380285201   114.34464682   216.86050755
 C     39  38  37     1.531338933871   112.00880359    80.55033622
 C     40  39  38     1.529085416121   114.53223474   186.34216943
 C     41  40  39     1.529772167053   112.62278078   186.57242039
 O     33  19  18     1.221154296221   117.63729272   252.78867891
 O     18  17  16     1.418921760495   109.78269759   293.03307258
 O     15  14  13     1.238179035070   122.74409744   131.25801772
 C     14  13  12     1.540176861430   112.11327236    78.22057902
 C     46  14  13     1.527909614008   112.69927167   181.42501417
 O     12  11  10     1.227175704863   121.35794308   112.54155260
 C     11  10   2     1.541891294919   113.62556173   300.10689523
 C     49  11  10     1.531243183576   109.69986309   179.74168457
 C     49  11  10     1.530866717510   109.96047611   302.56588139
 H      3   2   1     1.103017439538   108.37550733   181.91590321
 H      4   3   2     1.098960891428   109.06226231   138.82753294
 H      4   3   2     1.096738260447   111.91173264    19.48830376
 H      5   4   3     1.098693062534   110.00509322    82.70263550
 H      5   4   3     1.096686126747   113.15708067   203.70140121
 H      6   5   4     1.093091953648   112.65785351   156.38556161
 H      6   5   4     1.104173460759   111.49534344   278.91319831
 H     10   2   1     1.016639885250   114.00548671   165.28688888
 H     11  10   2     1.099256631303   105.49816246   182.24274198
 H     13  12  11     1.027022632284   114.22518122    11.68201920
 H     14  13  12     1.100551654847   109.03684146   316.71297173
 H     16  15  14     1.015875518085   118.72250016     6.56305796
 H     17  16  15     1.098594960463   109.42089433   159.95131225
 H     17  16  15     1.098619612601   107.59914544    41.57236876
 H     18  17  16     1.103208158750   108.18845644    51.75403209
 H     19  18  17     1.100957431644   108.36735100     5.16718005
 H     21  20  19     1.013736119193   118.77860920     9.68275455
 H     22  21  20     1.102231769025   105.42477166   171.47937563
 H     24  23  22     1.024611548063   120.71950473    10.12232509
 H     25  24  23     1.102652210675   104.66968856    19.95360177
 H     26  25  24     1.098034032473   109.00543132    59.34333867
 H     26  25  24     1.097072044810   110.84244953   179.36047702
 H     26  25  24     1.097030782601   110.21092700   299.27701384
 H     28  22  21     1.100309310492   107.51495627   183.03862247
 H     28  22  21     1.098158799980   108.05551550    68.44483237
 H     29  28  22     1.104649591713   107.99692110    58.46921636
 H     30  29  28     1.100643992095   112.53442629    61.93996506
 H     30  29  28     1.099634631474   111.00917550   182.01911767
 H     30  29  28     1.101720650295   110.68369279   301.56450251
 H     31  29  28     1.099523705464   111.13982675   303.24287062
 H     31  29  28     1.101481439086   110.74023856    62.92626099
 H     31  29  28     1.099825331508   111.27320712   182.77067631
 H     34  33  19     1.103618149391   106.59744905   118.80762761
 H     34  33  19     1.095190398385   110.40111522     2.95764570
 H     35  34  33     1.098304411267   107.24998761    59.36088605
 H     35  34  33     1.100335369239   109.32311901   304.46569906
 H     36  35  34     1.101664428444   110.08997258    80.88456236
 H     36  35  34     1.104120766483   110.20237751   324.16703374
 H     37  36  35     1.103643794764   108.40535141   316.29991626
 H     37  36  35     1.101105371230   110.76592067   200.48711258
 H     38  37  36     1.101873955725   108.85538797    92.96122408
 H     38  37  36     1.103894302749   109.16326423   337.73857185
 H     39  38  37     1.104222317367   109.62830686   317.97499207
 H     39  38  37     1.102230309402   110.07709237   201.70114760
 H     40  39  38     1.103992867242   108.30275199    64.10116694
 H     40  39  38     1.103459897292   109.86864969   309.33819474
 H     41  40  39     1.102998851246   109.39922483    64.11222141
 H     41  40  39     1.103047230315   109.42507351   308.62619434
 H     42  41  40     1.099414653609   111.86748818   180.65206977
 H     42  41  40     1.100378604801   111.05325999   301.21571985
 H     42  41  40     1.101115031240   110.81686270    60.42358206
 H     44  18  17     0.986636131366   107.45666100   102.78832631
 H     46  14  13     1.102385362517   108.75671158    58.39401129
 H     46  14  13     1.098423616460   106.74276444   303.08513631
 H     47  46  14     1.098360745209   110.66644153   178.18057353
 H     47  46  14     1.099729589719   111.86590907   298.49320480
 H     47  46  14     1.099552382240   110.95162756    58.47901378
 H     49  11  10     1.099740053406   108.41571644    61.11313688
 H     50  49  11     1.098710321091   111.76952641   300.05113007
 H     50  49  11     1.100885847102   111.12710733    60.48223490
 H     50  49  11     1.098555152694   110.13984452   180.07412462
 H     51  49  11     1.098038556686   111.75770347    60.79976869
 H     51  49  11     1.097967300683   110.56085999   180.91911903
 H     51  49  11     1.101654181219   110.73319775   300.24440172

---------------------------
INTERNAL COORDINATES (A.U.)
---------------------------
 O      0   0   0     0.000000000000     0.00000000     0.00000000
 C      1   0   0     2.360884277950     0.00000000     0.00000000
 C      2   1   0     2.886765829426   121.39122659     0.00000000
 C      3   2   1     2.924734797826   112.57250447    58.25202109
 C      4   3   2     2.901780198456   104.31712732   257.19875130
 C      5   4   3     2.885755535316   103.54364751   326.05438862
 N      3   2   1     2.774597069674   111.04819084   301.93794644
 C      7   3   2     2.576345034070   118.21761271   299.11094404
 O      8   7   3     2.341472103768   120.03755906     7.23955649
 N      2   1   3     2.549949000462   123.30702269   177.57610326
 C     10   2   1     2.787291153203   126.50409207    11.29242855
 C     11  10   2     2.929413425251   109.53227023    70.57703434
 N     12  11  10     2.581277474576   114.02621959   294.00207146
 C     13  12  11     2.775533609773   120.93185595   159.47210529
 C     14  13  12     2.888779195715   107.89185324   201.54862898
 N     15  14  13     2.570952373812   115.02611451   310.03369847
 C     16  15  14     2.738336837136   120.98208989   171.86626274
 C     17  16  15     2.903070257454   111.42106805   280.34575402
 C     18  17  16     2.966662821735   108.67016754   169.74915358
 C     19  18  17     2.883406306574   105.64414521   247.98792251
 N     20  19  18     2.580973670104   113.46871698    84.52396308
 C     21  20  19     2.763612308125   122.30117051   188.62861421
 C     22  21  20     2.926436432019   111.88330056    57.41177689
 N     23  22  21     2.585510811830   115.61558022    37.82730372
 C     24  23  22     2.760655376630   119.66320697   168.83085127
 C     25  24  23     2.885887710944   111.36661699   261.44262559
 O     23  22  21     2.322219316674   121.22377618   215.51069624
 C     22  21  20     2.896805566171   113.25993435   290.87722952
 C     28  22  21     2.900121093932   114.38644516   305.61028888
 C     29  28  22     2.897819809536   112.54757284   299.18605518
 C     29  28  22     2.896555505753   109.68370467   175.53081851
 O     20  19  18     2.327856960798   124.24219608   271.22466622
 C     19  18  17     2.911170672583   113.43626805   119.81554078
 C     33  19  18     2.860585134667   120.87918334    72.15149413
 C     34  33  19     2.900768246524   111.05855229   238.90506963
 C     35  34  33     2.896644680910   114.27972043   180.86793782
 C     36  35  34     2.902759218036   110.44035906   203.70338436
 C     37  36  35     2.915587171508   112.50161917    77.72375365
 C     38  37  36     2.901448250451   114.34464682   216.86050755
 C     39  38  37     2.893811203226   112.00880359    80.55033622
 C     40  39  38     2.889552671842   114.53223474   186.34216943
 C     41  40  39     2.890850443026   112.62278078   186.57242039
 O     33  19  18     2.307647187119   117.63729272   252.78867891
 O     18  17  16     2.681373532796   109.78269759   293.03307258
 O     15  14  13     2.339819281045   122.74409744   131.25801772
 C     14  13  12     2.910512465906   112.11327236    78.22057902
 C     46  14  13     2.887330727861   112.69927167   181.42501417
 O     12  11  10     2.319026000392   121.35794308   112.54155260
 C     11  10   2     2.913752275674   113.62556173   300.10689523
 C     49  11  10     2.893630261392   109.69986309   179.74168457
 C     49  11  10     2.892918843630   109.96047611   302.56588139
 H      3   2   1     2.084400881666   108.37550733   181.91590321
 H      4   3   2     2.076735116690   109.06226231   138.82753294
 H      4   3   2     2.072534952838   111.91173264    19.48830376
 H      5   4   3     2.076228993428   110.00509322    82.70263550
 H      5   4   3     2.072436434423   113.15708067   203.70140121
 H      6   5   4     2.065644431588   112.65785351   156.38556161
[...]
freq.      84.85  E(vib)   ...       0.48 
freq.      90.87  E(vib)   ...       0.47 
freq.      93.67  E(vib)   ...       0.47 
freq.     102.44  E(vib)   ...       0.46 
freq.     106.88  E(vib)   ...       0.45 
freq.     111.44  E(vib)   ...       0.45 
freq.     113.57  E(vib)   ...       0.44 
freq.     119.00  E(vib)   ...       0.44 
freq.     123.10  E(vib)   ...       0.43 
freq.     125.28  E(vib)   ...       0.43 
freq.     135.71  E(vib)   ...       0.42 
freq.     140.68  E(vib)   ...       0.41 
freq.     146.87  E(vib)   ...       0.41 
freq.     156.25  E(vib)   ...       0.40 
freq.     159.37  E(vib)   ...       0.39 
freq.     163.38  E(vib)   ...       0.39 
freq.     166.24  E(vib)   ...       0.39 
freq.     175.16  E(vib)   ...       0.38 
freq.     179.45  E(vib)   ...       0.37 
freq.     189.73  E(vib)   ...       0.36 
freq.     196.77  E(vib)   ...       0.36 
freq.     202.59  E(vib)   ...       0.35 
freq.     210.34  E(vib)   ...       0.34 
freq.     212.97  E(vib)   ...       0.34 
freq.     217.49  E(vib)   ...       0.33 
freq.     222.56  E(vib)   ...       0.33 
freq.     224.06  E(vib)   ...       0.33 
freq.     225.86  E(vib)   ...       0.33 
freq.     233.85  E(vib)   ...       0.32 
freq.     236.11  E(vib)   ...       0.32 
freq.     238.24  E(vib)   ...       0.32 
freq.     242.55  E(vib)   ...       0.31 
freq.     247.64  E(vib)   ...       0.31 
freq.     251.41  E(vib)   ...       0.30 
freq.     267.38  E(vib)   ...       0.29 
freq.     272.17  E(vib)   ...       0.29 
freq.     278.89  E(vib)   ...       0.28 
freq.     281.69  E(vib)   ...       0.28 
freq.     283.38  E(vib)   ...       0.28 
freq.     291.35  E(vib)   ...       0.27 
freq.     301.23  E(vib)   ...       0.26 
freq.     309.57  E(vib)   ...       0.26 
freq.     312.00  E(vib)   ...       0.25 
freq.     316.01  E(vib)   ...       0.25 
freq.     326.80  E(vib)   ...       0.24 
freq.     333.57  E(vib)   ...       0.24 
freq.     337.35  E(vib)   ...       0.24 
freq.     340.64  E(vib)   ...       0.23 
freq.     342.85  E(vib)   ...       0.23 
freq.     369.43  E(vib)   ...       0.21 
freq.     381.35  E(vib)   ...       0.21 
freq.     388.52  E(vib)   ...       0.20 
freq.     393.51  E(vib)   ...       0.20 
freq.     399.43  E(vib)   ...       0.19 
freq.     401.34  E(vib)   ...       0.19 
freq.     410.29  E(vib)   ...       0.19 
freq.     416.80  E(vib)   ...       0.18 
freq.     420.82  E(vib)   ...       0.18 
freq.     421.91  E(vib)   ...       0.18 
freq.     435.70  E(vib)   ...       0.17 
freq.     462.36  E(vib)   ...       0.16 
freq.     472.59  E(vib)   ...       0.15 
freq.     498.29  E(vib)   ...       0.14 
freq.     505.42  E(vib)   ...       0.14 
freq.     519.92  E(vib)   ...       0.13 
freq.     523.18  E(vib)   ...       0.13 
freq.     526.58  E(vib)   ...       0.13 
freq.     532.78  E(vib)   ...       0.13 
freq.     548.79  E(vib)   ...       0.12 
freq.     574.10  E(vib)   ...       0.11 
freq.     586.75  E(vib)   ...       0.11 
freq.     600.08  E(vib)   ...       0.10 
freq.     618.88  E(vib)   ...       0.09 
freq.     631.56  E(vib)   ...       0.09 
freq.     649.15  E(vib)   ...       0.08 
freq.     654.72  E(vib)   ...       0.08 
freq.     673.04  E(vib)   ...       0.08 
freq.     681.99  E(vib)   ...       0.08 
freq.     688.73  E(vib)   ...       0.07 
freq.     702.24  E(vib)   ...       0.07 
freq.     707.61  E(vib)   ...       0.07 
freq.     710.90  E(vib)   ...       0.07 
freq.     714.96  E(vib)   ...       0.07 
freq.     730.65  E(vib)   ...       0.06 
freq.     736.22  E(vib)   ...       0.06 
freq.     742.23  E(vib)   ...       0.06 
freq.     750.65  E(vib)   ...       0.06 
freq.     753.60  E(vib)   ...       0.06 
freq.     754.78  E(vib)   ...       0.06 
freq.     758.29  E(vib)   ...       0.06 
freq.     771.26  E(vib)   ...       0.05 
freq.     777.96  E(vib)   ...       0.05 
freq.     787.30  E(vib)   ...       0.05 
freq.     802.51  E(vib)   ...       0.05 
freq.     811.37  E(vib)   ...       0.05 
freq.     818.78  E(vib)   ...       0.05 
freq.     823.55  E(vib)   ...       0.05 
freq.     829.61  E(vib)   ...       0.04 
freq.     835.15  E(vib)   ...       0.04 
freq.     856.59  E(vib)   ...       0.04 
freq.     863.06  E(vib)   ...       0.04 
freq.     870.28  E(vib)   ...       0.04 
freq.     872.15  E(vib)   ...       0.04 
freq.     877.29  E(vib)   ...       0.04 
freq.     884.01  E(vib)   ...       0.04 
freq.     889.26  E(vib)   ...       0.04 
freq.     891.58  E(vib)   ...       0.03 
freq.     897.06  E(vib)   ...       0.03 
freq.     900.67  E(vib)   ...       0.03 
freq.     908.36  E(vib)   ...       0.03 
freq.     911.44  E(vib)   ...       0.03 
freq.     913.84  E(vib)   ...       0.03 
freq.     919.31  E(vib)   ...       0.03 
freq.     933.12  E(vib)   ...       0.03 
freq.     939.03  E(vib)   ...       0.03 
freq.     939.83  E(vib)   ...       0.03 
freq.     942.38  E(vib)   ...       0.03 
freq.     944.59  E(vib)   ...       0.03 
freq.     954.59  E(vib)   ...       0.03 
freq.     956.17  E(vib)   ...       0.03 
freq.     971.82  E(vib)   ...       0.03 
freq.     974.23  E(vib)   ...       0.03 
freq.     982.61  E(vib)   ...       0.02 
freq.     984.00  E(vib)   ...       0.02 
freq.     989.08  E(vib)   ...       0.02 
freq.    1002.49  E(vib)   ...       0.02 
freq.    1006.90  E(vib)   ...       0.02 
freq.    1015.77  E(vib)   ...       0.02 
freq.    1025.40  E(vib)   ...       0.02 
freq.    1031.31  E(vib)   ...       0.02 
freq.    1034.59  E(vib)   ...       0.02 
freq.    1040.03  E(vib)   ...       0.02 
freq.    1043.09  E(vib)   ...       0.02 
freq.    1044.72  E(vib)   ...       0.02 
freq.    1053.33  E(vib)   ...       0.02 
freq.    1056.19  E(vib)   ...       0.02 
freq.    1063.81  E(vib)   ...       0.02 
freq.    1067.39  E(vib)   ...       0.02 
freq.    1075.32  E(vib)   ...       0.02 
freq.    1076.65  E(vib)   ...       0.02 
freq.    1082.15  E(vib)   ...       0.02 
freq.    1094.43  E(vib)   ...       0.02 
freq.    1096.72  E(vib)   ...       0.02 
freq.    1099.04  E(vib)   ...       0.02 
freq.    1101.29  E(vib)   ...       0.02 
freq.    1109.54  E(vib)   ...       0.02 
freq.    1111.56  E(vib)   ...       0.01 
freq.    1115.19  E(vib)   ...       0.01 
freq.    1126.51  E(vib)   ...       0.01 
freq.    1130.91  E(vib)   ...       0.01 
freq.    1132.79  E(vib)   ...       0.01 
freq.    1134.75  E(vib)   ...       0.01 
freq.    1143.79  E(vib)   ...       0.01 
freq.    1154.34  E(vib)   ...       0.01 
freq.    1158.13  E(vib)   ...       0.01 
freq.    1161.24  E(vib)   ...       0.01 
freq.    1162.38  E(vib)   ...       0.01 
freq.    1166.66  E(vib)   ...       0.01 
freq.    1169.41  E(vib)   ...       0.01 
freq.    1174.49  E(vib)   ...       0.01 
freq.    1186.24  E(vib)   ...       0.01 
freq.    1198.22  E(vib)   ...       0.01 
freq.    1212.11  E(vib)   ...       0.01 
freq.    1219.80  E(vib)   ...       0.01 
freq.    1224.56  E(vib)   ...       0.01 
freq.    1226.21  E(vib)   ...       0.01 
freq.    1228.14  E(vib)   ...       0.01 
freq.    1230.06  E(vib)   ...       0.01 
freq.    1234.31  E(vib)   ...       0.01 
freq.    1237.45  E(vib)   ...       0.01 
freq.    1241.40  E(vib)   ...       0.01 
freq.    1249.99  E(vib)   ...       0.01 
freq.    1254.77  E(vib)   ...       0.01 
freq.    1255.29  E(vib)   ...       0.01 
freq.    1258.56  E(vib)   ...       0.01 
freq.    1260.54  E(vib)   ...       0.01 
freq.    1270.08  E(vib)   ...       0.01 
freq.    1277.93  E(vib)   ...       0.01 
freq.    1278.09  E(vib)   ...       0.01 
freq.    1281.47  E(vib)   ...       0.01 
freq.    1285.53  E(vib)   ...       0.01 
freq.    1289.14  E(vib)   ...       0.01 
freq.    1291.34  E(vib)   ...       0.01 
freq.    1292.91  E(vib)   ...       0.01 
freq.    1293.06  E(vib)   ...       0.01 
freq.    1296.21  E(vib)   ...       0.01 
freq.    1297.63  E(vib)   ...       0.01 
freq.    1298.63  E(vib)   ...       0.01 
freq.    1303.06  E(vib)   ...       0.01 
freq.    1306.49  E(vib)   ...       0.01 
freq.    1308.46  E(vib)   ...       0.01 
freq.    1311.58  E(vib)   ...       0.01 
freq.    1313.18  E(vib)   ...       0.01 
freq.    1314.08  E(vib)   ...       0.01 
freq.    1319.62  E(vib)   ...       0.01 
freq.    1322.50  E(vib)   ...       0.01 
freq.    1324.16  E(vib)   ...       0.01 
freq.    1327.97  E(vib)   ...       0.01 
freq.    1330.18  E(vib)   ...       0.01 
freq.    1335.95  E(vib)   ...       0.01 
freq.    1336.80  E(vib)   ...       0.01 
freq.    1338.24  E(vib)   ...       0.01 
freq.    1340.36  E(vib)   ...       0.01 
freq.    1340.64  E(vib)   ...       0.01 
freq.    1350.47  E(vib)   ...       0.01 
freq.    1351.16  E(vib)   ...       0.01 
freq.    1351.76  E(vib)   ...       0.01 
freq.    1352.32  E(vib)   ...       0.01 
freq.    1358.10  E(vib)   ...       0.01 
freq.    1363.38  E(vib)   ...       0.01 
freq.    1370.33  E(vib)   ...       0.01 
freq.    1371.30  E(vib)   ...       0.01 
freq.    1374.40  E(vib)   ...       0.01 
freq.    1394.74  E(vib)   ...       0.00 
freq.    1398.39  E(vib)   ...       0.00 
freq.    1411.89  E(vib)   ...       0.00 
freq.    1426.64  E(vib)   ...       0.00 
freq.    1429.24  E(vib)   ...       0.00 
freq.    1431.76  E(vib)   ...       0.00 
freq.    1433.83  E(vib)   ...       0.00 
freq.    1436.49  E(vib)   ...       0.00 
freq.    1437.99  E(vib)   ...       0.00 
freq.    1438.60  E(vib)   ...       0.00 
freq.    1439.36  E(vib)   ...       0.00 
freq.    1440.61  E(vib)   ...       0.00 
freq.    1441.96  E(vib)   ...       0.00 
freq.    1442.75  E(vib)   ...       0.00 
freq.    1443.84  E(vib)   ...       0.00 
freq.    1445.47  E(vib)   ...       0.00 
freq.    1445.98  E(vib)   ...       0.00 
freq.    1446.88  E(vib)   ...       0.00 
freq.    1448.86  E(vib)   ...       0.00 
freq.    1450.19  E(vib)   ...       0.00 
freq.    1451.52  E(vib)   ...       0.00 
freq.    1452.42  E(vib)   ...       0.00 
freq.    1455.04  E(vib)   ...       0.00 
freq.    1455.37  E(vib)   ...       0.00 
freq.    1456.04  E(vib)   ...       0.00 
freq.    1459.85  E(vib)   ...       0.00 
freq.    1460.42  E(vib)   ...       0.00 
freq.    1462.50  E(vib)   ...       0.00 
freq.    1465.06  E(vib)   ...       0.00 
freq.    1466.80  E(vib)   ...       0.00 
freq.    1468.85  E(vib)   ...       0.00 
freq.    1476.78  E(vib)   ...       0.00 
freq.    1489.06  E(vib)   ...       0.00 
freq.    1507.20  E(vib)   ...       0.00 
freq.    1525.95  E(vib)   ...       0.00 
freq.    1626.34  E(vib)   ...       0.00 
freq.    1631.18  E(vib)   ...       0.00 
freq.    1658.98  E(vib)   ...       0.00 
freq.    1670.25  E(vib)   ...       0.00 
freq.    1684.00  E(vib)   ...       0.00 
freq.    1701.36  E(vib)   ...       0.00 
freq.    1702.94  E(vib)   ...       0.00 
freq.    2931.78  E(vib)   ...       0.00 
freq.    2933.00  E(vib)   ...       0.00 
freq.    2934.31  E(vib)   ...       0.00 
freq.    2934.65  E(vib)   ...       0.00 
freq.    2937.75  E(vib)   ...       0.00 
freq.    2939.67  E(vib)   ...       0.00 
freq.    2942.24  E(vib)   ...       0.00 
freq.    2945.86  E(vib)   ...       0.00 
freq.    2947.11  E(vib)   ...       0.00 
freq.    2949.46  E(vib)   ...       0.00 
freq.    2950.91  E(vib)   ...       0.00 
freq.    2955.57  E(vib)   ...       0.00 
freq.    2955.66  E(vib)   ...       0.00 
freq.    2957.10  E(vib)   ...       0.00 
freq.    2958.45  E(vib)   ...       0.00 
freq.    2958.62  E(vib)   ...       0.00 
freq.    2959.33  E(vib)   ...       0.00 
freq.    2963.21  E(vib)   ...       0.00 
freq.    2968.34  E(vib)   ...       0.00 
freq.    2969.24  E(vib)   ...       0.00 
freq.    2969.99  E(vib)   ...       0.00 
freq.    2971.11  E(vib)   ...       0.00 
freq.    2973.21  E(vib)   ...       0.00 
freq.    2974.23  E(vib)   ...       0.00 
freq.    2975.74  E(vib)   ...       0.00 
freq.    2983.50  E(vib)   ...       0.00 
freq.    2985.98  E(vib)   ...       0.00 
freq.    2988.31  E(vib)   ...       0.00 
freq.    2988.52  E(vib)   ...       0.00 
freq.    2990.60  E(vib)   ...       0.00 
freq.    2990.81  E(vib)   ...       0.00 
freq.    2992.36  E(vib)   ...       0.00 
freq.    2994.05  E(vib)   ...       0.00 
freq.    2994.44  E(vib)   ...       0.00 
freq.    2999.93  E(vib)   ...       0.00 
freq.    3008.42  E(vib)   ...       0.00 
freq.    3012.25  E(vib)   ...       0.00 
freq.    3018.34  E(vib)   ...       0.00 
freq.    3018.82  E(vib)   ...       0.00 
freq.    3019.25  E(vib)   ...       0.00 
freq.    3024.28  E(vib)   ...       0.00 
freq.    3027.83  E(vib)   ...       0.00 
freq.    3028.20  E(vib)   ...       0.00 
freq.    3030.71  E(vib)   ...       0.00 
freq.    3030.81  E(vib)   ...       0.00 
freq.    3035.37  E(vib)   ...       0.00 
freq.    3038.17  E(vib)   ...       0.00 
freq.    3039.61  E(vib)   ...       0.00 
freq.    3041.63  E(vib)   ...       0.00 
freq.    3043.01  E(vib)   ...       0.00 
freq.    3044.86  E(vib)   ...       0.00 
freq.    3045.09  E(vib)   ...       0.00 
freq.    3048.05  E(vib)   ...       0.00 
freq.    3054.42  E(vib)   ...       0.00 
freq.    3059.30  E(vib)   ...       0.00 
freq.    3063.12  E(vib)   ...       0.00 
freq.    3067.21  E(vib)   ...       0.00 
freq.    3086.09  E(vib)   ...       0.00 
freq.    3295.66  E(vib)   ...       0.00 
freq.    3371.29  E(vib)   ...       0.00 
freq.    3417.65  E(vib)   ...       0.00 
freq.    3502.32  E(vib)   ...       0.00 
freq.    3510.82  E(vib)   ...       0.00 
freq.    3530.37  E(vib)   ...       0.00 

------------
INNER ENERGY
------------

The inner energy is: U= E(el) + E(ZPE) + E(vib) + E(rot) + E(trans)
    E(el)   - is the total energy from the electronic structure calculation
              = E(kin-el) + E(nuc-el) + E(el-el) + E(nuc-nuc)
    E(ZPE)  - the the zero temperature vibrational energy from the frequency calculation
    E(vib)  - the the finite temperature correction to E(ZPE) due to population
              of excited vibrational states
    E(rot)  - is the rotational thermal energy
    E(trans)- is the translational thermal energy

Summary of contributions to the inner energy U:
Electronic energy                ...  -2380.07847166 Eh
Zero point energy                ...      0.97869993 Eh     614.14 kcal/mol
Thermal vibrational correction   ...      0.05446901 Eh      34.18 kcal/mol
Thermal rotational correction    ...      0.00141627 Eh       0.89 kcal/mol
Thermal translational correction ...      0.00141627 Eh       0.89 kcal/mol
-----------------------------------------------------------------------
Total thermal energy                  -2379.04247017 Eh


Summary of corrections to the electronic energy:
(perhaps to be used in another calculation)
Total thermal correction                  0.05730156 Eh      35.96 kcal/mol
Non-thermal (ZPE) correction              0.97869993 Eh     614.14 kcal/mol
-----------------------------------------------------------------------
Total correction                          1.03600149 Eh     650.10 kcal/mol


--------
ENTHALPY
--------

The enthalpy is H = U + kB*T
                kB is Boltzmann's constant
Total free energy                 ...  -2379.04247017 Eh 
Thermal Enthalpy correction       ...      0.00094421 Eh       0.59 kcal/mol
-----------------------------------------------------------------------
Total Enthalpy                    ...  -2379.04152596 Eh


Note: Only C1 symmetry has been detected, increase convergence thresholds 
      if your molecule has a higher symmetry. Symmetry factor of 1.0 is   
      used for the rotational entropy correction. 
 

Note: Rotational entropy computed according to Herzberg 
Infrared and Raman Spectra, Chapter V,1, Van Nostrand Reinhold, 1945 
Point Group:  C1, Symmetry Number:   1  
Rotational constants in cm-1:     0.002454     0.001630     0.001306 

Vibrational entropy computed according to the QRRHO of S. Grimme
Chem.Eur.J. 2012 18 9955


-------
ENTROPY
-------

The entropy contributions are T*S = T*(S(el)+S(vib)+S(rot)+S(trans))
     S(el)   - electronic entropy
     S(vib)  - vibrational entropy
     S(rot)  - rotational entropy
     S(trans)- translational entropy
The entropies will be listed as mutliplied by the temperature to get
units of energy

Electronic entropy                ...      0.00000000 Eh      0.00 kcal/mol
Vibrational entropy               ...      0.09886397 Eh     62.04 kcal/mol
Rotational entropy                ...      0.01851355 Eh     11.62 kcal/mol
Translational entropy             ...      0.02166895 Eh     13.60 kcal/mol
-----------------------------------------------------------------------
Final entropy term                ...      0.13904647 Eh     87.25 kcal/mol

In case the symmetry of your molecule has not been determined correctly
or in case you have a reason to use a different symmetry number we print 
out the resulting rotational entropy values for sn=1,12 :
 --------------------------------------------------------
|  sn= 1 | S(rot)=       0.01851355 Eh     11.62 kcal/mol|
|  sn= 2 | S(rot)=       0.01785909 Eh     11.21 kcal/mol|
|  sn= 3 | S(rot)=       0.01747626 Eh     10.97 kcal/mol|
|  sn= 4 | S(rot)=       0.01720464 Eh     10.80 kcal/mol|
|  sn= 5 | S(rot)=       0.01699395 Eh     10.66 kcal/mol|
|  sn= 6 | S(rot)=       0.01682180 Eh     10.56 kcal/mol|
|  sn= 7 | S(rot)=       0.01667626 Eh     10.46 kcal/mol|
|  sn= 8 | S(rot)=       0.01655018 Eh     10.39 kcal/mol|
|  sn= 9 | S(rot)=       0.01643897 Eh     10.32 kcal/mol|
|  sn=10 | S(rot)=       0.01633949 Eh     10.25 kcal/mol|
|  sn=11 | S(rot)=       0.01624950 Eh     10.20 kcal/mol|
|  sn=12 | S(rot)=       0.01616735 Eh     10.15 kcal/mol|
 --------------------------------------------------------


-------------------
GIBBS FREE ENERGY
-------------------

The Gibbs free energy is G = H - T*S

Total enthalpy                    ...  -2379.04152596 Eh 
Total entropy correction          ...     -0.13904647 Eh    -87.25 kcal/mol
-----------------------------------------------------------------------
Final Gibbs free energy         ...  -2379.18057243 Eh

For completeness - the Gibbs free energy minus the electronic energy
G-E(el)                           ...      0.89789923 Eh    563.44 kcal/mol

--------------------------------------------------------------------------
WARNING: No preset parameters were found for the device that Open MPI
detected:

  Local host:            eu-g1-010-4
  Device name:           mlx5_0
  Device vendor ID:      0x02c9
  Device vendor part ID: 4123

Default device parameters will be used, which may result in lower
performance.  You can edit any of the files specified by the
btl_openib_device_param_files MCA parameter to set values for your
device.

NOTE: You can turn off this warning by setting the MCA parameter
      btl_openib_warn_no_device_params_found to 0.
--------------------------------------------------------------------------
--------------------------------------------------------------------------
WARNING: There was an error initializing an OpenFabrics device.

  Local host:   eu-g1-010-4
  Local device: mlx5_0
--------------------------------------------------------------------------

Timings for individual modules:

Sum of individual times         ...    38921.400 sec (= 648.690 min)
GTO integral calculation        ...       13.785 sec (=   0.230 min)   0.0 %
SCF iterations                  ...      458.757 sec (=   7.646 min)   1.2 %
SCF Gradient evaluation         ...       84.122 sec (=   1.402 min)   0.2 %
Geometry relaxation             ...        4.163 sec (=   0.069 min)   0.0 %
Analytical frequency calculation...    38360.574 sec (= 639.343 min)  98.6 %
                             ****ORCA TERMINATED NORMALLY****
TOTAL RUN TIME: 0 days 10 hours 48 minutes 59 seconds 658 msec
