
                                 *****************
                                 * O   R   C   A *
                                 *****************

           --- An Ab Initio, DFT and Semiempirical electronic structure package ---

                  #######################################################
                  #                        -***-                        #
                  #          Department of theory and spectroscopy      #
                  #               Directorship: Frank Neese             #
                  #        Max Planck Institute fuer Kohlenforschung    #
                  #                Kaiser Wilhelm Platz 1               #
                  #                 D-45470 Muelheim/Ruhr               #
                  #                      Germany                        #
                  #                                                     #
                  #                  All rights reserved                #
                  #                        -***-                        #
                  #######################################################


                         Program Version 4.2.0 -  RELEASE  -


 With contributions from (in alphabetic order):
   Daniel Aravena         : Magnetic Suceptibility
   Michael Atanasov       : Ab Initio Ligand Field Theory (pilot matlab implementation)
   Alexander A. Auer      : GIAO ZORA, VPT2
   Ute Becker             : Parallelization
   Giovanni Bistoni       : ED, misc. LED, open-shell LED, HFLED
   Martin Brehm           : Molecular dynamics
   Dmytro Bykov           : SCF Hessian
   Vijay G. Chilkuri      : MRCI spin determinant printing, contributions to CSF-ICE
   Dipayan Datta          : RHF DLPNO-CCSD density
   Achintya Kumar Dutta   : EOM-CC, STEOM-CC
   Dmitry Ganyushin       : Spin-Orbit,Spin-Spin,Magnetic field MRCI
   Miquel Garcia          : C-PCM Hessian, Gaussian charge scheme
   Yang Guo               : DLPNO-NEVPT2, CIM, IAO-localization
   Andreas Hansen         : Spin unrestricted coupled pair/coupled cluster methods
   Benjamin Helmich-Paris : CASSCF linear response (MC-RPA)
   Lee Huntington         : MR-EOM, pCC
   Robert Izsak           : Overlap fitted RIJCOSX, COSX-SCS-MP3, EOM
   Christian Kollmar      : KDIIS, OOCD, Brueckner-CCSD(T), CCSD density
   Simone Kossmann        : Meta GGA functionals, TD-DFT gradient, OOMP2, MP2 Hessian
   Martin Krupicka        : AUTO-CI
   Lucas Lang             : DCDCAS
   Dagmar Lenk            : GEPOL surface, SMD
   Dimitrios Liakos       : Extrapolation schemes; Compound Job, initial MDCI parallelization
   Dimitrios Manganas     : Further ROCIS development; embedding schemes
   Dimitrios Pantazis     : SARC Basis sets
   Taras Petrenko         : DFT Hessian,TD-DFT gradient, ASA, ECA, R-Raman, ABS, FL, XAS/XES, NRVS
   Peter Pinski           : DLPNO-MP2, DLPNO-MP2 Gradient
   Christoph Reimann      : Effective Core Potentials
   Marius Retegan         : Local ZFS, SOC
   Christoph Riplinger    : Optimizer, TS searches, QM/MM, DLPNO-CCSD(T), (RO)-DLPNO pert. Triples
   Tobias Risthaus        : Range-separated hybrids, TD-DFT gradient, RPA, STAB
   Michael Roemelt        : Original ROCIS implementation
   Masaaki Saitow         : Open-shell DLPNO-CCSD energy and density
   Barbara Sandhoefer     : DKH picture change effects
   Avijit Sen             : IP-ROCIS
   Kantharuban Sivalingam : CASSCF convergence, NEVPT2, FIC-MRCI
   Bernardo de Souza      : ESD, SOC TD-DFT
   Georgi Stoychev        : AutoAux, RI-MP2 NMR
   Willem Van den Heuvel  : Paramagnetic NMR
   Boris Wezisla          : Elementary symmetry handling
   Frank Wennmohs         : Technical directorship


 We gratefully acknowledge several colleagues who have allowed us to
 interface, adapt or use parts of their codes:
   Stefan Grimme, W. Hujo, H. Kruse,             : VdW corrections, initial TS optimization,
                  C. Bannwarth                     DFT functionals, gCP, sTDA/sTD-DF
   Ed Valeev, F. Pavosevic, A. Kumar             : LibInt (2-el integral package), F12 methods
   Garnet Chan, S. Sharma, J. Yang, R. Olivares  : DMRG
   Ulf Ekstrom                                   : XCFun DFT Library
   Mihaly Kallay                                 : mrcc  (arbitrary order and MRCC methods)
   Andreas Klamt, Michael Diedenhofen            : otool_cosmo (COSMO solvation model)
   Jiri Pittner, Ondrej Demel                    : Mk-CCSD
   Frank Weinhold                                : gennbo (NPA and NBO analysis)
   Christopher J. Cramer and Donald G. Truhlar   : smd solvation model
   Lars Goerigk                                  : TD-DFT with DH, B97 family of functionals
   V. Asgeirsson, H. Jonsson                     : NEB implementation
   FAccTs GmbH                                   : IRC, NEB, NEB-TS, Multilevel, MM, QM/MM, CI optimization
   S Lehtola, MJT Oliveira, MAL Marques          : LibXC Library


 Your calculation uses the libint2 library for the computation of 2-el integrals
 For citations please refer to: http://libint.valeyev.net

 Your ORCA version has been built with support for libXC version: 4.2.3
 For citations please refer to: https://tddft.org/programs/libxc/

 This ORCA versions uses:
   CBLAS   interface :  Fast vector & matrix operations
   LAPACKE interface :  Fast linear algebra routines
   SCALAPACK package :  Parallel linear algebra routines




***************************************
The coordinates will be read from file: 7.xyz
***************************************


Your calculation utilizes the atom-pairwise dispersion correction
with the Becke-Johnson damping scheme (D3BJ)
Cite in your paper:
S.Grimme, S.Ehrlich, L.Goerigk, J Comput Chem, (2011), 32, 1456–1465 
S.Grimme, J.Antony, S.Ehrlich and H.Krieg, J.Chem.Phys., 132, (2010), 154104 
   

----- Orbital basis set information -----
Your calculation utilizes the basis: def2-TZVP
   F. Weigend and R. Ahlrichs, Phys. Chem. Chem. Phys. 7, 3297 (2005).

----- AuxJ basis set information -----
Your calculation utilizes the auxiliary basis: def2/J
   F. Weigend, Phys. Chem. Chem. Phys. 8, 1057 (2006).

================================================================================
                                        WARNINGS
                       Please study these warnings very carefully!
================================================================================


WARNING: Geometry Optimization
  ===> : Switching off AutoStart
         For restart on a previous wavefunction, please use MOREAD

INFO   : the flag for use of LIBINT has been found!

================================================================================
                                       INPUT FILE
================================================================================
NAME = 7.inp
|  1> !RI BP86 def2-tzvp def2/J D3BJ VeryTightSCF VeryTightOpt Grid5 FinalGrid6 freq
|  2> %maxcore 4000
|  3> %pal nprocs 24
|  4> end
|  5> * xyzfile 0 1 7.xyz 
|  6> 
|  7>                          ****END OF INPUT****
================================================================================

                       *****************************
                       * Geometry Optimization Run *
                       *****************************

Geometry optimization settings:
Update method            Update   .... BFGS
Choice of coordinates    CoordSys .... Z-matrix Internals
Initial Hessian          InHess   .... Almoef's Model

Convergence Tolerances:
Energy Change            TolE     ....  2.0000e-07 Eh
Max. Gradient            TolMAXG  ....  3.0000e-05 Eh/bohr
RMS Gradient             TolRMSG  ....  8.0000e-06 Eh/bohr
Max. Displacement        TolMAXD  ....  2.0000e-04 bohr
RMS Displacement         TolRMSD  ....  1.0000e-04 bohr
Strict Convergence                ....  False
------------------------------------------------------------------------------
                        ORCA OPTIMIZATION COORDINATE SETUP
------------------------------------------------------------------------------

The optimization will be done in new redundant internal coordinates
Making redundant internal coordinates   ...  (new redundants) done
Evaluating the initial hessian          ...  (Almloef) done
Evaluating the coordinates              ...  done
Calculating the B-matrix                .... done
Calculating the G-matrix                .... done
Diagonalizing the G-matrix              .... done
Small eigenvalue found = 3.276e-04
Small eigenvalue found = 7.786e-04
Small eigenvalue found = 1.747e-03
Small eigenvalue found = 3.143e-03
Small eigenvalue found = 4.222e-03
Small eigenvalue found = 5.220e-03
Small eigenvalue found = 6.314e-03
Small eigenvalue found = 6.837e-03
Small eigenvalue found = 8.212e-03
Small eigenvalue found = 9.296e-03
Small eigenvalue found = 1.112e-02
Small eigenvalue found = 1.214e-02
Small eigenvalue found = 1.333e-02
Small eigenvalue found = 1.487e-02
Small eigenvalue found = 1.684e-02
Small eigenvalue found = 2.104e-02
Small eigenvalue found = 2.442e-02
Small eigenvalue found = 2.699e-02
Small eigenvalue found = 2.889e-02
The first mode is                       ....  325
The number of degrees of freedom        ....  339

    -----------------------------------------------------------------
                    Redundant Internal Coordinates


    -----------------------------------------------------------------
         Definition                    Initial Value    Approx d2E/dq
    -----------------------------------------------------------------
      1. B(C   1,O   0)                  1.2394         0.972927   
      2. B(C   2,C   1)                  1.5362         0.365203   
      3. B(C   3,C   2)                  1.5457         0.352648   
      4. B(C   4,C   3)                  1.5344         0.367525   
      5. B(C   5,C   4)                  1.5321         0.370673   
      6. B(N   6,C   2)                  1.4548         0.441060   
      7. B(N   6,C   5)                  1.4743         0.410560   
      8. B(C   7,N   6)                  1.3675         0.607827   
      9. B(O   8,C   7)                  1.2343         0.991412   
     10. B(N   9,C   1)                  1.3541         0.638457   
     11. B(C  10,N   9)                  1.4672         0.421464   
     12. B(C  11,C  10)                  1.5411         0.358697   
     13. B(N  12,C  11)                  1.3658         0.611562   
     14. B(C  13,N  12)                  1.4563         0.438647   
     15. B(C  14,C  13)                  1.5459         0.352359   
     16. B(N  15,C  14)                  1.3604         0.623831   
     17. B(C  16,N  15)                  1.4543         0.441933   
     18. B(C  17,C  16)                  1.5321         0.370747   
     19. B(C  18,C  17)                  1.5381         0.362630   
     20. B(C  19,C  18)                  1.5347         0.367122   
     21. B(N  20,C  19)                  1.3676         0.607560   
     22. B(C  21,N  20)                  1.4594         0.433587   
     23. B(C  22,C  21)                  1.5410         0.358818   
     24. B(N  23,C  22)                  1.3611         0.622219   
     25. B(C  24,N  23)                  1.4624         0.428955   
     26. B(C  24,C   7)                  1.5367         0.364544   
     27. B(C  25,C  24)                  1.5262         0.378779   
     28. B(O  26,C  22)                  1.2327         0.997327   
     29. B(C  27,C  21)                  1.5296         0.374064   
     30. B(C  28,C  27)                  1.5369         0.364234   
     31. B(C  29,C  28)                  1.5340         0.368147   
     32. B(C  30,C  28)                  1.5323         0.370384   
     33. B(O  31,C  19)                  1.2311         1.003261   
     34. B(C  32,C  18)                  1.5449         0.353733   
     35. B(C  33,C  32)                  1.5154         0.394194   
     36. B(C  34,C  33)                  1.5424         0.356929   
     37. B(C  35,C  34)                  1.5298         0.373891   
     38. B(C  36,C  35)                  1.5300         0.373599   
     39. B(C  37,C  36)                  1.5304         0.373069   
     40. B(C  38,C  37)                  1.5302         0.373242   
     41. B(C  39,C  38)                  1.5302         0.373324   
     42. B(C  40,C  39)                  1.5310         0.372256   
     43. B(C  41,C  40)                  1.5299         0.373725   
     44. B(O  42,C  32)                  1.2177         1.053897   
     45. B(O  43,C  17)                  1.4373         0.470419   
     46. B(O  44,C  14)                  1.2311         1.003106   
     47. B(C  45,C  13)                  1.5345         0.367403   
     48. B(C  46,C  45)                  1.5276         0.376896   
     49. B(O  47,C  11)                  1.2261         1.021875   
     50. B(C  48,C  10)                  1.5474         0.350453   
     51. B(C  49,C  48)                  1.5353         0.366399   
     52. B(C  50,C  48)                  1.5318         0.371159   
     53. B(H  51,C   2)                  1.1017         0.344912   
     54. B(H  52,C   3)                  1.0994         0.347906   
     55. B(H  53,C   3)                  1.0979         0.349846   
     56. B(H  54,C   4)                  1.0971         0.350796   
     57. B(H  55,C   4)                  1.0965         0.351662   
     58. B(H  56,C   5)                  1.0955         0.352960   
     59. B(H  57,C   5)                  1.1022         0.344258   
     60. B(H  58,N   9)                  1.0167         0.422125   
     61. B(H  59,C  10)                  1.1020         0.344529   
     62. B(H  60,N  12)                  1.0167         0.422213   
     63. B(H  61,C  13)                  1.1014         0.345294   
     64. B(H  62,H  54)                  2.6341         0.000237   
     65. B(H  62,N  15)                  1.0202         0.416860   
     66. B(H  63,C  16)                  1.0976         0.350173   
     67. B(H  64,C  16)                  1.0972         0.350731   
     68. B(H  65,C  17)                  1.1045         0.341482   
     69. B(H  66,C  18)                  1.1030         0.343266   
     70. B(H  67,N  20)                  1.0206         0.416170   
     71. B(H  68,C  21)                  1.0949         0.353690   
     72. B(H  69,N  23)                  1.0220         0.414042   
     73. B(H  70,C  24)                  1.1038         0.342294   
     74. B(H  71,C  25)                  1.0974         0.350401   
     75. B(H  72,C  25)                  1.0976         0.350245   
     76. B(H  73,C  25)                  1.0970         0.351005   
     77. B(H  74,C  27)                  1.1011         0.345691   
     78. B(H  75,C  27)                  1.1027         0.343720   
     79. B(H  76,C  28)                  1.1043         0.341667   
     80. B(H  77,C  29)                  1.0996         0.347635   
     81. B(H  78,C  29)                  1.1019         0.344647   
     82. B(H  79,C  29)                  1.0995         0.347735   
     83. B(H  80,C  30)                  1.0995         0.347698   
     84. B(H  81,C  30)                  1.0997         0.347489   
     85. B(H  82,C  30)                  1.1016         0.345048   
     86. B(H  83,C  33)                  1.0985         0.349053   
     87. B(H  84,C  33)                  1.1014         0.345368   
     88. B(H  85,H  77)                  4.7257         0.000000   
     89. B(H  85,C  34)                  1.1032         0.343047   
     90. B(H  86,C  34)                  1.1024         0.344090   
     91. B(H  87,C  35)                  1.1035         0.342720   
     92. B(H  88,H  61)                  4.7803         0.000000   
     93. B(H  88,C  35)                  1.1035         0.342679   
     94. B(H  89,C  36)                  1.1043         0.341613   
     95. B(H  90,C  36)                  1.1043         0.341701   
     96. B(H  91,C  37)                  1.1042         0.341763   
     97. B(H  92,C  37)                  1.1040         0.341986   
     98. B(H  93,C  38)                  1.1044         0.341597   
     99. B(H  94,C  38)                  1.1045         0.341482   
    100. B(H  95,C  39)                  1.1046         0.341347   
    101. B(H  96,C  39)                  1.1045         0.341449   
    102. B(H  97,C  40)                  1.1034         0.342782   
    103. B(H  98,C  40)                  1.1035         0.342738   
    104. B(H  99,C  41)                  1.0995         0.347757   
    105. B(H 100,C  41)                  1.1007         0.346163   
    106. B(H 101,C  41)                  1.1008         0.346146   
    107. B(H 102,O   0)                  1.7114         0.032901   
    108. B(H 102,O  43)                  0.9908         0.464277   
    109. B(H 103,C  45)                  1.0981         0.349493   
    110. B(H 104,C  45)                  1.1047         0.341216   
    111. B(H 105,C  46)                  1.0986         0.348870   
    112. B(H 106,C  46)                  1.0998         0.347333   
    113. B(H 107,C  46)                  1.1001         0.347011   
    114. B(H 108,C  48)                  1.1060         0.339604   
    115. B(H 109,C  49)                  1.1008         0.346089   
    116. B(H 110,C  49)                  1.0986         0.348958   
    117. B(H 111,C  49)                  1.1002         0.346914   
    118. B(H 112,C  50)                  1.0968         0.351170   
    119. B(H 113,C  50)                  1.0995         0.347795   
    120. B(H 114,C  50)                  1.0987         0.348802   
    121. A(O   0,C   1,N   9)          120.6513         0.467356   
    122. A(C   2,C   1,N   9)          115.6854         0.394613   
    123. A(O   0,C   1,C   2)          123.5783         0.425186   
    124. A(C   1,C   2,H  51)          107.2052         0.320842   
    125. A(N   6,C   2,H  51)          109.7112         0.328970   
    126. A(C   1,C   2,N   6)          111.0031         0.370070   
    127. A(C   1,C   2,C   3)          113.2696         0.358409   
    128. A(C   3,C   2,H  51)          112.0883         0.319014   
    129. A(C   3,C   2,N   6)          103.5706         0.367853   
    130. A(C   4,C   3,H  53)          113.2000         0.321923   
    131. A(C   4,C   3,H  52)          110.9010         0.321630   
    132. A(C   2,C   3,C   4)          103.7035         0.358796   
    133. A(C   2,C   3,H  53)          112.5084         0.319755   
    134. A(C   2,C   3,H  52)          108.7409         0.319464   
    135. A(H  52,C   3,H  53)          107.7284         0.287966   
    136. A(H  54,C   4,H  55)          107.5483         0.288573   
    137. A(C   3,C   4,H  55)          113.0790         0.322196   
    138. A(C   3,C   4,C   5)          104.1815         0.361857   
    139. A(C   3,C   4,H  54)          110.0138         0.322066   
    140. A(C   5,C   4,H  55)          112.3229         0.322646   
    141. A(C   5,C   4,H  54)          109.6735         0.322516   
    142. A(H  56,C   5,H  57)          108.7690         0.287891   
    143. A(C   4,C   5,N   6)          103.2109         0.366480   
    144. A(C   4,C   5,H  56)          111.6950         0.322841   
    145. A(N   6,C   5,H  57)          110.4567         0.325007   
    146. A(N   6,C   5,H  56)          110.7283         0.326345   
    147. A(C   4,C   5,H  57)          111.9173         0.321524   
    148. A(C   5,N   6,C   7)          128.5461         0.396793   
    149. A(C   2,N   6,C   7)          118.0528         0.401826   
    150. A(C   2,N   6,C   5)          113.3353         0.375242   
    151. A(O   8,C   7,C  24)          122.3896         0.426484   
    152. A(N   6,C   7,O   8)          120.5544         0.464766   
    153. A(N   6,C   7,C  24)          117.0478         0.391108   
    154. A(C   1,N   9,C  10)          122.1526         0.402089   
    155. A(C  10,N   9,H  58)          117.3872         0.334728   
    156. A(C   1,N   9,H  58)          117.7980         0.358948   
    157. A(C  48,C  10,H  59)          109.3927         0.318631   
    158. A(C  11,C  10,H  59)          104.3493         0.319843   
    159. A(N   9,C  10,C  11)          112.7414         0.366064   
    160. A(N   9,C  10,C  48)          109.2830         0.364610   
    161. A(N   9,C  10,H  59)          109.2512         0.326454   
    162. A(C  11,C  10,C  48)          111.6721         0.356937   
    163. A(N  12,C  11,O  47)          123.6259         0.467874   
    164. A(C  10,C  11,O  47)          120.4386         0.427562   
    165. A(C  10,C  11,N  12)          115.8442         0.390422   
    166. A(C  13,N  12,H  60)          118.8621         0.336973   
    167. A(C  11,N  12,C  13)          122.7142         0.401871   
    168. A(C  11,N  12,H  60)          118.4140         0.356344   
    169. A(C  14,C  13,C  45)          110.2840         0.358726   
    170. A(N  12,C  13,H  61)          105.5632         0.328732   
    171. A(C  14,C  13,H  61)          105.6121         0.319029   
    172. A(N  12,C  13,C  14)          114.3052         0.367456   
    173. A(C  45,C  13,H  61)          109.5956         0.321216   
    174. A(N  12,C  13,C  45)          111.1496         0.370103   
    175. A(C  13,C  14,N  15)          115.7498         0.390561   
    176. A(N  15,C  14,O  44)          124.2745         0.467988   
    177. A(C  13,C  14,O  44)          119.9677         0.424787   
    178. A(C  14,N  15,H  62)          117.5442         0.356774   
    179. A(C  16,N  15,H  62)          118.9224         0.336676   
    180. A(C  14,N  15,C  16)          122.2771         0.403812   
    181. A(H  63,C  16,H  64)          106.9038         0.288373   
    182. A(C  17,C  16,H  64)          110.7019         0.322517   
    183. A(N  15,C  16,H  63)          110.9775         0.329901   
    184. A(C  17,C  16,H  63)          109.3134         0.322433   
    185. A(N  15,C  16,C  17)          112.2181         0.371156   
    186. A(N  15,C  16,H  64)          106.5716         0.329988   
    187. A(O  43,C  17,H  65)          109.2025         0.331945   
    188. A(C  18,C  17,H  65)          108.9208         0.319949   
    189. A(C  16,C  17,H  65)          108.0396         0.321109   
    190. A(C  16,C  17,C  18)          113.2647         0.361043   
    191. A(C  18,C  17,O  43)          105.1324         0.373744   
    192. A(C  16,C  17,O  43)          112.1869         0.375174   
    193. A(C  19,C  18,H  66)          110.6533         0.320866   
    194. A(C  17,C  18,H  66)          105.4545         0.320221   
    195. A(C  17,C  18,C  32)          116.9373         0.358166   
    196. A(C  17,C  18,C  19)          110.4541         0.360439   
    197. A(C  19,C  18,C  32)          110.0380         0.358917   
    198. A(C  32,C  18,H  66)          102.8752         0.318925   
    199. A(C  18,C  19,N  20)          118.3325         0.391560   
    200. A(N  20,C  19,O  31)          120.9639         0.465741   
    201. A(C  18,C  19,O  31)          120.7034         0.427932   
    202. A(C  19,N  20,H  67)          113.4719         0.355077   
    203. A(C  19,N  20,C  21)          129.2283         0.400587   
    204. A(C  21,N  20,H  67)          115.6712         0.335517   
    205. A(C  27,C  21,H  68)          110.2103         0.323434   
    206. A(C  22,C  21,H  68)          108.5932         0.321236   
    207. A(N  20,C  21,H  68)          107.6706         0.329407   
    208. A(N  20,C  21,C  22)          107.2991         0.367869   
    209. A(C  22,C  21,C  27)          110.9505         0.360941   
    210. A(N  20,C  21,C  27)          111.9759         0.370508   
    211. A(C  21,C  22,N  23)          114.5815         0.391626   
    212. A(C  21,C  22,O  26)          121.5494         0.425729   
    213. A(N  23,C  22,O  26)          123.8568         0.467271   
    214. A(C  22,N  23,C  24)          121.2232         0.401512   
    215. A(C  24,N  23,H  69)          119.8578         0.334633   
    216. A(C  22,N  23,H  69)          117.0135         0.356207   
    217. A(C  25,C  24,H  70)          109.1912         0.322363   
    218. A(N  23,C  24,H  70)          105.3059         0.327052   
    219. A(C   7,C  24,H  70)          108.7344         0.320348   
    220. A(N  23,C  24,C  25)          111.6049         0.370622   
    221. A(C   7,C  24,N  23)          110.5674         0.368191   
    222. A(C   7,C  24,C  25)          111.2217         0.362692   
    223. A(H  71,C  25,H  73)          109.4561         0.288438   
    224. A(C  24,C  25,H  73)          110.6361         0.323694   
    225. A(H  71,C  25,H  72)          109.0331         0.288340   
    226. A(C  24,C  25,H  72)          110.6488         0.323579   
    227. A(C  24,C  25,H  71)          109.0640         0.323603   
    228. A(H  72,C  25,H  73)          107.9741         0.288418   
    229. A(C  28,C  27,H  75)          110.0113         0.320522   
    230. A(C  21,C  27,C  28)          114.1183         0.361865   
    231. A(H  74,C  27,H  75)          107.3372         0.286886   
    232. A(C  21,C  27,H  75)          107.8521         0.321921   
    233. A(C  28,C  27,H  74)          109.3487         0.320821   
    234. A(C  21,C  27,H  74)          107.9373         0.322223   
    235. A(C  29,C  28,C  30)          110.7965         0.361914   
    236. A(C  27,C  28,C  30)          109.8873         0.361254   
    237. A(C  27,C  28,C  29)          112.2155         0.360882   
    238. A(C  30,C  28,H  76)          107.8142         0.321086   
    239. A(C  29,C  28,H  76)          108.2409         0.320768   
    240. A(C  27,C  28,H  76)          107.7248         0.320208   
    241. A(C  28,C  29,H  79)          110.8201         0.321693   
    242. A(H  78,C  29,H  79)          107.6334         0.287271   
    243. A(H  77,C  29,H  79)          107.0865         0.287659   
    244. A(H  77,C  29,H  78)          107.9697         0.287258   
    245. A(C  28,C  29,H  78)          110.7411         0.321224   
    246. A(C  28,C  29,H  77)          112.3868         0.321678   
    247. A(H  81,C  30,H  82)          107.7170         0.287292   
    248. A(H  80,C  30,H  82)          107.8068         0.287319   
    249. A(C  28,C  30,H  82)          110.7392         0.321604   
    250. A(H  80,C  30,H  81)          108.0096         0.287635   
    251. A(C  28,C  30,H  81)          111.2031         0.321975   
    252. A(C  28,C  30,H  80)          111.2142         0.322007   
    253. A(C  33,C  32,O  42)          121.8725         0.437295   
    254. A(C  18,C  32,O  42)          119.5767         0.428861   
    255. A(C  18,C  32,C  33)          118.2251         0.363299   
    256. A(C  32,C  33,C  34)          111.5054         0.363858   
    257. A(C  34,C  33,H  84)          109.1878         0.319712   
    258. A(H  83,C  33,H  84)          107.9164         0.287535   
    259. A(C  32,C  33,H  84)          111.0032         0.324956   
    260. A(C  34,C  33,H  83)          109.9675         0.320267   
    261. A(C  32,C  33,H  83)          107.1789         0.325524   
    262. A(C  33,C  34,C  35)          112.2510         0.360588   
    263. A(H  85,C  34,H  86)          106.2873         0.286591   
    264. A(C  35,C  34,H  86)          110.0316         0.321954   
    265. A(C  33,C  34,H  86)          109.0245         0.319519   
    266. A(C  35,C  34,H  85)          108.9599         0.321794   
    267. A(C  33,C  34,H  85)          110.1123         0.319360   
    268. A(C  34,C  35,C  36)          113.0997         0.363408   
    269. A(H  87,C  35,H  88)          106.0266         0.286364   
    270. A(C  36,C  35,H  88)          109.5007         0.321696   
    271. A(C  34,C  35,H  88)          109.0859         0.321737   
    272. A(C  36,C  35,H  87)          109.5959         0.321702   
    273. A(C  34,C  35,H  87)          109.2861         0.321743   
    274. A(C  35,C  36,C  37)          113.3125         0.363271   
    275. A(H  89,C  36,H  90)          106.0129         0.286093   
    276. A(C  37,C  36,H  90)          109.3554         0.321471   
    277. A(C  35,C  36,H  90)          109.4207         0.321545   
    278. A(C  37,C  36,H  89)          109.2369         0.321457   
    279. A(C  35,C  36,H  89)          109.2427         0.321532   
    280. A(C  36,C  37,C  38)          113.4603         0.363212   
    281. A(H  91,C  37,H  92)          105.9478         0.286149   
    282. A(C  38,C  37,H  92)          109.3096         0.321539   
    283. A(C  36,C  37,H  92)          109.2264         0.321514   
    284. A(C  38,C  37,H  91)          109.3312         0.321505   
    285. A(C  36,C  37,H  91)          109.2916         0.321480   
    286. A(C  37,C  38,C  39)          113.5019         0.363254   
    287. A(H  93,C  38,H  94)          105.9281         0.286062   
    288. A(C  39,C  38,H  94)          109.2933         0.321473   
    289. A(C  37,C  38,H  94)          109.3092         0.321461   
    290. A(C  39,C  38,H  93)          109.2780         0.321491   
    291. A(C  37,C  38,H  93)          109.2522         0.321479   
    292. A(C  38,C  39,C  40)          113.5839         0.363090   
    293. A(H  95,C  39,H  96)          105.8736         0.286025   
    294. A(C  40,C  39,H  96)          109.2432         0.321317   
    295. A(C  38,C  39,H  96)          109.2938         0.321468   
    296. A(C  40,C  39,H  95)          109.2418         0.321301   
    297. A(C  38,C  39,H  95)          109.3168         0.321452   
    298. A(C  39,C  40,C  41)          113.1284         0.363157   
    299. A(H  97,C  40,H  98)          105.9449         0.286380   
    300. A(C  41,C  40,H  98)          109.6301         0.321723   
    301. A(C  39,C  40,H  98)          109.1318         0.321515   
    302. A(C  41,C  40,H  97)          109.6331         0.321729   
    303. A(C  39,C  40,H  97)          109.1185         0.321522   
    304. A(H 100,C  41,H 101)          107.4371         0.287263   
    305. A(H  99,C  41,H 101)          107.6917         0.287469   
    306. A(C  40,C  41,H 101)          111.0826         0.322244   
    307. A(H  99,C  41,H 100)          107.6947         0.287471   
    308. A(C  40,C  41,H 100)          111.0795         0.322247   
    309. A(C  40,C  41,H  99)          111.6633         0.322490   
    310. A(C  17,O  43,H 102)          111.1073         0.346403   
    311. A(C  13,C  45,C  46)          112.9073         0.362867   
    312. A(C  46,C  45,H 104)          110.4988         0.321933   
    313. A(C  13,C  45,H 104)          108.8908         0.320592   
    314. A(C  46,C  45,H 103)          111.0126         0.323200   
    315. A(C  13,C  45,H 103)          106.9620         0.321852   
    316. A(H 103,C  45,H 104)          106.2896         0.287049   
    317. A(H 106,C  46,H 107)          107.5300         0.287526   
    318. A(H 105,C  46,H 107)          107.7398         0.287725   
    319. A(C  45,C  46,H 107)          111.6678         0.322823   
    320. A(H 105,C  46,H 106)          107.8987         0.287767   
    321. A(C  45,C  46,H 106)          110.8263         0.322872   
    322. A(C  45,C  46,H 105)          111.0086         0.323106   
    323. A(C  50,C  48,H 108)          108.2083         0.320878   
    324. A(C  49,C  48,H 108)          108.7821         0.320201   
    325. A(C  10,C  48,H 108)          107.0148         0.317884   
    326. A(C  49,C  48,C  50)          110.2503         0.361749   
    327. A(C  10,C  48,C  50)          111.5114         0.359016   
    328. A(C  10,C  48,C  49)          110.9443         0.358228   
    329. A(H 110,C  49,H 111)          107.9603         0.287724   
    330. A(H 109,C  49,H 111)          107.4542         0.287353   
    331. A(C  48,C  49,H 111)          110.4233         0.321318   
    332. A(H 109,C  49,H 110)          106.8216         0.287617   
    333. A(C  48,C  49,H 110)          110.2398         0.321627   
    334. A(C  48,C  49,H 109)          113.7098         0.321193   
    335. A(H 113,C  50,H 114)          108.2121         0.287818   
    336. A(H 112,C  50,H 114)          108.2844         0.288253   
    337. A(C  48,C  50,H 114)          109.8065         0.322284   
    338. A(H 112,C  50,H 113)          107.3991         0.288122   
    339. A(C  48,C  50,H 113)          110.8835         0.322132   
    340. A(C  48,C  50,H 112)          112.1258         0.322642   
    341. D(H  51,C   2,C   1,N   9)     43.6049         0.010007   
    342. D(C   3,C   2,C   1,N   9)    -80.5664         0.010007   
    343. D(N   6,C   2,C   1,N   9)    163.4125         0.010007   
    344. D(N   6,C   2,C   1,O   0)    -19.9269         0.010007   
    345. D(C   3,C   2,C   1,O   0)     96.0941         0.010007   
    346. D(H  51,C   2,C   1,O   0)   -139.7346         0.010007   
    347. D(C   4,C   3,C   2,N   6)     27.6800         0.010008   
    348. D(H  53,C   3,C   2,H  51)    -91.4483         0.010008   
    349. D(H  53,C   3,C   2,C   1)     30.0189         0.010008   
    350. D(C   4,C   3,C   2,H  51)    145.8706         0.010008   
    351. D(H  53,C   3,C   2,N   6)    150.3612         0.010008   
    352. D(H  52,C   3,C   2,H  51)     27.8042         0.010008   
    353. D(C   4,C   3,C   2,C   1)    -92.6623         0.010008   
    354. D(H  52,C   3,C   2,C   1)    149.2714         0.010008   
    355. D(H  52,C   3,C   2,N   6)    -90.3863         0.010008   
    356. D(H  55,C   4,C   3,H  53)     80.4886         0.010807   
    357. D(H  55,C   4,C   3,H  52)    -40.7300         0.010807   
    358. D(H  54,C   4,C   3,H  52)   -160.9957         0.010807   
    359. D(H  55,C   4,C   3,C   2)   -157.2887         0.010807   
    360. D(H  54,C   4,C   3,H  53)    -39.7770         0.010807   
    361. D(C   5,C   4,C   3,C   2)    -35.0449         0.010807   
    362. D(H  54,C   4,C   3,C   2)     82.4457         0.010807   
    363. D(C   5,C   4,C   3,H  53)   -157.2676         0.010807   
    364. D(C   5,C   4,C   3,H  52)     81.5138         0.010807   
    365. D(N   6,C   5,C   4,C   3)     28.5181         0.010981   
    366. D(H  57,C   5,C   4,C   3)    -90.2602         0.010981   
    367. D(H  56,C   5,C   4,H  55)    -89.7508         0.010981   
    368. D(H  56,C   5,C   4,C   3)    147.5088         0.010981   
    369. D(H  57,C   5,C   4,H  54)    152.0144         0.010981   
    370. D(H  56,C   5,C   4,H  54)     29.7834         0.010981   
    371. D(H  57,C   5,C   4,H  55)     32.4802         0.010981   
    372. D(N   6,C   5,C   4,H  54)    -89.2074         0.010981   
    373. D(N   6,C   5,C   4,H  55)    151.2585         0.010981   
    374. D(C   5,N   6,C   2,C   3)    -10.2293         0.016589   
    375. D(C   7,N   6,C   5,H  57)    -68.6484         0.014379   
    376. D(C   7,N   6,C   5,H  56)     51.9052         0.014379   
    377. D(C   7,N   6,C   5,C   4)    171.5638         0.014379   
    378. D(C   2,N   6,C   5,H  57)    108.3060         0.014379   
    379. D(C   2,N   6,C   5,H  56)   -131.1405         0.014379   
    380. D(C   7,N   6,C   2,H  51)     47.2442         0.016589   
    381. D(C   2,N   6,C   5,C   4)    -11.4818         0.014379   
    382. D(C   7,N   6,C   2,C   3)    167.0719         0.016589   
    383. D(C   5,N   6,C   2,C   1)    111.6412         0.016589   
    384. D(C   7,N   6,C   2,C   1)    -71.0577         0.016589   
    385. D(C   5,N   6,C   2,H  51)   -130.0569         0.016589   
    386. D(C  24,C   7,N   6,C   5)     -0.3022         0.029826   
    387. D(C  24,C   7,N   6,C   2)   -177.1333         0.029826   
    388. D(O   8,C   7,N   6,C   5)    178.6797         0.029826   
    389. D(O   8,C   7,N   6,C   2)      1.8487         0.029826   
    390. D(H  58,N   9,C   1,O   0)    171.2378         0.033165   
    391. D(C  10,N   9,C   1,C   2)   -173.0096         0.033165   
    392. D(H  58,N   9,C   1,C   2)    -11.9961         0.033165   
    393. D(C  10,N   9,C   1,O   0)     10.2243         0.033165   
    394. D(H  59,C  10,N   9,C   1)     61.1051         0.015146   
    395. D(C  48,C  10,N   9,H  58)     19.6742         0.015146   
    396. D(C  48,C  10,N   9,C   1)   -179.2386         0.015146   
    397. D(C  11,C  10,N   9,C   1)    -54.4276         0.015146   
    398. D(H  59,C  10,N   9,H  58)    -99.9821         0.015146   
    399. D(C  11,C  10,N   9,H  58)    144.4852         0.015146   
    400. D(O  47,C  11,C  10,N   9)    142.4869         0.009681   
    401. D(N  12,C  11,C  10,H  59)   -159.3040         0.009681   
    402. D(N  12,C  11,C  10,C  48)     82.6318         0.009681   
    403. D(N  12,C  11,C  10,N   9)    -40.8638         0.009681   
    404. D(O  47,C  11,C  10,H  59)     24.0467         0.009681   
    405. D(O  47,C  11,C  10,C  48)    -94.0175         0.009681   
    406. D(H  60,N  12,C  11,O  47)    179.2416         0.030222   
    407. D(H  60,N  12,C  11,C  10)      2.7111         0.030222   
    408. D(C  13,N  12,C  11,O  47)     -1.9035         0.030222   
    409. D(C  13,N  12,C  11,C  10)   -178.4340         0.030222   
    410. D(H  61,C  13,N  12,C  11)     16.4821         0.016406   
    411. D(H  61,C  13,N  12,H  60)   -164.6679         0.016406   
    412. D(C  45,C  13,N  12,H  60)    -45.9149         0.016406   
    413. D(C  45,C  13,N  12,C  11)    135.2351         0.016406   
    414. D(C  14,C  13,N  12,C  11)    -99.1327         0.016406   
    415. D(C  14,C  13,N  12,H  60)     79.7173         0.016406   
    416. D(O  44,C  14,C  13,C  45)    -52.0518         0.009370   
    417. D(O  44,C  14,C  13,N  12)   -178.1369         0.009370   
    418. D(N  15,C  14,C  13,H  61)   -114.7099         0.009370   
    419. D(N  15,C  14,C  13,C  45)    126.9616         0.009370   
    420. D(O  44,C  14,C  13,H  61)     66.2767         0.009370   
    421. D(N  15,C  14,C  13,N  12)      0.8765         0.009370   
    422. D(H  62,N  15,C  14,O  44)   -169.7328         0.031543   
    423. D(H  62,N  15,C  14,C  13)     11.3014         0.031543   
    424. D(C  16,N  15,C  14,O  44)     -2.6857         0.031543   
    425. D(C  16,N  15,C  14,C  13)    178.3486         0.031543   
    426. D(H  64,C  16,N  15,H  62)    173.7654         0.016655   
    427. D(H  64,C  16,N  15,C  14)      6.8896         0.016655   
    428. D(H  63,C  16,N  15,H  62)    -70.1949         0.016655   
    429. D(H  63,C  16,N  15,C  14)    122.9293         0.016655   
    430. D(C  17,C  16,N  15,C  14)   -114.4395         0.016655   
    431. D(C  17,C  16,N  15,H  62)     52.4363         0.016655   
    432. D(H  65,C  17,C  16,H  64)    -67.7477         0.010985   
    433. D(H  65,C  17,C  16,H  63)    174.7483         0.010985   
    434. D(H  65,C  17,C  16,N  15)     51.1805         0.010985   
    435. D(O  43,C  17,C  16,H  64)    171.8283         0.010985   
    436. D(O  43,C  17,C  16,H  63)     54.3243         0.010985   
    437. D(O  43,C  17,C  16,N  15)    -69.2434         0.010985   
    438. D(C  18,C  17,C  16,H  64)     52.9981         0.010985   
    439. D(C  18,C  17,C  16,H  63)    -64.5059         0.010985   
    440. D(C  18,C  17,C  16,N  15)    171.9264         0.010985   
    441. D(H  66,C  18,C  17,H  65)    -60.5684         0.010539   
    442. D(H  66,C  18,C  17,O  43)     56.3602         0.010539   
    443. D(H  66,C  18,C  17,C  16)    179.1857         0.010539   
    444. D(C  32,C  18,C  17,O  43)    169.9266         0.010539   
    445. D(C  32,C  18,C  17,C  16)    -67.2479         0.010539   
    446. D(C  32,C  18,C  17,H  65)     52.9979         0.010539   
    447. D(C  19,C  18,C  17,H  65)    179.8485         0.010539   
    448. D(C  19,C  18,C  17,O  43)    -63.2228         0.010539   
    449. D(C  19,C  18,C  17,C  16)     59.6027         0.010539   
    450. D(O  31,C  19,C  18,H  66)    170.6008         0.010104   
    451. D(O  31,C  19,C  18,C  32)     57.5869         0.010104   
    452. D(O  31,C  19,C  18,C  17)    -73.0062         0.010104   
    453. D(N  20,C  19,C  18,H  66)     -9.2261         0.010104   
    454. D(N  20,C  19,C  18,C  17)    107.1669         0.010104   
    455. D(N  20,C  19,C  18,C  32)   -122.2400         0.010104   
    456. D(H  67,N  20,C  19,O  31)     -0.2734         0.029798   
    457. D(H  67,N  20,C  19,C  18)    179.5531         0.029798   
    458. D(C  21,N  20,C  19,O  31)    164.3484         0.029798   
    459. D(C  21,N  20,C  19,C  18)    -15.8252         0.029798   
    460. D(H  68,C  21,N  20,H  67)    167.8292         0.016029   
    461. D(H  68,C  21,N  20,C  19)      3.4866         0.016029   
    462. D(C  27,C  21,N  20,H  67)    -70.8694         0.016029   
    463. D(C  27,C  21,N  20,C  19)    124.7881         0.016029   
    464. D(C  22,C  21,N  20,H  67)     51.1041         0.016029   
    465. D(C  22,C  21,N  20,C  19)   -113.2385         0.016029   
    466. D(N  23,C  22,C  21,C  27)   -131.6244         0.009687   
    467. D(N  23,C  22,C  21,N  20)    105.7643         0.009687   
    468. D(O  26,C  22,C  21,H  68)    170.8718         0.009687   
    469. D(O  26,C  22,C  21,C  27)     49.6003         0.009687   
    470. D(O  26,C  22,C  21,N  20)    -73.0111         0.009687   
    471. D(N  23,C  22,C  21,H  68)    -10.3528         0.009687   
    472. D(H  69,N  23,C  22,O  26)    166.4718         0.031368   
    473. D(H  69,N  23,C  22,C  21)    -12.2714         0.031368   
    474. D(C  24,N  23,C  22,O  26)      2.2103         0.031368   
    475. D(C  24,N  23,C  22,C  21)   -176.5330         0.031368   
    476. D(H  70,C  24,N  23,H  69)   -143.2922         0.015688   
    477. D(H  70,C  24,N  23,C  22)     20.5289         0.015688   
    478. D(C  25,C  24,N  23,H  69)     98.3519         0.015688   
    479. D(C  25,C  24,N  23,C  22)    -97.8271         0.015688   
    480. D(C   7,C  24,N  23,H  69)    -26.0112         0.015688   
    481. D(C   7,C  24,N  23,C  22)    137.8098         0.015688   
    482. D(H  70,C  24,C   7,O   8)   -129.2629         0.009973   
    483. D(H  70,C  24,C   7,N   6)     49.6989         0.009973   
    484. D(C  25,C  24,C   7,O   8)     -8.9939         0.009973   
    485. D(C  25,C  24,C   7,N   6)    169.9679         0.009973   
    486. D(N  23,C  24,C   7,O   8)    115.5880         0.009973   
    487. D(N  23,C  24,C   7,N   6)    -65.4502         0.009973   
    488. D(H  73,C  25,C  24,H  70)   -179.3110         0.011439   
    489. D(H  73,C  25,C  24,N  23)    -63.3048         0.011439   
    490. D(H  73,C  25,C  24,C   7)     60.6904         0.011439   
    491. D(H  72,C  25,C  24,H  70)     61.0653         0.011439   
    492. D(H  72,C  25,C  24,N  23)    177.0716         0.011439   
    493. D(H  72,C  25,C  24,C   7)    -58.9332         0.011439   
    494. D(H  71,C  25,C  24,H  70)    -58.8655         0.011439   
    495. D(H  71,C  25,C  24,N  23)     57.1407         0.011439   
    496. D(H  71,C  25,C  24,C   7)   -178.8641         0.011439   
    497. D(H  75,C  27,C  21,H  68)     63.6740         0.011171   
    498. D(H  75,C  27,C  21,C  22)   -176.0102         0.011171   
    499. D(H  75,C  27,C  21,N  20)    -56.1515         0.011171   
    500. D(H  74,C  27,C  21,H  68)    179.3523         0.011171   
    501. D(H  74,C  27,C  21,C  22)    -60.3318         0.011171   
    502. D(H  74,C  27,C  21,N  20)     59.5269         0.011171   
    503. D(C  28,C  27,C  21,H  68)    -58.8799         0.011171   
    504. D(C  28,C  27,C  21,C  22)     61.4360         0.011171   
    505. D(C  28,C  27,C  21,N  20)   -178.7054         0.011171   
    506. D(H  76,C  28,C  27,H  75)   -179.8631         0.010627   
    507. D(H  76,C  28,C  27,H  74)     62.4905         0.010627   
    508. D(H  76,C  28,C  27,C  21)    -58.4964         0.010627   
    509. D(C  30,C  28,C  27,H  75)     62.9324         0.010627   
    510. D(C  30,C  28,C  27,H  74)    -54.7139         0.010627   
    511. D(C  30,C  28,C  27,C  21)   -175.7008         0.010627   
    512. D(C  29,C  28,C  27,H  75)    -60.8182         0.010627   
    513. D(C  29,C  28,C  27,H  74)   -178.4646         0.010627   
    514. D(C  29,C  28,C  27,C  21)     60.5485         0.010627   
    515. D(H  79,C  29,C  28,C  30)     53.9050         0.010841   
    516. D(H  79,C  29,C  28,C  27)    177.1463         0.010841   
    517. D(H  78,C  29,C  28,H  76)    176.5109         0.010841   
    518. D(H  78,C  29,C  28,C  30)    -65.4718         0.010841   
    519. D(H  78,C  29,C  28,C  27)     57.7695         0.010841   
    520. D(H  77,C  29,C  28,H  76)     55.6626         0.010841   
    521. D(H  77,C  29,C  28,C  30)    173.6799         0.010841   
    522. D(H  79,C  29,C  28,H  76)    -64.1123         0.010841   
    523. D(H  77,C  29,C  28,C  27)    -63.0787         0.010841   
    524. D(H  82,C  30,C  28,H  76)   -179.8262         0.010965   
    525. D(H  82,C  30,C  28,C  29)     61.8970         0.010965   
    526. D(H  82,C  30,C  28,C  27)    -62.6777         0.010965   
    527. D(H  81,C  30,C  28,H  76)     60.4432         0.010965   
    528. D(H  81,C  30,C  28,C  29)    -57.8336         0.010965   
    529. D(H  81,C  30,C  28,C  27)    177.5918         0.010965   
    530. D(H  80,C  30,C  28,H  76)    -59.9754         0.010965   
    531. D(H  80,C  30,C  28,C  29)   -178.2522         0.010965   
    532. D(H  80,C  30,C  28,C  27)     57.1732         0.010965   
    533. D(O  42,C  32,C  18,H  66)    -84.9797         0.009437   
    534. D(O  42,C  32,C  18,C  19)     32.9565         0.009437   
    535. D(O  42,C  32,C  18,C  17)    160.0111         0.009437   
    536. D(C  33,C  32,C  18,H  66)     88.5913         0.009437   
    537. D(C  33,C  32,C  18,C  19)   -153.4724         0.009437   
    538. D(C  33,C  32,C  18,C  17)    -26.4178         0.009437   
    539. D(H  84,C  33,C  32,O  42)   -134.5980         0.011548   
    540. D(H  84,C  33,C  32,C  18)     51.9866         0.011548   
    541. D(H  83,C  33,C  32,O  42)    -16.9783         0.011548   
    542. D(H  83,C  33,C  32,C  18)    169.6063         0.011548   
    543. D(C  34,C  33,C  32,O  42)    103.4187         0.011548   
    544. D(C  34,C  33,C  32,C  18)    -69.9967         0.011548   
    545. D(H  86,C  34,C  33,H  84)    176.3778         0.010233   
    546. D(H  86,C  34,C  33,H  83)     58.1490         0.010233   
    547. D(H  86,C  34,C  33,C  32)    -60.5964         0.010233   
    548. D(H  85,C  34,C  33,H  84)    -67.3787         0.010233   
    549. D(H  85,C  34,C  33,H  83)    174.3925         0.010233   
    550. D(H  85,C  34,C  33,C  32)     55.6471         0.010233   
    551. D(C  35,C  34,C  33,H  84)     54.1997         0.010233   
    552. D(C  35,C  34,C  33,H  83)    -64.0291         0.010233   
    553. D(C  35,C  34,C  33,C  32)    177.2255         0.010233   
    554. D(H  88,C  35,C  34,H  86)   -178.5548         0.011161   
    555. D(H  88,C  35,C  34,H  85)     65.2843         0.011161   
    556. D(H  88,C  35,C  34,C  33)    -56.9508         0.011161   
    557. D(H  87,C  35,C  34,H  86)    -63.0500         0.011161   
    558. D(H  87,C  35,C  34,H  85)   -179.2109         0.011161   
    559. D(H  87,C  35,C  34,C  33)     58.5539         0.011161   
    560. D(C  36,C  35,C  34,H  86)     59.3310         0.011161   
    561. D(C  36,C  35,C  34,H  85)    -56.8299         0.011161   
    562. D(C  36,C  35,C  34,C  33)   -179.0650         0.011161   
    563. D(H  90,C  36,C  35,H  87)     64.1796         0.011145   
    564. D(H  90,C  36,C  35,C  34)    -58.0284         0.011145   
    565. D(H  89,C  36,C  35,H  88)    -64.2601         0.011145   
    566. D(H  89,C  36,C  35,H  87)    179.8297         0.011145   
    567. D(H  89,C  36,C  35,C  34)     57.6217         0.011145   
    568. D(C  37,C  36,C  35,H  88)     57.7736         0.011145   
    569. D(C  37,C  36,C  35,H  87)    -58.1366         0.011145   
    570. D(H  90,C  36,C  35,H  88)   -179.9102         0.011145   
    571. D(C  37,C  36,C  35,C  34)    179.6554         0.011145   
    572. D(H  92,C  37,C  36,H  90)   -179.6675         0.011115   
    573. D(H  92,C  37,C  36,H  89)     64.7220         0.011115   
    574. D(H  92,C  37,C  36,C  35)    -57.3150         0.011115   
    575. D(H  91,C  37,C  36,H  90)    -64.1760         0.011115   
    576. D(H  91,C  37,C  36,H  89)   -179.7865         0.011115   
    577. D(H  91,C  37,C  36,C  35)     58.1765         0.011115   
    578. D(C  38,C  37,C  36,H  90)     58.1161         0.011115   
    579. D(C  38,C  37,C  36,H  89)    -57.4944         0.011115   
    580. D(C  38,C  37,C  36,C  35)   -179.5314         0.011115   
    581. D(H  94,C  38,C  37,H  92)   -179.8943         0.011125   
    582. D(H  94,C  38,C  37,H  91)     64.5460         0.011125   
    583. D(H  94,C  38,C  37,C  36)    -57.7241         0.011125   
    584. D(H  93,C  38,C  37,H  92)    -64.4024         0.011125   
    585. D(H  93,C  38,C  37,H  91)   -179.9620         0.011125   
    586. D(H  93,C  38,C  37,C  36)     57.7678         0.011125   
    587. D(C  39,C  38,C  37,H  92)     57.8208         0.011125   
    588. D(C  39,C  38,C  37,H  91)    -57.7388         0.011125   
    589. D(C  39,C  38,C  37,C  36)    179.9911         0.011125   
    590. D(H  95,C  39,C  38,H  94)    -64.4676         0.011130   
    591. D(H  95,C  39,C  38,H  93)   -179.9651         0.011130   
    592. D(H  95,C  39,C  38,C  37)     57.8260         0.011130   
    593. D(C  40,C  39,C  38,H  94)     57.8129         0.011130   
    594. D(C  40,C  39,C  38,H  93)    -57.6846         0.011130   
    595. D(C  40,C  39,C  38,C  37)   -179.8935         0.011130   
    596. D(H  96,C  39,C  38,H  94)   -179.9217         0.011130   
    597. D(H  96,C  39,C  38,H  93)     64.5808         0.011130   
    598. D(H  96,C  39,C  38,C  37)    -57.6281         0.011130   
    599. D(H  98,C  40,C  39,H  95)     64.6692         0.011070   
    600. D(H  98,C  40,C  39,C  38)    -57.6528         0.011070   
    601. D(H  97,C  40,C  39,H  96)    -64.6056         0.011070   
    602. D(H  97,C  40,C  39,H  95)   -179.9902         0.011070   
    603. D(H  97,C  40,C  39,C  38)     57.6878         0.011070   
    604. D(C  41,C  40,C  39,H  96)     57.7212         0.011070   
    605. D(C  41,C  40,C  39,H  95)    -57.6635         0.011070   
    606. D(H  98,C  40,C  39,H  96)   -179.9462         0.011070   
    607. D(C  41,C  40,C  39,C  38)   -179.9855         0.011070   
    608. D(H 101,C  41,C  40,H  98)    -62.2905         0.011152   
    609. D(H 101,C  41,C  40,H  97)   -178.1970         0.011152   
    610. D(H 101,C  41,C  40,C  39)     59.7638         0.011152   
    611. D(H 100,C  41,C  40,H  98)    178.1855         0.011152   
    612. D(H 100,C  41,C  40,H  97)     62.2789         0.011152   
    613. D(H 100,C  41,C  40,C  39)    -59.7603         0.011152   
    614. D(H  99,C  41,C  40,H  98)     57.9467         0.011152   
    615. D(H  99,C  41,C  40,H  97)    -57.9599         0.011152   
    616. D(H  99,C  41,C  40,C  39)   -179.9991         0.011152   
    617. D(H 102,O  43,C  17,H  65)    -66.8039         0.017444   
    618. D(H 102,O  43,C  17,C  18)    176.4599         0.017444   
    619. D(H 102,O  43,C  17,C  16)     52.9437         0.017444   
    620. D(H 104,C  45,C  13,H  61)    175.5339         0.010800   
    621. D(H 104,C  45,C  13,C  14)    -68.6089         0.010800   
    622. D(H 104,C  45,C  13,N  12)     59.2329         0.010800   
    623. D(H 103,C  45,C  13,H  61)    -69.9898         0.010800   
    624. D(H 103,C  45,C  13,C  14)     45.8673         0.010800   
    625. D(H 103,C  45,C  13,N  12)    173.7092         0.010800   
    626. D(C  46,C  45,C  13,H  61)     52.4126         0.010800   
    627. D(C  46,C  45,C  13,C  14)    168.2697         0.010800   
    628. D(C  46,C  45,C  13,N  12)    -63.8884         0.010800   
    629. D(H 107,C  46,C  45,H 104)    -62.9227         0.011331   
    630. D(H 107,C  46,C  45,H 103)    179.4064         0.011331   
    631. D(H 107,C  46,C  45,C  13)     59.3011         0.011331   
    632. D(H 106,C  46,C  45,H 104)    177.2167         0.011331   
    633. D(H 106,C  46,C  45,H 103)     59.5458         0.011331   
    634. D(H 106,C  46,C  45,C  13)    -60.5595         0.011331   
    635. D(H 105,C  46,C  45,H 104)     57.3280         0.011331   
    636. D(H 105,C  46,C  45,H 103)    -60.3429         0.011331   
    637. D(H 105,C  46,C  45,C  13)    179.5517         0.011331   
    638. D(H 108,C  48,C  10,H  59)    174.3315         0.009893   
    639. D(H 108,C  48,C  10,C  11)    -70.6690         0.009893   
    640. D(H 108,C  48,C  10,N   9)     54.7625         0.009893   
    641. D(C  50,C  48,C  10,H  59)    -67.5138         0.009893   
    642. D(C  50,C  48,C  10,C  11)     47.4856         0.009893   
    643. D(C  50,C  48,C  10,N   9)    172.9172         0.009893   
    644. D(C  49,C  48,C  10,H  59)     55.7992         0.009893   
    645. D(C  49,C  48,C  10,C  11)    170.7986         0.009893   
    646. D(C  49,C  48,C  10,N   9)    -63.7699         0.009893   
    647. D(H 111,C  49,C  48,C  50)     62.3707         0.010745   
    648. D(H 111,C  49,C  48,C  10)    -61.6644         0.010745   
    649. D(H 110,C  49,C  48,H 108)     61.6684         0.010745   
    650. D(H 110,C  49,C  48,C  50)    -56.8379         0.010745   
    651. D(H 110,C  49,C  48,C  10)    179.1270         0.010745   
    652. D(H 109,C  49,C  48,H 108)    -58.2525         0.010745   
    653. D(H 109,C  49,C  48,C  50)   -176.7588         0.010745   
    654. D(H 111,C  49,C  48,H 108)   -179.1230         0.010745   
    655. D(H 109,C  49,C  48,C  10)     59.2061         0.010745   
    656. D(H 114,C  50,C  48,H 108)    -64.2510         0.011008   
    657. D(H 114,C  50,C  48,C  49)     54.6062         0.011008   
    658. D(H 114,C  50,C  48,C  10)    178.3131         0.011008   
    659. D(H 113,C  50,C  48,H 108)    176.2142         0.011008   
    660. D(H 113,C  50,C  48,C  49)    -64.9286         0.011008   
    661. D(H 113,C  50,C  48,C  10)     58.7783         0.011008   
    662. D(H 112,C  50,C  48,H 108)     56.1733         0.011008   
    663. D(H 112,C  50,C  48,C  49)    175.0305         0.011008   
    664. D(H 112,C  50,C  48,C  10)    -61.2626         0.011008   
    -----------------------------------------------------------------

Number of atoms                         .... 115
Number of degrees of freedom            .... 664

         *************************************************************
         *                GEOMETRY OPTIMIZATION CYCLE   1            *
         *************************************************************
---------------------------------
CARTESIAN COORDINATES (ANGSTROEM)
---------------------------------
  O      0.482981    2.050025   -1.165725
  C      1.000970    2.746326   -2.050636
  C      2.511631    2.783791   -2.326892
  C      2.947629    1.835381   -3.466887
  C      3.323914    0.538981   -2.737314
  C      3.938790    1.015907   -1.417514
  N      3.263915    2.304536   -1.177625
  C      3.310459    3.096485   -0.063760
  O      2.700386    4.168980   -0.030453
  N      0.232469    3.480263   -2.889901
  C     -1.205694    3.668056   -2.668540
  C     -1.964829    2.335056   -2.521240
  N     -1.586492    1.337083   -3.373529
  C     -2.225906    0.028742   -3.386671
  C     -1.452641   -1.065167   -2.615129
  N     -0.299329   -0.662744   -2.016236
  C      0.520952   -1.565952   -1.224895
  C      0.563659   -1.164958    0.253149
  C      1.258105   -2.207514    1.145649
  C      2.707313   -2.424153    0.689250
  N      3.714257   -1.916682    1.463143
  C      3.648096   -0.918318    2.525630
  C      4.404686    0.329244    2.029896
  N      3.605379    1.371552    1.673014
  C      4.166663    2.599672    1.111577
  C      4.326011    3.682348    2.175443
  O      5.634625    0.348134    1.949640
  C      4.245447   -1.435743    3.835306
  C      4.172711   -0.433308    4.998007
  C      2.728357   -0.047509    5.341673
  C      4.889670   -1.005694    6.225360
  O      2.954469   -3.042406   -0.346243
  C      0.547314   -3.568672    1.314777
  C     -0.958818   -3.615508    1.154347
  C     -1.674277   -2.909170    2.324058
  C     -3.193401   -2.886911    2.145277
  C     -3.921414   -2.170290    3.284266
  C     -5.441030   -2.137854    3.106101
  C     -6.171738   -1.411908    4.237785
  C     -7.691252   -1.378722    4.060484
  C     -8.424019   -0.650591    5.190406
  C     -9.942143   -0.623917    5.002914
  O      1.184956   -4.537817    1.684804
  O      1.293697    0.055055    0.463653
  O     -1.882097   -2.218642   -2.587953
  C     -2.511511   -0.433538   -4.821775
  C     -3.509791    0.465750   -5.548585
  O     -2.889257    2.231673   -1.722479
  C     -1.789423    4.535033   -3.809606
  C     -1.178167    5.943322   -3.796517
  C     -3.316600    4.619132   -3.726145
  H      2.778949    3.832126   -2.535084
  H      3.822378    2.269165   -3.972137
  H      2.161754    1.695048   -4.220553
  H      2.422450   -0.051896   -2.532593
  H      4.010557   -0.093858   -3.311987
  H      3.737493    0.314762   -0.600269
  H      5.028316    1.161113   -1.499957
  H      0.700330    4.138008   -3.508155
  H     -1.361287    4.178938   -1.704556
  H     -0.815097    1.512752   -4.012071
  H     -3.175801    0.158598   -2.844469
  H     -0.119643    0.340131   -1.964525
  H      1.544687   -1.613248   -1.617930
  H      0.087383   -2.566902   -1.342844
  H     -0.475865   -1.030948    0.601351
  H      1.229968   -1.787197    2.165072
  H      4.646443   -2.109506    1.095056
  H      2.595173   -0.654230    2.668433
  H      2.606172    1.178997    1.578151
  H      5.162926    2.316746    0.729741
  H      4.958188    3.298094    2.986035
  H      4.795849    4.577882    1.748952
  H      3.348931    3.973042    2.580586
  H      5.297591   -1.700284    3.646976
  H      3.716132   -2.364864    4.104465
  H      4.710177    0.480321    4.688333
  H      2.223778    0.467914    4.511711
  H      2.136095   -0.940891    5.597339
  H      2.700186    0.629741    6.207389
  H      5.935224   -1.255873    5.994669
  H      4.887713   -0.287390    7.058057
  H      4.392459   -1.924735    6.574240
  H     -1.248854   -4.674509    1.121793
  H     -1.269441   -3.149833    0.205834
  H     -1.309589   -1.872542    2.421365
  H     -1.412326   -3.418752    3.265838
  H     -3.565735   -3.922286    2.061593
  H     -3.436782   -2.397227    1.186796
  H     -3.542355   -1.136168    3.364808
  H     -3.675687   -2.660326    4.242864
  H     -5.821486   -3.171621    3.029318
  H     -5.684074   -1.652957    2.144471
  H     -5.790766   -0.378072    4.312973
  H     -5.927099   -1.895806    5.199973
  H     -8.073063   -2.412500    3.985839
  H     -7.935857   -0.896080    3.097626
  H     -8.041237    0.381750    5.263058
  H     -8.177623   -1.133589    6.151452
  H    -10.443636   -0.095973    5.826726
  H    -10.216359   -0.117430    4.064875
  H    -10.353737   -1.643906    4.959564
  H      0.951691    0.780452   -0.118222
  H     -2.884131   -1.464559   -4.758068
  H     -1.558445   -0.482342   -5.378158
  H     -3.685149    0.111643   -6.573687
  H     -4.477128    0.478982   -5.025420
  H     -3.151697    1.504140   -5.609310
  H     -1.522111    4.039664   -4.761594
  H     -0.083389    5.951761   -3.911226
  H     -1.588735    6.543495   -4.619955
  H     -1.414984    6.455855   -2.852288
  H     -3.790364    3.634453   -3.821030
  H     -3.633630    5.045112   -2.763412
  H     -3.698379    5.264177   -4.529421

----------------------------
CARTESIAN COORDINATES (A.U.)
----------------------------
  NO LB      ZA    FRAG     MASS         X           Y           Z
   0 O     8.0000    0    15.999    0.912702    3.873985   -2.202900
   1 C     6.0000    0    12.011    1.891560    5.189805   -3.875141
   2 C     6.0000    0    12.011    4.746295    5.260603   -4.397189
   3 C     6.0000    0    12.011    5.570212    3.468368   -6.551467
   4 C     6.0000    0    12.011    6.281288    1.018527   -5.172774
   5 C     6.0000    0    12.011    7.443234    1.919786   -2.678714
   6 N     7.0000    0    14.007    6.167906    4.354942   -2.225390
   7 C     6.0000    0    12.011    6.255860    5.851508   -0.120490
   8 O     8.0000    0    15.999    5.102989    7.878230   -0.057547
   9 N     7.0000    0    14.007    0.439303    6.576743   -5.461121
  10 C     6.0000    0    12.011   -2.278431    6.931621   -5.042810
  11 C     6.0000    0    12.011   -3.712989    4.412616   -4.764453
  12 N     7.0000    0    14.007   -2.998036    2.526720   -6.375047
  13 C     6.0000    0    12.011   -4.206354    0.054315   -6.399881
  14 C     6.0000    0    12.011   -2.745094   -2.012875   -4.941877
  15 N     7.0000    0    14.007   -0.565650   -1.252405   -3.810135
  16 C     6.0000    0    12.011    0.984456   -2.959220   -2.314715
  17 C     6.0000    0    12.011    1.065160   -2.201452    0.478383
  18 C     6.0000    0    12.011    2.377474   -4.171597    2.164963
  19 C     6.0000    0    12.011    5.116080   -4.580985    1.302494
  20 N     7.0000    0    14.007    7.018928   -3.622005    2.764939
  21 C     6.0000    0    12.011    6.893902   -1.735369    4.772750
  22 C     6.0000    0    12.011    8.323650    0.622181    3.835948
  23 N     7.0000    0    14.007    6.813179    2.591858    3.161539
  24 C     6.0000    0    12.011    7.873853    4.912667    2.100576
  25 C     6.0000    0    12.011    8.174976    6.958629    4.110991
  26 O     8.0000    0    15.999   10.647899    0.657878    3.684285
  27 C     6.0000    0    12.011    8.022733   -2.713162    7.247679
  28 C     6.0000    0    12.011    7.885281   -0.818834    9.444865
  29 C     6.0000    0    12.011    5.155847   -0.089779   10.094298
  30 C     6.0000    0    12.011    9.240138   -1.900486   11.764226
  31 O     8.0000    0    15.999    5.583137   -5.749315   -0.654305
  32 C     6.0000    0    12.011    1.034273   -6.743814    2.484569
  33 C     6.0000    0    12.011   -1.811903   -6.832321    2.181400
  34 C     6.0000    0    12.011   -3.163925   -5.497534    4.391834
  35 C     6.0000    0    12.011   -6.034653   -5.455471    4.053985
  36 C     6.0000    0    12.011   -7.410398   -4.101254    6.206364
  37 C     6.0000    0    12.011  -10.282057   -4.039958    5.869680
  38 C     6.0000    0    12.011  -11.662895   -2.668119    8.008254
  39 C     6.0000    0    12.011  -14.534360   -2.605407    7.673203
  40 C     6.0000    0    12.011  -15.919089   -1.229439    9.808447
  41 C     6.0000    0    12.011  -18.787928   -1.179032    9.454137
  42 O     8.0000    0    15.999    2.239243   -8.575231    3.183818
  43 O     8.0000    0    15.999    2.444732    0.104038    0.876177
  44 O     8.0000    0    15.999   -3.556648   -4.192625   -4.890523
  45 C     6.0000    0    12.011   -4.746068   -0.819268   -9.111835
  46 C     6.0000    0    12.011   -6.632544    0.880140  -10.485306
  47 O     8.0000    0    15.999   -5.459905    4.217252   -3.255014
  48 C     6.0000    0    12.011   -3.381520    8.569971   -7.199112
  49 C     6.0000    0    12.011   -2.226412   11.231250   -7.174377
  50 C     6.0000    0    12.011   -6.267465    8.728894   -7.041393
  51 H     1.0000    0     1.008    5.251453    7.241668   -4.790614
  52 H     1.0000    0     1.008    7.223247    4.288101   -7.506252
  53 H     1.0000    0     1.008    4.085124    3.203177   -7.975690
  54 H     1.0000    0     1.008    4.577767   -0.098070   -4.785907
  55 H     1.0000    0     1.008    7.578854   -0.177366   -6.258749
  56 H     1.0000    0     1.008    7.062838    0.594815   -1.134344
  57 H     1.0000    0     1.008    9.502140    2.194186   -2.834509
  58 H     1.0000    0     1.008    1.323432    7.819702   -6.629452
  59 H     1.0000    0     1.008   -2.572459    7.897049   -3.221143
  60 H     1.0000    0     1.008   -1.540311    2.858687   -7.581716
  61 H     1.0000    0     1.008   -6.001394    0.299707   -5.375268
  62 H     1.0000    0     1.008   -0.226093    0.642755   -3.712414
  63 H     1.0000    0     1.008    2.919035   -3.048597   -3.057444
  64 H     1.0000    0     1.008    0.165129   -4.850742   -2.537607
  65 H     1.0000    0     1.008   -0.899254   -1.948209    1.136388
  66 H     1.0000    0     1.008    2.324302   -3.377313    4.091393
  67 H     1.0000    0     1.008    8.780504   -3.986388    2.069355
  68 H     1.0000    0     1.008    4.904167   -1.236315    5.042608
  69 H     1.0000    0     1.008    4.924951    2.227982    2.982274
  70 H     1.0000    0     1.008    9.756515    4.378016    1.379011
  71 H     1.0000    0     1.008    9.369618    6.232495    5.642787
  72 H     1.0000    0     1.008    9.062841    8.650943    3.305041
  73 H     1.0000    0     1.008    6.328563    7.507961    4.876600
  74 H     1.0000    0     1.008   10.010996   -3.213072    6.891785
  75 H     1.0000    0     1.008    7.022472   -4.468945    7.756315
  76 H     1.0000    0     1.008    8.900944    0.907675    8.859665
  77 H     1.0000    0     1.008    4.202331    0.884229    8.525899
  78 H     1.0000    0     1.008    4.036635   -1.778027   10.577438
  79 H     1.0000    0     1.008    5.102612    1.190037   11.730265
  80 H     1.0000    0     1.008   11.215947   -2.373256   11.328283
  81 H     1.0000    0     1.008    9.236439   -0.543088   13.337795
  82 H     1.0000    0     1.008    8.300545   -3.637222   12.423512
  83 H     1.0000    0     1.008   -2.359991   -8.833541    2.119881
  84 H     1.0000    0     1.008   -2.398895   -5.952321    0.388969
  85 H     1.0000    0     1.008   -2.474764   -3.538591    4.575716
  86 H     1.0000    0     1.008   -2.668909   -6.460504    6.171539
  87 H     1.0000    0     1.008   -6.738263   -7.412047    3.895847
  88 H     1.0000    0     1.008   -6.494576   -4.530103    2.242720
  89 H     1.0000    0     1.008   -6.694081   -2.147047    6.358566
  90 H     1.0000    0     1.008   -6.946042   -5.027288    8.017851
  91 H     1.0000    0     1.008  -11.001014   -5.993496    5.724582
  92 H     1.0000    0     1.008  -10.741343   -3.123636    4.052464
  93 H     1.0000    0     1.008  -10.942962   -0.714452    8.150338
  94 H     1.0000    0     1.008  -11.200594   -3.582554    9.826526
  95 H     1.0000    0     1.008  -15.255878   -4.558965    7.532144
  96 H     1.0000    0     1.008  -14.996597   -1.693347    5.853665
  97 H     1.0000    0     1.008  -15.195736    0.721403    9.945738
  98 H     1.0000    0     1.008  -15.453468   -2.142172   11.624559
  99 H     1.0000    0     1.008  -19.735613   -0.181364   11.010916
 100 H     1.0000    0     1.008  -19.306120   -0.221910    7.681501
 101 H     1.0000    0     1.008  -19.565728   -3.106533    9.372218
 102 H     1.0000    0     1.008    1.798436    1.474841   -0.223407
 103 H     1.0000    0     1.008   -5.450217   -2.767616   -8.991446
 104 H     1.0000    0     1.008   -2.945033   -0.911495  -10.163246
 105 H     1.0000    0     1.008   -6.963922    0.210976  -12.422467
 106 H     1.0000    0     1.008   -8.460547    0.905144   -9.496668
 107 H     1.0000    0     1.008   -5.955845    2.842414  -10.600060
 108 H     1.0000    0     1.008   -2.876373    7.633858   -8.998109
 109 H     1.0000    0     1.008   -0.157583   11.247198   -7.391145
 110 H     1.0000    0     1.008   -3.002275   12.365414   -8.730449
 111 H     1.0000    0     1.008   -2.673931   12.199797   -5.390043
 112 H     1.0000    0     1.008   -7.162751    6.868122   -7.220700
 113 H     1.0000    0     1.008   -6.866565    9.533880   -5.222091
 114 H     1.0000    0     1.008   -6.988923    9.947854   -8.559365

--------------------------------
INTERNAL COORDINATES (ANGSTROEM)
--------------------------------
 O      0   0   0     0.000000000000     0.00000000     0.00000000
 C      1   0   0     1.239442538215     0.00000000     0.00000000
 C      2   1   0     1.536169487503   123.57834329     0.00000000
 C      3   2   1     1.545692302611   113.26960503    96.09408015
 C      4   3   2     1.534444515246   103.70348355   267.33773361
 C      5   4   3     1.532122901987   104.18153453   324.95509613
 N      3   2   1     1.454795734197   111.00314201   340.07305251
 C      7   3   2     1.367495567858   118.05275876   288.94229071
 O      8   7   3     1.234319132821   120.55435193     1.84866516
 N      2   1   3     1.354112500906   120.65132571   176.50155745
 C     10   2   1     1.467167254266   122.15255831    10.22433572
 C     11  10   2     1.541062487913   112.74137575   305.57239453
 N     12  11  10     1.365828061952   115.84418129   319.13618635
 C     13  12  11     1.456289097364   122.71421716   181.56599224
 C     14  13  12     1.545915718835   114.30523665   260.86728988
 N     15  14  13     1.360421147302   115.74976025     0.87648375
 C     16  15  14     1.454257838883   122.27710495   178.34862533
 C     17  16  15     1.532068514536   112.21810290   245.56049847
 C     18  17  16     1.538094225969   113.26465474   171.92639262
 C     19  18  17     1.534743022317   110.45406253    59.60271778
 N     20  19  18     1.367615173699   118.33248016   107.16689801
 C     21  20  19     1.459447833112   129.22832196   344.17484954
 C     22  21  20     1.540971048270   107.29913043   246.76150070
 N     23  22  21     1.361125172959   114.58152619   105.76426266
 C     24  23  22     1.462371380774   121.22320814   183.46699617
 C     25  24  23     1.526234209706   111.60485436   262.17288998
 O     23  22  21     1.232699942918   121.54943763   286.98891504
 C     22  21  20     1.529643450951   111.97590300   124.78805360
 C     28  22  21     1.536892665447   114.11825275   181.29462930
 C     29  28  22     1.533983892690   112.21549598    60.54851500
 C     29  28  22     1.532335231244   109.88732332   184.29917917
 O     20  19  18     1.231085143955   120.70342022   286.99380114
 C     19  18  17     1.544856420519   116.93726294   292.75209731
 C     33  19  18     1.515375581211   118.22510288   333.58216706
 C     34  33  19     1.542407675909   111.50535892   290.00328898
 C     35  34  33     1.529769823869   112.25099714   177.22553209
 C     36  35  34     1.529982193831   113.09969687   180.93498556
 C     37  36  35     1.530369065151   113.31254326   179.65539614
 C     38  37  36     1.530242525901   113.46027155   180.46863638
 C     39  38  37     1.530182729267   113.50191390   179.99105062
 C     40  39  38     1.530962634909   113.58393254   180.10647700
 C     41  40  39     1.529890780526   113.12837778   180.01453528
 O     33  19  18     1.217681752297   119.57668964   160.01112084
 O     18  17  16     1.437253794314   112.18688466   290.75659671
 O     15  14  13     1.231127158228   119.96770228   181.86305847
 C     14  13  12     1.534534561207   111.14961884   135.23509416
 C     46  14  13     1.527590893469   112.90733450   296.11161688
 O     12  11  10     1.226080872986   120.43861176   142.48686905
 C     11  10   2     1.547391776450   109.28295681   180.76144999
 C     49  11  10     1.535279263459   110.94428845   296.23014691
 C     49  11  10     1.531765854316   111.51138116   172.91716058
 H      3   2   1     1.101729981738   107.20522913   220.26538039
 H      4   3   2     1.099377631876   108.74091138   149.27136072
 H      4   3   2     1.097864183038   112.50840609    30.01886669
 H      5   4   3     1.097125930013   110.01382245    82.44565945
 H      5   4   3     1.096454684246   113.07899464   202.71132194
 H      6   5   4     1.095451637701   111.69499113   147.50879928
 H      6   5   4     1.102247245205   111.91731275   269.73982627
 H     10   2   1     1.016740448774   117.79803956   171.23784540
 H     11  10   2     1.102032608963   109.25116217    61.10511765
 H     13  12  11     1.016683552653   118.41397046     2.71112536
 H     14  13  12     1.101428683287   105.56320664    16.48210520
 H     16  15  14     1.020156810679   117.54419850    11.30144018
 H     17  16  15     1.097609675544   110.97746288   122.92928568
 H     17  16  15     1.097176354256   106.57161316     6.88961511
 H     18  17  16     1.104450874675   108.03963298    51.18054874
 H     19  18  17     1.103032452106   105.45454833   179.18574036
 H     21  20  19     1.020607605089   113.47194675   179.55305901
 H     22  21  20     1.094888789617   107.67064379     3.48661684
 H     24  23  22     1.022003459289   117.01349168   347.72856296
 H     25  24  23     1.103804182400   105.30590537    20.52885532
 H     26  25  24     1.097432171686   109.06398899    57.14071941
 H     26  25  24     1.097553210017   110.64875345   177.07157858
 H     26  25  24     1.096963303011   110.63614835   296.69522421
 H     28  22  21     1.101116169587   107.93725365    59.52687191
 H     28  22  21     1.102672224422   107.85206648   303.84851876
 H     29  28  22     1.104303373195   107.72475685   301.50360601
 H     30  29  28     1.099589291107   112.38677431   296.92128055
 H     30  29  28     1.101939485505   110.74111616    57.76951334
 H     30  29  28     1.099511307617   110.82007795   177.14630267
 H     31  29  28     1.099540513059   111.21424410    57.17319981
 H     31  29  28     1.099704234135   111.20306573   177.59180632
 H     31  29  28     1.101622521193   110.73916960   297.32234305
 H     34  33  19     1.098481651540   107.17891960   169.60630798
 H     34  33  19     1.101370951680   111.00317501    51.98664177
 H     35  34  33     1.103206190325   110.11226435    55.64712431
 H     35  34  33     1.102379371193   109.02449970   299.40356145
 H     36  35  34     1.103466077925   109.28605337    58.55393448
 H     36  35  34     1.103498341876   109.08591541   303.04915387
 H     37  36  35     1.104346030774   109.24266871    57.62165421
 H     37  36  35     1.104276567748   109.42072393   301.97156206
 H     38  37  36     1.104226810895   109.29164302    58.17650437
 H     38  37  36     1.104049706330   109.22644283   302.68499097
 H     39  38  37     1.104359206831   109.25224283    57.76783883
 H     39  38  37     1.104450848908   109.30916210   302.27586268
 H     40  39  38     1.104558324050   109.31679942    57.82598561
 H     40  39  38     1.104477294995   109.29379822   302.37185356
 H     41  40  39     1.103416414160   109.11846448    57.68779361
 H     41  40  39     1.103451714069   109.13183588   302.34719723
 H     42  41  40     1.099493809372   111.66333324   180.00091049
 H     42  41  40     1.100745000009   111.07946994   300.23973730
 H     42  41  40     1.100757738411   111.08260908    59.76379078
 H     44  18  17     0.990831677481   111.10725322    52.94373978
 H     46  14  13     1.098138918766   106.96201668   173.70917604
 H     46  14  13     1.104662792559   108.89078929    59.23293471
 H     47  46  14     1.098624495678   111.00860784   179.55171767
 H     47  46  14     1.099826283086   110.82632658   299.44048830
 H     47  46  14     1.100078619342   111.66777206    59.30108904
 H     49  11  10     1.105951793773   107.01476020    54.76249038
 H     50  49  11     1.100802889173   113.70982728    59.20613142
 H     50  49  11     1.098555876911   110.23981114   179.12697525
 H     50  49  11     1.100154564368   110.42328683   298.33562018
 H     51  49  11     1.096835224216   112.12578497   298.73741783
 H     51  49  11     1.099464233500   110.88345532    58.77831321
 H     51  49  11     1.098677372754   109.80654559   178.31311469

---------------------------
INTERNAL COORDINATES (A.U.)
---------------------------
 O      0   0   0     0.000000000000     0.00000000     0.00000000
 C      1   0   0     2.342206955959     0.00000000     0.00000000
 C      2   1   0     2.902939626666   123.57834329     0.00000000
 C      3   2   1     2.920935139244   113.26960503    96.09408015
 C      4   3   2     2.899679901512   103.70348355   267.33773361
 C      5   4   3     2.895292688263   104.18153453   324.95509613
 N      3   2   1     2.749165518429   111.00314201   340.07305251
 C      7   3   2     2.584192112603   118.05275876   288.94229071
 O      8   7   3     2.332525122891   120.55435193     1.84866516
 N      2   1   3     2.558901781232   120.65132571   176.50155745
 C     10   2   1     2.772544303221   122.15255831    10.22433572
 C     11  10   2     2.912186057415   112.74137575   305.57239453
 N     12  11  10     2.581040983114   115.84418129   319.13618635
 C     13  12  11     2.751987565833   122.71421716   181.56599224
 C     14  13  12     2.921357334722   114.30523665   260.86728988
 N     15  14  13     2.570823395196   115.74976025     0.87648375
 C     16  15  14     2.748149043598   122.27710495   178.34862533
 C     17  16  15     2.895189910876   112.21810290   245.56049847
 C     18  17  16     2.906576855247   113.26465474   171.92639262
 C     19  18  17     2.900243998125   110.45406253    59.60271778
 N     20  19  18     2.584418134885   118.33248016   107.16689801
 C     21  20  19     2.757956711326   129.22832196   344.17484954
 C     22  21  20     2.912013261531   107.29913043   246.76150070
 N     23  22  21     2.572153810878   114.58152619   105.76426266
 C     24  23  22     2.763481415748   121.22320814   183.46699617
 C     25  24  23     2.884164672566   111.60485436   262.17288998
 O     23  22  21     2.329465297415   121.54943763   286.98891504
 C     22  21  20     2.890607204843   111.97590300   124.78805360
 C     28  22  21     2.904306234926   114.11825275   181.29462930
 C     29  28  22     2.898809451030   112.21549598    60.54851500
 C     29  28  22     2.895693932410   109.88732332   184.29917917
 O     20  19  18     2.326413769614   120.70342022   286.99380114
 C     19  18  17     2.919355551012   116.93726294   292.75209731
 C     33  19  18     2.863644838521   118.22510288   333.58216706
 C     34  33  19     2.914728094326   111.50535892   290.00328898
 C     35  34  33     2.890846015050   112.25099714   177.22553209
 C     36  35  34     2.891247336116   113.09969687   180.93498556
 C     37  36  35     2.891978416961   113.31254326   179.65539614
 C     38  37  36     2.891739292433   113.46027155   180.46863638
 C     39  38  37     2.891626293170   113.50191390   179.99105062
 C     40  39  38     2.893100101244   113.58393254   180.10647700
 C     41  40  39     2.891074590005   113.12837778   180.01453528
 O     33  19  18     2.301085030114   119.57668964   160.01112084
 O     18  17  16     2.716016056193   112.18688466   290.75659671
 O     15  14  13     2.326493165084   119.96770228   181.86305847
 C     14  13  12     2.899850063719   111.14961884   135.23509416
 C     46  14  13     2.886728433328   112.90733450   296.11161688
 O     12  11  10     2.316957067983   120.43861176   142.48686905
 C     11  10   2     2.924146679373   109.28295681   180.76144999
 C     49  11  10     2.901257347025   110.94428845   296.23014691
 C     49  11  10     2.894617965949   111.51138116   172.91716058
 H      3   2   1     2.081967939014   107.20522913   220.26538039
 H      4   3   2     2.077522642005   108.74091138   149.27136072
 H      4   3   2     2.074662638183   112.50840609    30.01886669
 H      5   4   3     2.073267542148   110.01382245    82.44565945
 H      5   4   3     2.071999071479   113.07899464   202.71132194
 H      6   5   4     2.070103588210   111.69499113   147.50879928
 H      6   5   4     2.082945425307   111.91731275   269.73982627
 H     10   2   1     1.921360997463   117.79803956   171.23784540
[...]
freq.      83.30  E(vib)   ...       0.48 
freq.      84.71  E(vib)   ...       0.48 
freq.      87.70  E(vib)   ...       0.48 
freq.      92.82  E(vib)   ...       0.47 
freq.      98.18  E(vib)   ...       0.46 
freq.     107.26  E(vib)   ...       0.45 
freq.     111.32  E(vib)   ...       0.45 
freq.     118.95  E(vib)   ...       0.44 
freq.     125.07  E(vib)   ...       0.43 
freq.     130.62  E(vib)   ...       0.43 
freq.     135.40  E(vib)   ...       0.42 
freq.     136.44  E(vib)   ...       0.42 
freq.     142.06  E(vib)   ...       0.41 
freq.     144.27  E(vib)   ...       0.41 
freq.     147.29  E(vib)   ...       0.41 
freq.     153.82  E(vib)   ...       0.40 
freq.     157.74  E(vib)   ...       0.40 
freq.     161.97  E(vib)   ...       0.39 
freq.     164.97  E(vib)   ...       0.39 
freq.     172.30  E(vib)   ...       0.38 
freq.     179.57  E(vib)   ...       0.37 
freq.     190.54  E(vib)   ...       0.36 
freq.     195.36  E(vib)   ...       0.36 
freq.     199.99  E(vib)   ...       0.35 
freq.     209.11  E(vib)   ...       0.34 
freq.     216.51  E(vib)   ...       0.34 
freq.     219.54  E(vib)   ...       0.33 
freq.     220.81  E(vib)   ...       0.33 
freq.     222.03  E(vib)   ...       0.33 
freq.     224.50  E(vib)   ...       0.33 
freq.     232.68  E(vib)   ...       0.32 
freq.     237.15  E(vib)   ...       0.32 
freq.     244.07  E(vib)   ...       0.31 
freq.     254.45  E(vib)   ...       0.30 
freq.     259.27  E(vib)   ...       0.30 
freq.     267.98  E(vib)   ...       0.29 
freq.     271.39  E(vib)   ...       0.29 
freq.     276.58  E(vib)   ...       0.28 
freq.     285.46  E(vib)   ...       0.28 
freq.     292.68  E(vib)   ...       0.27 
freq.     294.82  E(vib)   ...       0.27 
freq.     297.64  E(vib)   ...       0.27 
freq.     311.59  E(vib)   ...       0.25 
freq.     321.34  E(vib)   ...       0.25 
freq.     326.20  E(vib)   ...       0.24 
freq.     330.77  E(vib)   ...       0.24 
freq.     335.03  E(vib)   ...       0.24 
freq.     343.27  E(vib)   ...       0.23 
freq.     357.89  E(vib)   ...       0.22 
freq.     370.78  E(vib)   ...       0.21 
freq.     385.23  E(vib)   ...       0.20 
freq.     389.91  E(vib)   ...       0.20 
freq.     398.99  E(vib)   ...       0.19 
freq.     402.57  E(vib)   ...       0.19 
freq.     411.29  E(vib)   ...       0.19 
freq.     413.93  E(vib)   ...       0.19 
freq.     420.31  E(vib)   ...       0.18 
freq.     435.34  E(vib)   ...       0.17 
freq.     446.24  E(vib)   ...       0.17 
freq.     456.06  E(vib)   ...       0.16 
freq.     471.35  E(vib)   ...       0.15 
freq.     480.98  E(vib)   ...       0.15 
freq.     484.90  E(vib)   ...       0.15 
freq.     492.22  E(vib)   ...       0.14 
freq.     503.43  E(vib)   ...       0.14 
freq.     514.79  E(vib)   ...       0.13 
freq.     530.48  E(vib)   ...       0.13 
freq.     540.13  E(vib)   ...       0.12 
freq.     560.68  E(vib)   ...       0.11 
freq.     562.20  E(vib)   ...       0.11 
freq.     568.10  E(vib)   ...       0.11 
freq.     577.10  E(vib)   ...       0.11 
freq.     594.58  E(vib)   ...       0.10 
freq.     605.36  E(vib)   ...       0.10 
freq.     636.11  E(vib)   ...       0.09 
freq.     648.82  E(vib)   ...       0.08 
freq.     651.91  E(vib)   ...       0.08 
freq.     655.56  E(vib)   ...       0.08 
freq.     675.83  E(vib)   ...       0.08 
freq.     680.56  E(vib)   ...       0.08 
freq.     690.77  E(vib)   ...       0.07 
freq.     699.23  E(vib)   ...       0.07 
freq.     712.05  E(vib)   ...       0.07 
freq.     714.18  E(vib)   ...       0.07 
freq.     719.82  E(vib)   ...       0.07 
freq.     722.71  E(vib)   ...       0.07 
freq.     725.58  E(vib)   ...       0.06 
freq.     734.11  E(vib)   ...       0.06 
freq.     744.24  E(vib)   ...       0.06 
freq.     754.87  E(vib)   ...       0.06 
freq.     756.45  E(vib)   ...       0.06 
freq.     768.72  E(vib)   ...       0.06 
freq.     775.18  E(vib)   ...       0.05 
freq.     803.44  E(vib)   ...       0.05 
freq.     813.59  E(vib)   ...       0.05 
freq.     814.87  E(vib)   ...       0.05 
freq.     817.18  E(vib)   ...       0.05 
freq.     820.12  E(vib)   ...       0.05 
freq.     836.39  E(vib)   ...       0.04 
freq.     853.72  E(vib)   ...       0.04 
freq.     865.05  E(vib)   ...       0.04 
freq.     870.85  E(vib)   ...       0.04 
freq.     871.84  E(vib)   ...       0.04 
freq.     876.80  E(vib)   ...       0.04 
freq.     880.57  E(vib)   ...       0.04 
freq.     884.66  E(vib)   ...       0.04 
freq.     890.20  E(vib)   ...       0.04 
freq.     901.66  E(vib)   ...       0.03 
freq.     903.27  E(vib)   ...       0.03 
freq.     905.98  E(vib)   ...       0.03 
freq.     908.02  E(vib)   ...       0.03 
freq.     922.71  E(vib)   ...       0.03 
freq.     933.25  E(vib)   ...       0.03 
freq.     937.57  E(vib)   ...       0.03 
freq.     939.34  E(vib)   ...       0.03 
freq.     943.40  E(vib)   ...       0.03 
freq.     944.91  E(vib)   ...       0.03 
freq.     946.59  E(vib)   ...       0.03 
freq.     951.57  E(vib)   ...       0.03 
freq.     965.63  E(vib)   ...       0.03 
freq.     972.30  E(vib)   ...       0.03 
freq.     976.92  E(vib)   ...       0.03 
freq.     985.44  E(vib)   ...       0.02 
freq.     990.79  E(vib)   ...       0.02 
freq.     997.67  E(vib)   ...       0.02 
freq.    1001.25  E(vib)   ...       0.02 
freq.    1011.55  E(vib)   ...       0.02 
freq.    1032.15  E(vib)   ...       0.02 
freq.    1035.58  E(vib)   ...       0.02 
freq.    1036.42  E(vib)   ...       0.02 
freq.    1037.62  E(vib)   ...       0.02 
freq.    1041.36  E(vib)   ...       0.02 
freq.    1042.73  E(vib)   ...       0.02 
freq.    1045.17  E(vib)   ...       0.02 
freq.    1047.63  E(vib)   ...       0.02 
freq.    1049.67  E(vib)   ...       0.02 
freq.    1052.05  E(vib)   ...       0.02 
freq.    1068.65  E(vib)   ...       0.02 
freq.    1076.99  E(vib)   ...       0.02 
freq.    1080.21  E(vib)   ...       0.02 
freq.    1082.17  E(vib)   ...       0.02 
freq.    1094.38  E(vib)   ...       0.02 
freq.    1097.72  E(vib)   ...       0.02 
freq.    1101.75  E(vib)   ...       0.02 
freq.    1108.00  E(vib)   ...       0.02 
freq.    1110.12  E(vib)   ...       0.02 
freq.    1111.41  E(vib)   ...       0.01 
freq.    1121.97  E(vib)   ...       0.01 
freq.    1132.08  E(vib)   ...       0.01 
freq.    1138.13  E(vib)   ...       0.01 
freq.    1141.34  E(vib)   ...       0.01 
freq.    1145.11  E(vib)   ...       0.01 
freq.    1154.01  E(vib)   ...       0.01 
freq.    1156.37  E(vib)   ...       0.01 
freq.    1157.42  E(vib)   ...       0.01 
freq.    1161.17  E(vib)   ...       0.01 
freq.    1173.11  E(vib)   ...       0.01 
freq.    1181.86  E(vib)   ...       0.01 
freq.    1185.08  E(vib)   ...       0.01 
freq.    1187.29  E(vib)   ...       0.01 
freq.    1190.13  E(vib)   ...       0.01 
freq.    1193.62  E(vib)   ...       0.01 
freq.    1205.07  E(vib)   ...       0.01 
freq.    1209.64  E(vib)   ...       0.01 
freq.    1215.17  E(vib)   ...       0.01 
freq.    1218.62  E(vib)   ...       0.01 
freq.    1221.48  E(vib)   ...       0.01 
freq.    1227.14  E(vib)   ...       0.01 
freq.    1230.63  E(vib)   ...       0.01 
freq.    1234.70  E(vib)   ...       0.01 
freq.    1241.14  E(vib)   ...       0.01 
freq.    1244.37  E(vib)   ...       0.01 
freq.    1246.13  E(vib)   ...       0.01 
freq.    1248.03  E(vib)   ...       0.01 
freq.    1254.33  E(vib)   ...       0.01 
freq.    1259.73  E(vib)   ...       0.01 
freq.    1262.81  E(vib)   ...       0.01 
freq.    1266.16  E(vib)   ...       0.01 
freq.    1266.92  E(vib)   ...       0.01 
freq.    1272.89  E(vib)   ...       0.01 
freq.    1284.18  E(vib)   ...       0.01 
freq.    1284.32  E(vib)   ...       0.01 
freq.    1286.58  E(vib)   ...       0.01 
freq.    1288.22  E(vib)   ...       0.01 
freq.    1294.70  E(vib)   ...       0.01 
freq.    1296.03  E(vib)   ...       0.01 
freq.    1298.70  E(vib)   ...       0.01 
freq.    1303.73  E(vib)   ...       0.01 
freq.    1304.30  E(vib)   ...       0.01 
freq.    1304.67  E(vib)   ...       0.01 
freq.    1306.95  E(vib)   ...       0.01 
freq.    1310.59  E(vib)   ...       0.01 
freq.    1314.08  E(vib)   ...       0.01 
freq.    1320.82  E(vib)   ...       0.01 
freq.    1322.39  E(vib)   ...       0.01 
freq.    1323.05  E(vib)   ...       0.01 
freq.    1324.12  E(vib)   ...       0.01 
freq.    1327.61  E(vib)   ...       0.01 
freq.    1332.70  E(vib)   ...       0.01 
freq.    1340.33  E(vib)   ...       0.01 
freq.    1340.44  E(vib)   ...       0.01 
freq.    1342.02  E(vib)   ...       0.01 
freq.    1347.12  E(vib)   ...       0.01 
freq.    1349.39  E(vib)   ...       0.01 
freq.    1351.04  E(vib)   ...       0.01 
freq.    1351.51  E(vib)   ...       0.01 
freq.    1357.41  E(vib)   ...       0.01 
freq.    1359.83  E(vib)   ...       0.01 
freq.    1361.31  E(vib)   ...       0.01 
freq.    1363.63  E(vib)   ...       0.01 
freq.    1364.31  E(vib)   ...       0.01 
freq.    1371.25  E(vib)   ...       0.01 
freq.    1379.33  E(vib)   ...       0.01 
freq.    1382.87  E(vib)   ...       0.01 
freq.    1401.06  E(vib)   ...       0.00 
freq.    1420.52  E(vib)   ...       0.00 
freq.    1421.51  E(vib)   ...       0.00 
freq.    1430.50  E(vib)   ...       0.00 
freq.    1430.75  E(vib)   ...       0.00 
freq.    1433.09  E(vib)   ...       0.00 
freq.    1434.11  E(vib)   ...       0.00 
freq.    1435.65  E(vib)   ...       0.00 
freq.    1437.28  E(vib)   ...       0.00 
freq.    1438.19  E(vib)   ...       0.00 
freq.    1438.93  E(vib)   ...       0.00 
freq.    1440.28  E(vib)   ...       0.00 
freq.    1440.70  E(vib)   ...       0.00 
freq.    1440.91  E(vib)   ...       0.00 
freq.    1442.10  E(vib)   ...       0.00 
freq.    1443.88  E(vib)   ...       0.00 
freq.    1445.98  E(vib)   ...       0.00 
freq.    1447.35  E(vib)   ...       0.00 
freq.    1448.47  E(vib)   ...       0.00 
freq.    1449.57  E(vib)   ...       0.00 
freq.    1450.91  E(vib)   ...       0.00 
freq.    1453.78  E(vib)   ...       0.00 
freq.    1454.70  E(vib)   ...       0.00 
freq.    1456.54  E(vib)   ...       0.00 
freq.    1457.08  E(vib)   ...       0.00 
freq.    1458.71  E(vib)   ...       0.00 
freq.    1461.21  E(vib)   ...       0.00 
freq.    1463.43  E(vib)   ...       0.00 
freq.    1465.19  E(vib)   ...       0.00 
freq.    1465.95  E(vib)   ...       0.00 
freq.    1471.36  E(vib)   ...       0.00 
freq.    1482.37  E(vib)   ...       0.00 
freq.    1502.46  E(vib)   ...       0.00 
freq.    1507.69  E(vib)   ...       0.00 
freq.    1646.23  E(vib)   ...       0.00 
freq.    1657.77  E(vib)   ...       0.00 
freq.    1666.86  E(vib)   ...       0.00 
freq.    1680.98  E(vib)   ...       0.00 
freq.    1682.64  E(vib)   ...       0.00 
freq.    1700.87  E(vib)   ...       0.00 
freq.    1718.10  E(vib)   ...       0.00 
freq.    2920.48  E(vib)   ...       0.00 
freq.    2925.03  E(vib)   ...       0.00 
freq.    2926.93  E(vib)   ...       0.00 
freq.    2929.44  E(vib)   ...       0.00 
freq.    2935.05  E(vib)   ...       0.00 
freq.    2936.32  E(vib)   ...       0.00 
freq.    2937.51  E(vib)   ...       0.00 
freq.    2938.37  E(vib)   ...       0.00 
freq.    2940.22  E(vib)   ...       0.00 
freq.    2943.00  E(vib)   ...       0.00 
freq.    2944.37  E(vib)   ...       0.00 
freq.    2948.66  E(vib)   ...       0.00 
freq.    2950.05  E(vib)   ...       0.00 
freq.    2952.35  E(vib)   ...       0.00 
freq.    2953.79  E(vib)   ...       0.00 
freq.    2954.37  E(vib)   ...       0.00 
freq.    2956.08  E(vib)   ...       0.00 
freq.    2956.55  E(vib)   ...       0.00 
freq.    2958.07  E(vib)   ...       0.00 
freq.    2960.08  E(vib)   ...       0.00 
freq.    2960.75  E(vib)   ...       0.00 
freq.    2961.63  E(vib)   ...       0.00 
freq.    2964.41  E(vib)   ...       0.00 
freq.    2966.58  E(vib)   ...       0.00 
freq.    2967.32  E(vib)   ...       0.00 
freq.    2973.86  E(vib)   ...       0.00 
freq.    2974.41  E(vib)   ...       0.00 
freq.    2976.55  E(vib)   ...       0.00 
freq.    2977.68  E(vib)   ...       0.00 
freq.    2985.36  E(vib)   ...       0.00 
freq.    2986.43  E(vib)   ...       0.00 
freq.    2988.87  E(vib)   ...       0.00 
freq.    2991.63  E(vib)   ...       0.00 
freq.    2995.01  E(vib)   ...       0.00 
freq.    3003.11  E(vib)   ...       0.00 
freq.    3008.40  E(vib)   ...       0.00 
freq.    3014.10  E(vib)   ...       0.00 
freq.    3016.80  E(vib)   ...       0.00 
freq.    3017.19  E(vib)   ...       0.00 
freq.    3019.61  E(vib)   ...       0.00 
freq.    3020.02  E(vib)   ...       0.00 
freq.    3022.07  E(vib)   ...       0.00 
freq.    3026.99  E(vib)   ...       0.00 
freq.    3027.10  E(vib)   ...       0.00 
freq.    3031.44  E(vib)   ...       0.00 
freq.    3033.55  E(vib)   ...       0.00 
freq.    3034.22  E(vib)   ...       0.00 
freq.    3037.81  E(vib)   ...       0.00 
freq.    3038.51  E(vib)   ...       0.00 
freq.    3039.32  E(vib)   ...       0.00 
freq.    3042.73  E(vib)   ...       0.00 
freq.    3048.70  E(vib)   ...       0.00 
freq.    3052.24  E(vib)   ...       0.00 
freq.    3054.14  E(vib)   ...       0.00 
freq.    3057.92  E(vib)   ...       0.00 
freq.    3061.11  E(vib)   ...       0.00 
freq.    3062.51  E(vib)   ...       0.00 
freq.    3066.52  E(vib)   ...       0.00 
freq.    3330.72  E(vib)   ...       0.00 
freq.    3414.86  E(vib)   ...       0.00 
freq.    3427.00  E(vib)   ...       0.00 
freq.    3456.78  E(vib)   ...       0.00 
freq.    3491.36  E(vib)   ...       0.00 
freq.    3493.82  E(vib)   ...       0.00 

------------
INNER ENERGY
------------

The inner energy is: U= E(el) + E(ZPE) + E(vib) + E(rot) + E(trans)
    E(el)   - is the total energy from the electronic structure calculation
              = E(kin-el) + E(nuc-el) + E(el-el) + E(nuc-nuc)
    E(ZPE)  - the the zero temperature vibrational energy from the frequency calculation
    E(vib)  - the the finite temperature correction to E(ZPE) due to population
              of excited vibrational states
    E(rot)  - is the rotational thermal energy
    E(trans)- is the translational thermal energy

Summary of contributions to the inner energy U:
Electronic energy                ...  -2380.07040800 Eh
Zero point energy                ...      0.97652419 Eh     612.78 kcal/mol
Thermal vibrational correction   ...      0.05539606 Eh      34.76 kcal/mol
Thermal rotational correction    ...      0.00141627 Eh       0.89 kcal/mol
Thermal translational correction ...      0.00141627 Eh       0.89 kcal/mol
-----------------------------------------------------------------------
Total thermal energy                  -2379.03565521 Eh


Summary of corrections to the electronic energy:
(perhaps to be used in another calculation)
Total thermal correction                  0.05822861 Eh      36.54 kcal/mol
Non-thermal (ZPE) correction              0.97652419 Eh     612.78 kcal/mol
-----------------------------------------------------------------------
Total correction                          1.03475280 Eh     649.32 kcal/mol


--------
ENTHALPY
--------

The enthalpy is H = U + kB*T
                kB is Boltzmann's constant
Total free energy                 ...  -2379.03565521 Eh 
Thermal Enthalpy correction       ...      0.00094421 Eh       0.59 kcal/mol
-----------------------------------------------------------------------
Total Enthalpy                    ...  -2379.03471100 Eh


Note: Only C1 symmetry has been detected, increase convergence thresholds 
      if your molecule has a higher symmetry. Symmetry factor of 1.0 is   
      used for the rotational entropy correction. 
 

Note: Rotational entropy computed according to Herzberg 
Infrared and Raman Spectra, Chapter V,1, Van Nostrand Reinhold, 1945 
Point Group:  C1, Symmetry Number:   1  
Rotational constants in cm-1:     0.001562     0.001340     0.000938 

Vibrational entropy computed according to the QRRHO of S. Grimme
Chem.Eur.J. 2012 18 9955


-------
ENTROPY
-------

The entropy contributions are T*S = T*(S(el)+S(vib)+S(rot)+S(trans))
     S(el)   - electronic entropy
     S(vib)  - vibrational entropy
     S(rot)  - rotational entropy
     S(trans)- translational entropy
The entropies will be listed as mutliplied by the temperature to get
units of energy

Electronic entropy                ...      0.00000000 Eh      0.00 kcal/mol
Vibrational entropy               ...      0.10233399 Eh     64.22 kcal/mol
Rotational entropy                ...      0.01897547 Eh     11.91 kcal/mol
Translational entropy             ...      0.02166895 Eh     13.60 kcal/mol
-----------------------------------------------------------------------
Final entropy term                ...      0.14297841 Eh     89.72 kcal/mol

In case the symmetry of your molecule has not been determined correctly
or in case you have a reason to use a different symmetry number we print 
out the resulting rotational entropy values for sn=1,12 :
 --------------------------------------------------------
|  sn= 1 | S(rot)=       0.01897547 Eh     11.91 kcal/mol|
|  sn= 2 | S(rot)=       0.01832102 Eh     11.50 kcal/mol|
|  sn= 3 | S(rot)=       0.01793818 Eh     11.26 kcal/mol|
|  sn= 4 | S(rot)=       0.01766656 Eh     11.09 kcal/mol|
|  sn= 5 | S(rot)=       0.01745587 Eh     10.95 kcal/mol|
|  sn= 6 | S(rot)=       0.01728373 Eh     10.85 kcal/mol|
|  sn= 7 | S(rot)=       0.01713818 Eh     10.75 kcal/mol|
|  sn= 8 | S(rot)=       0.01701210 Eh     10.68 kcal/mol|
|  sn= 9 | S(rot)=       0.01690090 Eh     10.61 kcal/mol|
|  sn=10 | S(rot)=       0.01680142 Eh     10.54 kcal/mol|
|  sn=11 | S(rot)=       0.01671143 Eh     10.49 kcal/mol|
|  sn=12 | S(rot)=       0.01662927 Eh     10.44 kcal/mol|
 --------------------------------------------------------


-------------------
GIBBS FREE ENERGY
-------------------

The Gibbs free energy is G = H - T*S

Total enthalpy                    ...  -2379.03471100 Eh 
Total entropy correction          ...     -0.14297841 Eh    -89.72 kcal/mol
-----------------------------------------------------------------------
Final Gibbs free energy         ...  -2379.17768941 Eh

For completeness - the Gibbs free energy minus the electronic energy
G-E(el)                           ...      0.89271859 Eh    560.19 kcal/mol

--------------------------------------------------------------------------
WARNING: No preset parameters were found for the device that Open MPI
detected:

  Local host:            eu-g1-028-1
  Device name:           mlx5_0
  Device vendor ID:      0x02c9
  Device vendor part ID: 4123

Default device parameters will be used, which may result in lower
performance.  You can edit any of the files specified by the
btl_openib_device_param_files MCA parameter to set values for your
device.

NOTE: You can turn off this warning by setting the MCA parameter
      btl_openib_warn_no_device_params_found to 0.
--------------------------------------------------------------------------
--------------------------------------------------------------------------
WARNING: There was an error initializing an OpenFabrics device.

  Local host:   eu-g1-028-1
  Local device: mlx5_0
--------------------------------------------------------------------------

Timings for individual modules:

Sum of individual times         ...    32169.096 sec (= 536.152 min)
GTO integral calculation        ...       14.087 sec (=   0.235 min)   0.0 %
SCF iterations                  ...      499.038 sec (=   8.317 min)   1.6 %
SCF Gradient evaluation         ...       76.595 sec (=   1.277 min)   0.2 %
Geometry relaxation             ...        3.880 sec (=   0.065 min)   0.0 %
Analytical frequency calculation...    31575.497 sec (= 526.258 min)  98.2 %
                             ****ORCA TERMINATED NORMALLY****
TOTAL RUN TIME: 0 days 8 hours 56 minutes 26 seconds 719 msec
