
                                 *****************
                                 * O   R   C   A *
                                 *****************

           --- An Ab Initio, DFT and Semiempirical electronic structure package ---

                  #######################################################
                  #                        -***-                        #
                  #          Department of theory and spectroscopy      #
                  #               Directorship: Frank Neese             #
                  #        Max Planck Institute fuer Kohlenforschung    #
                  #                Kaiser Wilhelm Platz 1               #
                  #                 D-45470 Muelheim/Ruhr               #
                  #                      Germany                        #
                  #                                                     #
                  #                  All rights reserved                #
                  #                        -***-                        #
                  #######################################################


                         Program Version 4.2.0 -  RELEASE  -


 With contributions from (in alphabetic order):
   Daniel Aravena         : Magnetic Suceptibility
   Michael Atanasov       : Ab Initio Ligand Field Theory (pilot matlab implementation)
   Alexander A. Auer      : GIAO ZORA, VPT2
   Ute Becker             : Parallelization
   Giovanni Bistoni       : ED, misc. LED, open-shell LED, HFLED
   Martin Brehm           : Molecular dynamics
   Dmytro Bykov           : SCF Hessian
   Vijay G. Chilkuri      : MRCI spin determinant printing, contributions to CSF-ICE
   Dipayan Datta          : RHF DLPNO-CCSD density
   Achintya Kumar Dutta   : EOM-CC, STEOM-CC
   Dmitry Ganyushin       : Spin-Orbit,Spin-Spin,Magnetic field MRCI
   Miquel Garcia          : C-PCM Hessian, Gaussian charge scheme
   Yang Guo               : DLPNO-NEVPT2, CIM, IAO-localization
   Andreas Hansen         : Spin unrestricted coupled pair/coupled cluster methods
   Benjamin Helmich-Paris : CASSCF linear response (MC-RPA)
   Lee Huntington         : MR-EOM, pCC
   Robert Izsak           : Overlap fitted RIJCOSX, COSX-SCS-MP3, EOM
   Christian Kollmar      : KDIIS, OOCD, Brueckner-CCSD(T), CCSD density
   Simone Kossmann        : Meta GGA functionals, TD-DFT gradient, OOMP2, MP2 Hessian
   Martin Krupicka        : AUTO-CI
   Lucas Lang             : DCDCAS
   Dagmar Lenk            : GEPOL surface, SMD
   Dimitrios Liakos       : Extrapolation schemes; Compound Job, initial MDCI parallelization
   Dimitrios Manganas     : Further ROCIS development; embedding schemes
   Dimitrios Pantazis     : SARC Basis sets
   Taras Petrenko         : DFT Hessian,TD-DFT gradient, ASA, ECA, R-Raman, ABS, FL, XAS/XES, NRVS
   Peter Pinski           : DLPNO-MP2, DLPNO-MP2 Gradient
   Christoph Reimann      : Effective Core Potentials
   Marius Retegan         : Local ZFS, SOC
   Christoph Riplinger    : Optimizer, TS searches, QM/MM, DLPNO-CCSD(T), (RO)-DLPNO pert. Triples
   Tobias Risthaus        : Range-separated hybrids, TD-DFT gradient, RPA, STAB
   Michael Roemelt        : Original ROCIS implementation
   Masaaki Saitow         : Open-shell DLPNO-CCSD energy and density
   Barbara Sandhoefer     : DKH picture change effects
   Avijit Sen             : IP-ROCIS
   Kantharuban Sivalingam : CASSCF convergence, NEVPT2, FIC-MRCI
   Bernardo de Souza      : ESD, SOC TD-DFT
   Georgi Stoychev        : AutoAux, RI-MP2 NMR
   Willem Van den Heuvel  : Paramagnetic NMR
   Boris Wezisla          : Elementary symmetry handling
   Frank Wennmohs         : Technical directorship


 We gratefully acknowledge several colleagues who have allowed us to
 interface, adapt or use parts of their codes:
   Stefan Grimme, W. Hujo, H. Kruse,             : VdW corrections, initial TS optimization,
                  C. Bannwarth                     DFT functionals, gCP, sTDA/sTD-DF
   Ed Valeev, F. Pavosevic, A. Kumar             : LibInt (2-el integral package), F12 methods
   Garnet Chan, S. Sharma, J. Yang, R. Olivares  : DMRG
   Ulf Ekstrom                                   : XCFun DFT Library
   Mihaly Kallay                                 : mrcc  (arbitrary order and MRCC methods)
   Andreas Klamt, Michael Diedenhofen            : otool_cosmo (COSMO solvation model)
   Jiri Pittner, Ondrej Demel                    : Mk-CCSD
   Frank Weinhold                                : gennbo (NPA and NBO analysis)
   Christopher J. Cramer and Donald G. Truhlar   : smd solvation model
   Lars Goerigk                                  : TD-DFT with DH, B97 family of functionals
   V. Asgeirsson, H. Jonsson                     : NEB implementation
   FAccTs GmbH                                   : IRC, NEB, NEB-TS, Multilevel, MM, QM/MM, CI optimization
   S Lehtola, MJT Oliveira, MAL Marques          : LibXC Library


 Your calculation uses the libint2 library for the computation of 2-el integrals
 For citations please refer to: http://libint.valeyev.net

 Your ORCA version has been built with support for libXC version: 4.2.3
 For citations please refer to: https://tddft.org/programs/libxc/

 This ORCA versions uses:
   CBLAS   interface :  Fast vector & matrix operations
   LAPACKE interface :  Fast linear algebra routines
   SCALAPACK package :  Parallel linear algebra routines




***************************************
The coordinates will be read from file: 8_old.xyz
***************************************


Your calculation utilizes the atom-pairwise dispersion correction
with the Becke-Johnson damping scheme (D3BJ)
Cite in your paper:
S.Grimme, S.Ehrlich, L.Goerigk, J Comput Chem, (2011), 32, 1456–1465 
S.Grimme, J.Antony, S.Ehrlich and H.Krieg, J.Chem.Phys., 132, (2010), 154104 
   

----- Orbital basis set information -----
Your calculation utilizes the basis: def2-TZVP
   F. Weigend and R. Ahlrichs, Phys. Chem. Chem. Phys. 7, 3297 (2005).

----- AuxJ basis set information -----
Your calculation utilizes the auxiliary basis: def2/J
   F. Weigend, Phys. Chem. Chem. Phys. 8, 1057 (2006).

================================================================================
                                        WARNINGS
                       Please study these warnings very carefully!
================================================================================


WARNING: Geometry Optimization
  ===> : Switching off AutoStart
         For restart on a previous wavefunction, please use MOREAD

INFO   : the flag for use of LIBINT has been found!

================================================================================
                                       INPUT FILE
================================================================================
NAME = 8.inp
|  1> !RI BP86 def2-tzvp def2/J D3BJ TIGHTSCF TightOpt Grid5 FinalGrid6 freq
|  2> %maxcore 4000
|  3> %pal nprocs 24
|  4> end
|  5> * xyzfile 0 1 8_old.xyz 
|  6> 
|  7>                          ****END OF INPUT****
================================================================================

                       *****************************
                       * Geometry Optimization Run *
                       *****************************

Geometry optimization settings:
Update method            Update   .... BFGS
Choice of coordinates    CoordSys .... Z-matrix Internals
Initial Hessian          InHess   .... Almoef's Model

Convergence Tolerances:
Energy Change            TolE     ....  1.0000e-06 Eh
Max. Gradient            TolMAXG  ....  1.0000e-04 Eh/bohr
RMS Gradient             TolRMSG  ....  3.0000e-05 Eh/bohr
Max. Displacement        TolMAXD  ....  1.0000e-03 bohr
RMS Displacement         TolRMSD  ....  6.0000e-04 bohr
Strict Convergence                ....  False
------------------------------------------------------------------------------
                        ORCA OPTIMIZATION COORDINATE SETUP
------------------------------------------------------------------------------

The optimization will be done in new redundant internal coordinates
Making redundant internal coordinates   ...  (new redundants) done
Evaluating the initial hessian          ...  (Almloef) done
Evaluating the coordinates              ...  done
Calculating the B-matrix                .... done
Calculating the G-matrix                .... done
Diagonalizing the G-matrix              .... done
Small eigenvalue found = 4.833e-04
Small eigenvalue found = 1.160e-03
Small eigenvalue found = 2.286e-03
Small eigenvalue found = 3.088e-03
Small eigenvalue found = 5.120e-03
Small eigenvalue found = 5.282e-03
Small eigenvalue found = 6.668e-03
Small eigenvalue found = 7.708e-03
Small eigenvalue found = 9.001e-03
Small eigenvalue found = 9.232e-03
Small eigenvalue found = 1.065e-02
Small eigenvalue found = 1.305e-02
Small eigenvalue found = 1.576e-02
Small eigenvalue found = 1.766e-02
Small eigenvalue found = 1.997e-02
Small eigenvalue found = 2.119e-02
Small eigenvalue found = 2.263e-02
Small eigenvalue found = 2.544e-02
Small eigenvalue found = 2.994e-02
The first mode is                       ....  326
The number of degrees of freedom        ....  339

    -----------------------------------------------------------------
                    Redundant Internal Coordinates


    -----------------------------------------------------------------
         Definition                    Initial Value    Approx d2E/dq
    -----------------------------------------------------------------
      1. B(C   1,O   0)                  1.2453         0.952158   
      2. B(C   2,C   1)                  1.5505         0.346457   
      3. B(C   3,C   2)                  1.5337         0.368559   
      4. B(C   4,C   3)                  1.5380         0.362760   
      5. B(C   5,C   4)                  1.5340         0.368188   
      6. B(N   6,C   5)                  1.4761         0.407915   
      7. B(N   6,C   2)                  1.4818         0.399418   
      8. B(C   7,N   6)                  1.3626         0.618839   
      9. B(O   8,C   7)                  1.2442         0.956161   
     10. B(N   9,C   1)                  1.3473         0.654639   
     11. B(C  10,N   9)                  1.4571         0.437419   
     12. B(C  11,C  10)                  1.5505         0.346431   
     13. B(N  12,C  11)                  1.3698         0.602605   
     14. B(C  13,N  12)                  1.4669         0.421861   
     15. B(C  14,C  13)                  1.5488         0.348658   
     16. B(N  15,C  14)                  1.3748         0.591781   
     17. B(C  16,N  15)                  1.4470         0.453809   
     18. B(C  17,C  16)                  1.5484         0.349145   
     19. B(C  18,C  17)                  1.5388         0.361744   
     20. B(C  19,C  18)                  1.5340         0.368091   
     21. B(N  20,C  19)                  1.3561         0.633918   
     22. B(C  21,N  20)                  1.4637         0.426903   
     23. B(C  22,C  21)                  1.5516         0.345089   
     24. B(N  23,C  22)                  1.3669         0.609227   
     25. B(C  24,N  23)                  1.4620         0.429523   
     26. B(C  24,C   7)                  1.5436         0.355400   
     27. B(C  25,C  24)                  1.5281         0.376128   
     28. B(O  26,C  22)                  1.2331         0.995980   
     29. B(C  27,C  21)                  1.5266         0.378235   
     30. B(C  28,C  27)                  1.5424         0.356891   
     31. B(C  29,C  28)                  1.5360         0.365429   
     32. B(C  30,C  28)                  1.5352         0.366533   
     33. B(O  31,C  19)                  1.2441         0.956587   
     34. B(C  32,C  18)                  1.5427         0.356582   
     35. B(C  33,C  32)                  1.5059         0.408194   
     36. B(C  34,C  33)                  1.5272         0.377409   
     37. B(C  35,C  34)                  1.5355         0.366144   
     38. B(C  36,C  35)                  1.5341         0.368051   
     39. B(C  37,C  36)                  1.5321         0.370714   
     40. B(C  38,C  37)                  1.5328         0.369710   
     41. B(C  39,C  38)                  1.5323         0.370383   
     42. B(C  40,C  39)                  1.5341         0.367966   
     43. B(C  41,C  40)                  1.5316         0.371361   
     44. B(O  42,C  32)                  1.2276         1.016134   
     45. B(O  43,C  17)                  1.4423         0.461699   
     46. B(O  44,C  14)                  1.2328         0.997097   
     47. B(C  45,C  13)                  1.5374         0.363579   
     48. B(C  46,C  45)                  1.5298         0.373822   
     49. B(O  47,C  11)                  1.2311         1.003122   
     50. B(C  48,C  10)                  1.5523         0.344131   
     51. B(C  49,C  48)                  1.5342         0.367918   
     52. B(C  50,C  48)                  1.5348         0.366997   
     53. B(H  51,C   2)                  1.1094         0.335284   
     54. B(H  52,C   3)                  1.1091         0.335639   
     55. B(H  53,C   3)                  1.1053         0.340365   
     56. B(H  54,C   4)                  1.1088         0.336111   
     57. B(H  55,C   4)                  1.1071         0.338155   
     58. B(H  56,C   5)                  1.1055         0.340214   
     59. B(H  57,C   5)                  1.1133         0.330586   
     60. B(H  58,N   9)                  1.0366         0.392420   
     61. B(H  59,C  10)                  1.1136         0.330182   
     62. B(H  59,O  31)                  2.4616         0.002091   
     63. B(H  60,N  12)                  1.0332         0.397336   
     64. B(H  61,C  13)                  1.1099         0.334698   
     65. B(H  62,N  15)                  1.0331         0.397557   
     66. B(H  63,C  16)                  1.1139         0.329880   
     67. B(H  64,C  16)                  1.1096         0.335114   
     68. B(H  65,H  54)                  2.0089         0.002358   
     69. B(H  65,C  17)                  1.1132         0.330707   
     70. B(H  66,C  18)                  1.1020         0.344633   
     71. B(H  67,N  20)                  1.0328         0.397945   
     72. B(H  68,C  21)                  1.1109         0.333531   
     73. B(H  69,N  23)                  1.0369         0.392060   
     74. B(H  70,C  24)                  1.1095         0.335227   
     75. B(H  71,C  25)                  1.1068         0.338519   
     76. B(H  72,C  25)                  1.1079         0.337143   
     77. B(H  73,C  25)                  1.1068         0.338575   
     78. B(H  74,C  27)                  1.1111         0.333265   
     79. B(H  75,C  27)                  1.1111         0.333281   
     80. B(H  76,C  28)                  1.1151         0.328413   
     81. B(H  77,C  29)                  1.1095         0.335252   
     82. B(H  78,C  29)                  1.1082         0.336872   
     83. B(H  79,C  29)                  1.1112         0.333075   
     84. B(H  80,C  30)                  1.1094         0.335334   
     85. B(H  81,C  30)                  1.1109         0.333506   
     86. B(H  82,C  30)                  1.1093         0.335459   
     87. B(H  83,C  33)                  1.1156         0.327832   
     88. B(H  84,C  33)                  1.1108         0.333660   
     89. B(H  85,H  60)                  4.3302         0.000000   
     90. B(H  85,C  34)                  1.1097         0.334992   
     91. B(H  86,H  77)                  4.1511         0.000001   
     92. B(H  86,C  34)                  1.1108         0.333600   
     93. B(H  87,C  35)                  1.1140         0.329769   
     94. B(H  88,C  35)                  1.1120         0.332181   
     95. B(H  89,C  36)                  1.1143         0.329294   
     96. B(H  90,C  36)                  1.1131         0.330853   
     97. B(H  91,C  37)                  1.1139         0.329803   
     98. B(H  92,C  37)                  1.1137         0.330090   
     99. B(H  93,C  38)                  1.1141         0.329568   
    100. B(H  94,H  82)                  2.2748         0.000887   
    101. B(H  94,C  38)                  1.1146         0.329037   
    102. B(H  95,C  39)                  1.1142         0.329461   
    103. B(H  96,C  39)                  1.1141         0.329624   
    104. B(H  97,C  40)                  1.1133         0.330540   
    105. B(H  98,C  40)                  1.1134         0.330378   
    106. B(H  99,C  41)                  1.1091         0.335726   
    107. B(H 100,C  41)                  1.1105         0.333970   
    108. B(H 101,C  41)                  1.1106         0.333907   
    109. B(H 102,O  43)                  0.9759         0.490451   
    110. B(H 103,C  45)                  1.1113         0.332960   
    111. B(H 104,C  45)                  1.1066         0.338815   
    112. B(H 105,C  46)                  1.1087         0.336136   
    113. B(H 106,C  46)                  1.1103         0.334188   
    114. B(H 107,C  46)                  1.1072         0.338016   
    115. B(H 108,C  48)                  1.1150         0.328546   
    116. B(H 109,C  49)                  1.1095         0.335248   
    117. B(H 110,C  49)                  1.1085         0.336434   
    118. B(H 111,C  49)                  1.1095         0.335145   
    119. B(H 112,C  50)                  1.1079         0.337239   
    120. B(H 113,C  50)                  1.1077         0.337453   
    121. B(H 114,C  50)                  1.1090         0.335855   
    122. A(O   0,C   1,N   9)          125.2593         0.467652   
    123. A(C   2,C   1,N   9)          113.7956         0.392705   
    124. A(O   0,C   1,C   2)          120.9244         0.419582   
    125. A(C   1,C   2,H  51)          108.8408         0.316630   
    126. A(N   6,C   2,H  51)          108.9091         0.322144   
    127. A(C   1,C   2,N   6)          109.4133         0.360573   
    128. A(C   1,C   2,C   3)          112.4543         0.357888   
    129. A(C   3,C   2,H  51)          113.4515         0.319839   
    130. A(C   3,C   2,N   6)          103.5734         0.364401   
    131. A(C   4,C   3,H  53)          112.8929         0.319796   
    132. A(C   4,C   3,H  52)          110.6905         0.319067   
    133. A(C   2,C   3,C   4)          103.5520         0.360701   
    134. A(C   2,C   3,H  53)          111.3086         0.320626   
    135. A(C   2,C   3,H  52)          109.5447         0.319894   
    136. A(H  52,C   3,H  53)          108.7599         0.285133   
    137. A(H  54,C   4,H  55)          108.0341         0.284906   
    138. A(C   3,C   4,H  55)          113.5797         0.319456   
    139. A(C   3,C   4,C   5)          103.8495         0.360639   
    140. A(C   3,C   4,H  54)          109.2657         0.319140   
    141. A(C   5,C   4,H  55)          112.1748         0.320232   
    142. A(C   5,C   4,H  54)          109.8638         0.319915   
    143. A(H  56,C   5,H  57)          107.1172         0.284441   
    144. A(C   4,C   5,N   6)          103.4041         0.365653   
    145. A(C   4,C   5,H  56)          113.3557         0.320550   
    146. A(N   6,C   5,H  57)          109.8336         0.322511   
    147. A(N   6,C   5,H  56)          112.0258         0.324033   
    148. A(C   4,C   5,H  57)          111.1273         0.319050   
    149. A(C   5,N   6,C   7)          126.8657         0.397594   
    150. A(C   2,N   6,C   7)          120.5414         0.396128   
    151. A(C   2,N   6,C   5)          112.2016         0.368480   
    152. A(O   8,C   7,C  24)          120.9995         0.421810   
    153. A(N   6,C   7,O   8)          122.0172         0.463217   
    154. A(N   6,C   7,C  24)          116.8294         0.390599   
    155. A(C   1,N   9,C  10)          124.8393         0.406527   
    156. A(C  10,N   9,H  58)          118.2891         0.332745   
    157. A(C   1,N   9,H  58)          114.9369         0.356035   
    158. A(C  48,C  10,H  59)          107.0536         0.315496   
    159. A(C  11,C  10,H  59)          109.8410         0.315838   
    160. A(N   9,C  10,C  11)          109.7558         0.366212   
    161. A(N   9,C  10,C  48)          109.4733         0.365795   
    162. A(N   9,C  10,H  59)          108.3942         0.326165   
    163. A(C  11,C  10,C  48)          112.2195         0.353742   
    164. A(N  12,C  11,O  47)          125.9758         0.465031   
    165. A(C  10,C  11,O  47)          121.5127         0.423501   
    166. A(C  10,C  11,N  12)          112.4811         0.387060   
    167. A(C  13,N  12,H  60)          111.7487         0.331437   
    168. A(C  11,N  12,C  13)          128.4927         0.398086   
    169. A(C  11,N  12,H  60)          116.3147         0.351815   
    170. A(C  14,C  13,C  45)          112.4645         0.357445   
    171. A(N  12,C  13,H  61)          106.9085         0.324953   
    172. A(C  14,C  13,H  61)          103.0788         0.316867   
    173. A(N  12,C  13,C  14)          108.9891         0.364348   
    174. A(C  45,C  13,H  61)          108.0405         0.319038   
    175. A(N  12,C  13,C  45)          116.3646         0.366972   
    176. A(C  13,C  14,N  15)          115.2667         0.386271   
    177. A(N  15,C  14,O  44)          123.1632         0.462982   
    178. A(C  13,C  14,O  44)          121.5318         0.423530   
    179. A(C  14,N  15,H  62)          120.0173         0.350772   
    180. A(C  16,N  15,H  62)          116.0329         0.335507   
    181. A(C  14,N  15,C  16)          119.5317         0.401949   
    182. A(H  63,C  16,H  64)          107.6466         0.283680   
    183. A(C  17,C  16,H  64)          109.8923         0.317003   
    184. A(N  15,C  16,H  63)          111.3857         0.328098   
    185. A(C  17,C  16,H  63)          108.6066         0.316192   
    186. A(N  15,C  16,C  17)          112.7961         0.369024   
    187. A(N  15,C  16,H  64)          106.3753         0.328952   
    188. A(O  43,C  17,H  65)          109.5976         0.329169   
    189. A(C  18,C  17,H  65)          104.9350         0.318152   
    190. A(C  16,C  17,H  65)          108.4991         0.316320   
    191. A(C  16,C  17,C  18)          112.3821         0.357223   
    192. A(C  18,C  17,O  43)          111.1049         0.372384   
    193. A(C  16,C  17,O  43)          110.1440         0.370119   
    194. A(C  19,C  18,H  66)          103.9203         0.321214   
    195. A(C  17,C  18,H  66)          104.4751         0.320301   
    196. A(C  17,C  18,C  32)          118.1507         0.358506   
    197. A(C  17,C  18,C  19)          116.0897         0.360450   
    198. A(C  19,C  18,C  32)          107.3128         0.359569   
    199. A(C  32,C  18,H  66)          105.3280         0.319550   
    200. A(C  18,C  19,N  20)          116.3284         0.394665   
    201. A(N  20,C  19,O  31)          123.2275         0.465300   
    202. A(C  18,C  19,O  31)          120.3899         0.424498   
    203. A(C  19,N  20,H  67)          116.8672         0.354938   
    204. A(C  19,N  20,C  21)          122.4882         0.402492   
    205. A(C  21,N  20,H  67)          120.5681         0.332174   
    206. A(C  27,C  21,H  68)          110.7731         0.320922   
    207. A(C  22,C  21,H  68)          107.3294         0.316157   
    208. A(N  20,C  21,H  68)          106.3549         0.325402   
    209. A(N  20,C  21,C  22)          109.0823         0.364448   
    210. A(C  22,C  21,C  27)          112.4072         0.359227   
    211. A(N  20,C  21,C  27)          110.6562         0.370225   
    212. A(C  21,C  22,N  23)          112.1539         0.387536   
    213. A(C  21,C  22,O  26)          123.1029         0.422667   
    214. A(N  23,C  22,O  26)          124.6940         0.465354   
    215. A(C  22,N  23,C  24)          123.1365         0.400117   
    216. A(C  24,N  23,H  69)          118.6335         0.331691   
    217. A(C  22,N  23,H  69)          116.2633         0.351670   
    218. A(C  25,C  24,H  70)          110.1612         0.320895   
    219. A(N  23,C  24,H  70)          105.4716         0.326001   
    220. A(C   7,C  24,H  70)          110.9909         0.317938   
    221. A(N  23,C  24,C  25)          112.2668         0.370259   
    222. A(C   7,C  24,N  23)          106.6293         0.366674   
    223. A(C   7,C  24,C  25)          111.1437         0.360690   
    224. A(H  71,C  25,H  73)          109.4951         0.285278   
    225. A(C  24,C  25,H  73)          110.3704         0.321417   
    226. A(H  71,C  25,H  72)          108.8691         0.285090   
    227. A(C  24,C  25,H  72)          110.6347         0.321194   
    228. A(C  24,C  25,H  71)          109.8352         0.321408   
    229. A(H  72,C  25,H  73)          107.5898         0.285098   
    230. A(C  28,C  27,H  75)          110.6689         0.317854   
    231. A(C  21,C  27,C  28)          114.7189         0.361292   
    232. A(H  74,C  27,H  75)          105.2440         0.283888   
    233. A(C  21,C  27,H  75)          108.4231         0.320882   
    234. A(C  28,C  27,H  74)          109.6232         0.317851   
    235. A(C  21,C  27,H  74)          107.6962         0.320880   
    236. A(C  29,C  28,C  30)          111.2021         0.360813   
    237. A(C  27,C  28,C  30)          110.1615         0.359362   
    238. A(C  27,C  28,C  29)          112.3203         0.359178   
    239. A(C  30,C  28,H  76)          107.3748         0.318473   
    240. A(C  29,C  28,H  76)          107.5475         0.318317   
    241. A(C  27,C  28,H  76)          108.0227         0.317093   
    242. A(C  28,C  29,H  79)          110.9184         0.319049   
    243. A(H  78,C  29,H  79)          107.5635         0.284336   
    244. A(H  77,C  29,H  79)          107.6166         0.284123   
    245. A(H  77,C  29,H  78)          107.2188         0.284625   
    246. A(C  28,C  29,H  78)          110.9860         0.319640   
    247. A(C  28,C  29,H  77)          112.3186         0.319389   
    248. A(H  81,C  30,H  82)          107.5491         0.284208   
    249. A(H  80,C  30,H  82)          107.9319         0.284449   
    250. A(C  28,C  30,H  82)          111.1425         0.319578   
    251. A(H  80,C  30,H  81)          107.5456         0.284191   
    252. A(C  28,C  30,H  81)          110.9343         0.319274   
    253. A(C  28,C  30,H  80)          111.5574         0.319559   
    254. A(C  33,C  32,O  42)          122.3386         0.437170   
    255. A(C  18,C  32,O  42)          119.4014         0.426678   
    256. A(C  18,C  32,C  33)          118.1589         0.365976   
    257. A(C  32,C  33,C  34)          114.6146         0.369558   
    258. A(C  34,C  33,H  84)          112.3078         0.320827   
    259. A(H  83,C  33,H  84)          103.2650         0.283214   
    260. A(C  32,C  33,H  84)          108.5225         0.324978   
    261. A(C  34,C  33,H  83)          111.9432         0.319904   
    262. A(C  32,C  33,H  83)          105.3600         0.324039   
    263. A(C  33,C  34,C  35)          112.8986         0.362739   
    264. A(H  85,C  34,H  86)          106.0232         0.284159   
    265. A(C  35,C  34,H  86)          110.2875         0.319233   
    266. A(C  33,C  34,H  86)          109.1373         0.320818   
    267. A(C  35,C  34,H  85)          110.2571         0.319450   
    268. A(C  33,C  34,H  85)          107.9792         0.321036   
    269. A(C  34,C  35,C  36)          114.2302         0.361187   
    270. A(H  87,C  35,H  88)          105.6566         0.283278   
    271. A(C  36,C  35,H  88)          109.2045         0.319282   
    272. A(C  34,C  35,H  88)          108.9181         0.319011   
    273. A(C  36,C  35,H  87)          109.1161         0.318902   
    274. A(C  34,C  35,H  87)          109.3642         0.318632   
    275. A(C  35,C  36,C  37)          114.3306         0.361953   
    276. A(H  89,C  36,H  90)          105.5003         0.283039   
    277. A(C  37,C  36,H  90)          108.3817         0.319449   
    278. A(C  35,C  36,H  90)          109.6412         0.319073   
    279. A(C  37,C  36,H  89)          109.3716         0.319203   
    280. A(C  35,C  36,H  89)          109.2419         0.318827   
    281. A(C  36,C  37,C  38)          113.3387         0.362231   
    282. A(H  91,C  37,H  92)          105.5434         0.283005   
    283. A(C  38,C  37,H  92)          109.5066         0.319187   
    284. A(C  36,C  37,H  92)          109.5346         0.319328   
    285. A(C  38,C  37,H  91)          109.3276         0.319142   
    286. A(C  36,C  37,H  91)          109.2949         0.319283   
    287. A(C  37,C  38,C  39)          114.2219         0.362175   
    288. A(H  93,C  38,H  94)          105.3497         0.282834   
    289. A(C  39,C  38,H  94)          109.1464         0.319115   
    290. A(C  37,C  38,H  94)          109.0870         0.319021   
    291. A(C  39,C  38,H  93)          109.3559         0.319199   
    292. A(C  37,C  38,H  93)          109.3031         0.319105   
    293. A(C  38,C  39,C  40)          113.7518         0.361883   
    294. A(H  95,C  39,H  96)          105.4769         0.282898   
    295. A(C  40,C  39,H  96)          109.3516         0.318867   
    296. A(C  38,C  39,H  96)          109.3330         0.319208   
    297. A(C  40,C  39,H  95)          109.3067         0.318842   
    298. A(C  38,C  39,H  95)          109.2910         0.319183   
    299. A(C  39,C  40,C  41)          113.5352         0.362046   
    300. A(H  97,C  40,H  98)          105.4917         0.283142   
    301. A(C  41,C  40,H  98)          109.6784         0.319465   
    302. A(C  39,C  40,H  98)          109.0550         0.318986   
    303. A(C  41,C  40,H  97)          109.6855         0.319490   
    304. A(C  39,C  40,H  97)          109.0794         0.319012   
    305. A(H 100,C  41,H 101)          107.1877         0.284064   
    306. A(H  99,C  41,H 101)          107.5267         0.284296   
    307. A(C  40,C  41,H 101)          111.2901         0.320020   
    308. A(H  99,C  41,H 100)          107.5224         0.284304   
    309. A(C  40,C  41,H 100)          111.2767         0.320030   
    310. A(C  40,C  41,H  99)          111.8082         0.320304   
    311. A(C  17,O  43,H 102)          107.9037         0.348516   
    312. A(C  13,C  45,C  46)          113.2392         0.361713   
    313. A(C  46,C  45,H 104)          109.9192         0.321131   
    314. A(C  13,C  45,H 104)          109.7682         0.319676   
    315. A(C  46,C  45,H 103)          110.2408         0.320217   
    316. A(C  13,C  45,H 103)          105.8536         0.318767   
    317. A(H 103,C  45,H 104)          107.6062         0.284575   
    318. A(H 106,C  46,H 107)          108.6668         0.284634   
    319. A(H 105,C  46,H 107)          107.5228         0.284891   
    320. A(C  45,C  46,H 107)          110.4091         0.321007   
    321. A(H 105,C  46,H 106)          107.7759         0.284387   
    322. A(C  45,C  46,H 106)          111.5141         0.320409   
    323. A(C  45,C  46,H 105)          110.8177         0.320714   
    324. A(C  50,C  48,H 108)          108.3460         0.318560   
    325. A(C  49,C  48,H 108)          107.7375         0.318690   
    326. A(C  10,C  48,H 108)          104.8342         0.315242   
    327. A(C  49,C  48,C  50)          111.9577         0.361308   
    328. A(C  10,C  48,C  50)          113.0044         0.357220   
    329. A(C  10,C  48,C  49)          110.5523         0.357372   
    330. A(H 110,C  49,H 111)          107.7075         0.284553   
    331. A(H 109,C  49,H 111)          107.7060         0.284397   
    332. A(C  48,C  49,H 111)          111.1595         0.319726   
    333. A(H 109,C  49,H 110)          107.9081         0.284567   
    334. A(C  48,C  49,H 110)          110.5792         0.319927   
    335. A(C  48,C  49,H 109)          111.6179         0.319742   
    336. A(H 113,C  50,H 114)          108.4999         0.284781   
    337. A(H 112,C  50,H 114)          108.0719         0.284752   
    338. A(C  48,C  50,H 114)          110.2897         0.319706   
    339. A(H 112,C  50,H 113)          106.9903         0.284963   
    340. A(C  48,C  50,H 113)          111.1347         0.319954   
    341. A(C  48,C  50,H 112)          111.7131         0.319921   
    342. D(H  51,C   2,C   1,N   9)    -40.7778         0.009087   
    343. D(C   3,C   2,C   1,N   9)   -167.3631         0.009087   
    344. D(N   6,C   2,C   1,N   9)     78.1239         0.009087   
    345. D(N   6,C   2,C   1,O   0)   -100.3010         0.009087   
    346. D(C   3,C   2,C   1,O   0)     14.2120         0.009087   
    347. D(H  51,C   2,C   1,O   0)    140.7973         0.009087   
    348. D(C   4,C   3,C   2,N   6)     29.3451         0.010864   
    349. D(H  53,C   3,C   2,H  51)    -91.1723         0.010864   
    350. D(H  53,C   3,C   2,C   1)     32.8958         0.010864   
    351. D(C   4,C   3,C   2,H  51)    147.2582         0.010864   
    352. D(H  53,C   3,C   2,N   6)    150.9146         0.010864   
    353. D(H  52,C   3,C   2,H  51)     29.1443         0.010864   
    354. D(C   4,C   3,C   2,C   1)    -88.6737         0.010864   
    355. D(H  52,C   3,C   2,C   1)    153.2123         0.010864   
    356. D(H  52,C   3,C   2,N   6)    -88.7689         0.010864   
    357. D(H  55,C   4,C   3,H  53)     80.2717         0.010546   
    358. D(H  55,C   4,C   3,H  52)    -41.9130         0.010546   
    359. D(H  54,C   4,C   3,H  52)   -162.6021         0.010546   
    360. D(H  55,C   4,C   3,C   2)   -159.2281         0.010546   
    361. D(H  54,C   4,C   3,H  53)    -40.4174         0.010546   
    362. D(C   5,C   4,C   3,C   2)    -37.1038         0.010546   
    363. D(H  54,C   4,C   3,C   2)     80.0828         0.010546   
    364. D(C   5,C   4,C   3,H  53)   -157.6041         0.010546   
    365. D(C   5,C   4,C   3,H  52)     80.2112         0.010546   
    366. D(N   6,C   5,C   4,C   3)     29.9991         0.010843   
    367. D(H  57,C   5,C   4,C   3)    -87.7766         0.010843   
    368. D(H  56,C   5,C   4,H  55)    -85.4262         0.010843   
    369. D(H  56,C   5,C   4,C   3)    151.5222         0.010843   
    370. D(H  57,C   5,C   4,H  54)    155.4544         0.010843   
    371. D(H  56,C   5,C   4,H  54)     34.7531         0.010843   
    372. D(H  57,C   5,C   4,H  55)     35.2750         0.010843   
    373. D(N   6,C   5,C   4,H  54)    -86.7699         0.010843   
    374. D(N   6,C   5,C   4,H  55)    153.0507         0.010843   
    375. D(C   5,N   6,C   2,C   3)    -11.0056         0.013622   
    376. D(C   7,N   6,C   5,H  57)    -66.0719         0.014197   
    377. D(C   7,N   6,C   5,H  56)     52.8382         0.014197   
    378. D(C   7,N   6,C   5,C   4)    175.2522         0.014197   
    379. D(C   2,N   6,C   5,H  57)    106.7097         0.014197   
    380. D(C   2,N   6,C   5,H  56)   -134.3802         0.014197   
    381. D(C   7,N   6,C   2,H  51)     41.2628         0.013622   
    382. D(C   2,N   6,C   5,C   4)    -11.9662         0.014197   
    383. D(C   7,N   6,C   2,C   3)    162.2914         0.013622   
    384. D(C   5,N   6,C   2,C   1)    109.1064         0.013622   
    385. D(C   7,N   6,C   2,C   1)    -77.5965         0.013622   
    386. D(C   5,N   6,C   2,H  51)   -132.0343         0.013622   
    387. D(C  24,C   7,N   6,C   5)    -11.9476         0.031001   
    388. D(C  24,C   7,N   6,C   2)    175.8154         0.031001   
    389. D(O   8,C   7,N   6,C   5)    172.5218         0.031001   
    390. D(O   8,C   7,N   6,C   2)      0.2849         0.031001   
    391. D(H  58,N   9,C   1,O   0)    168.2914         0.035018   
    392. D(C  10,N   9,C   1,C   2)   -173.8795         0.035018   
    393. D(H  58,N   9,C   1,C   2)    -10.0539         0.035018   
    394. D(C  10,N   9,C   1,O   0)      4.4658         0.035018   
    395. D(H  59,C  10,N   9,C   1)     75.6134         0.016314   
    396. D(C  48,C  10,N   9,H  58)     28.7314         0.016314   
    397. D(C  48,C  10,N   9,C   1)   -167.9382         0.016314   
    398. D(C  11,C  10,N   9,C   1)    -44.3529         0.016314   
    399. D(H  59,C  10,N   9,H  58)    -87.7171         0.016314   
    400. D(C  11,C  10,N   9,H  58)    152.3167         0.016314   
    401. D(O  47,C  11,C  10,N   9)    -43.1936         0.009086   
    402. D(N  12,C  11,C  10,H  59)     19.6199         0.009086   
    403. D(N  12,C  11,C  10,C  48)    -99.3387         0.009086   
    404. D(N  12,C  11,C  10,N   9)    138.7005         0.009086   
    405. D(O  47,C  11,C  10,H  59)   -162.2743         0.009086   
    406. D(O  47,C  11,C  10,C  48)     78.7671         0.009086   
    407. D(H  60,N  12,C  11,O  47)    174.3527         0.029279   
    408. D(H  60,N  12,C  11,C  10)     -7.6427         0.029279   
    409. D(C  13,N  12,C  11,O  47)     17.2173         0.029279   
    410. D(C  13,N  12,C  11,C  10)   -164.7781         0.029279   
    411. D(H  61,C  13,N  12,C  11)   -149.9290         0.015174   
    412. D(H  61,C  13,N  12,H  60)     52.0942         0.015174   
    413. D(C  45,C  13,N  12,H  60)    172.8862         0.015174   
    414. D(C  45,C  13,N  12,C  11)    -29.1369         0.015174   
    415. D(C  14,C  13,N  12,C  11)     99.2939         0.015174   
    416. D(C  14,C  13,N  12,H  60)    -58.6829         0.015174   
    417. D(O  44,C  14,C  13,C  45)   -101.8969         0.009192   
    418. D(O  44,C  14,C  13,N  12)    127.5244         0.009192   
    419. D(N  15,C  14,C  13,H  61)   -163.6014         0.009192   
    420. D(N  15,C  14,C  13,C  45)     80.2880         0.009192   
    421. D(O  44,C  14,C  13,H  61)     14.2137         0.009192   
    422. D(N  15,C  14,C  13,N  12)    -50.2907         0.009192   
    423. D(H  62,N  15,C  14,O  44)   -173.0428         0.028164   
    424. D(H  62,N  15,C  14,C  13)      4.7325         0.028164   
    425. D(C  16,N  15,C  14,O  44)    -17.5577         0.028164   
    426. D(C  16,N  15,C  14,C  13)    160.2176         0.028164   
    427. D(H  64,C  16,N  15,H  62)    166.7103         0.017572   
    428. D(H  64,C  16,N  15,C  14)     10.2788         0.017572   
    429. D(H  63,C  16,N  15,H  62)    -76.2635         0.017572   
    430. D(H  63,C  16,N  15,C  14)    127.3050         0.017572   
    431. D(C  17,C  16,N  15,C  14)   -110.2643         0.017572   
    432. D(C  17,C  16,N  15,H  62)     46.1673         0.017572   
    433. D(H  65,C  17,C  16,H  64)    164.8976         0.009825   
    434. D(H  65,C  17,C  16,H  63)     47.3827         0.009825   
    435. D(H  65,C  17,C  16,N  15)    -76.5935         0.009825   
    436. D(O  43,C  17,C  16,H  64)     44.9332         0.009825   
    437. D(O  43,C  17,C  16,H  63)    -72.5817         0.009825   
    438. D(O  43,C  17,C  16,N  15)    163.4421         0.009825   
    439. D(C  18,C  17,C  16,H  64)    -79.5277         0.009825   
    440. D(C  18,C  17,C  16,H  63)    162.9574         0.009825   
    441. D(C  18,C  17,C  16,N  15)     38.9813         0.009825   
    442. D(H  66,C  18,C  17,H  65)     55.7369         0.010492   
    443. D(H  66,C  18,C  17,O  43)    174.0994         0.010492   
    444. D(H  66,C  18,C  17,C  16)    -61.9720         0.010492   
    445. D(C  32,C  18,C  17,O  43)    -69.2997         0.010492   
    446. D(C  32,C  18,C  17,C  16)     54.6289         0.010492   
    447. D(C  32,C  18,C  17,H  65)    172.3377         0.010492   
    448. D(C  19,C  18,C  17,H  65)    -58.0326         0.010492   
    449. D(C  19,C  18,C  17,O  43)     60.3300         0.010492   
    450. D(C  19,C  18,C  17,C  16)   -175.7414         0.010492   
    451. D(O  31,C  19,C  18,H  66)     35.1582         0.010154   
    452. D(O  31,C  19,C  18,C  32)    -76.0971         0.010154   
    453. D(O  31,C  19,C  18,C  17)    149.2440         0.010154   
    454. D(N  20,C  19,C  18,H  66)   -147.4322         0.010154   
    455. D(N  20,C  19,C  18,C  17)    -33.3464         0.010154   
    456. D(N  20,C  19,C  18,C  32)    101.3125         0.010154   
    457. D(H  67,N  20,C  19,O  31)   -178.6400         0.032656   
    458. D(H  67,N  20,C  19,C  18)      4.0312         0.032656   
    459. D(C  21,N  20,C  19,O  31)      4.5269         0.032656   
    460. D(C  21,N  20,C  19,C  18)   -172.8018         0.032656   
    461. D(H  68,C  21,N  20,H  67)   -143.2759         0.015538   
    462. D(H  68,C  21,N  20,C  19)     33.4429         0.015538   
    463. D(C  27,C  21,N  20,H  67)    -22.9012         0.015538   
    464. D(C  27,C  21,N  20,C  19)    153.8176         0.015538   
    465. D(C  22,C  21,N  20,H  67)    101.2569         0.015538   
    466. D(C  22,C  21,N  20,C  19)    -82.0243         0.015538   
    467. D(N  23,C  22,C  21,C  27)   -162.7598         0.009022   
    468. D(N  23,C  22,C  21,N  20)     74.1205         0.009022   
    469. D(O  26,C  22,C  21,H  68)    141.7279         0.009022   
    470. D(O  26,C  22,C  21,C  27)     19.6866         0.009022   
    471. D(O  26,C  22,C  21,N  20)   -103.4331         0.009022   
    472. D(N  23,C  22,C  21,H  68)    -40.7185         0.009022   
    473. D(H  69,N  23,C  22,O  26)    170.6729         0.029974   
    474. D(H  69,N  23,C  22,C  21)     -6.8346         0.029974   
    475. D(C  24,N  23,C  22,O  26)      6.8792         0.029974   
    476. D(C  24,N  23,C  22,C  21)   -170.6283         0.029974   
    477. D(H  70,C  24,N  23,H  69)   -161.8329         0.015729   
    478. D(H  70,C  24,N  23,C  22)      1.5987         0.015729   
    479. D(C  25,C  24,N  23,H  69)     78.1823         0.015729   
    480. D(C  25,C  24,N  23,C  22)   -118.3862         0.015729   
    481. D(C   7,C  24,N  23,H  69)    -43.7609         0.015729   
    482. D(C   7,C  24,N  23,C  22)    119.6707         0.015729   
    483. D(H  70,C  24,C   7,O   8)   -145.8189         0.009518   
    484. D(H  70,C  24,C   7,N   6)     38.6021         0.009518   
    485. D(C  25,C  24,C   7,O   8)    -22.8493         0.009518   
    486. D(C  25,C  24,C   7,N   6)    161.5716         0.009518   
    487. D(N  23,C  24,C   7,O   8)     99.8011         0.009518   
    488. D(N  23,C  24,C   7,N   6)    -75.7779         0.009518   
    489. D(H  73,C  25,C  24,H  70)    179.3609         0.011288   
    490. D(H  73,C  25,C  24,N  23)    -63.4193         0.011288   
    491. D(H  73,C  25,C  24,C   7)     55.9155         0.011288   
    492. D(H  72,C  25,C  24,H  70)     60.3955         0.011288   
    493. D(H  72,C  25,C  24,N  23)    177.6153         0.011288   
    494. D(H  72,C  25,C  24,C   7)    -63.0499         0.011288   
    495. D(H  71,C  25,C  24,H  70)    -59.8168         0.011288   
    496. D(H  71,C  25,C  24,N  23)     57.4030         0.011288   
    497. D(H  71,C  25,C  24,C   7)    176.7378         0.011288   
    498. D(H  75,C  27,C  21,H  68)   -172.7341         0.011408   
    499. D(H  75,C  27,C  21,C  22)    -52.6681         0.011408   
    500. D(H  75,C  27,C  21,N  20)     69.5648         0.011408   
    501. D(H  74,C  27,C  21,H  68)    -59.3319         0.011408   
    502. D(H  74,C  27,C  21,C  22)     60.7340         0.011408   
    503. D(H  74,C  27,C  21,N  20)   -177.0331         0.011408   
    504. D(C  28,C  27,C  21,H  68)     63.0089         0.011408   
    505. D(C  28,C  27,C  21,C  22)   -176.9252         0.011408   
    506. D(C  28,C  27,C  21,N  20)    -54.6923         0.011408   
    507. D(H  76,C  28,C  27,H  75)    -60.2560         0.010231   
    508. D(H  76,C  28,C  27,H  74)   -175.9046         0.010231   
    509. D(H  76,C  28,C  27,C  21)     62.8035         0.010231   
    510. D(C  30,C  28,C  27,H  75)     56.7438         0.010231   
    511. D(C  30,C  28,C  27,H  74)    -58.9048         0.010231   
    512. D(C  30,C  28,C  27,C  21)    179.8033         0.010231   
    513. D(C  29,C  28,C  27,H  75)   -178.7004         0.010231   
    514. D(C  29,C  28,C  27,H  74)     65.6510         0.010231   
    515. D(C  29,C  28,C  27,C  21)    -55.6409         0.010231   
    516. D(H  79,C  29,C  28,C  30)     66.2944         0.010692   
    517. D(H  79,C  29,C  28,C  27)    -57.6848         0.010692   
    518. D(H  78,C  29,C  28,H  76)     64.0779         0.010692   
    519. D(H  78,C  29,C  28,C  30)    -53.2187         0.010692   
    520. D(H  78,C  29,C  28,C  27)   -177.1980         0.010692   
    521. D(H  77,C  29,C  28,H  76)    -55.9349         0.010692   
    522. D(H  77,C  29,C  28,C  30)   -173.2315         0.010692   
    523. D(H  79,C  29,C  28,H  76)   -176.4090         0.010692   
    524. D(H  77,C  29,C  28,C  27)     62.7893         0.010692   
    525. D(H  82,C  30,C  28,H  76)    -59.0155         0.010752   
    526. D(H  82,C  30,C  28,C  29)     58.3861         0.010752   
    527. D(H  82,C  30,C  28,C  27)   -176.4176         0.010752   
    528. D(H  81,C  30,C  28,H  76)   -178.6241         0.010752   
    529. D(H  81,C  30,C  28,C  29)    -61.2224         0.010752   
    530. D(H  81,C  30,C  28,C  27)     63.9738         0.010752   
    531. D(H  80,C  30,C  28,H  76)     61.4963         0.010752   
    532. D(H  80,C  30,C  28,C  29)    178.8979         0.010752   
    533. D(H  80,C  30,C  28,C  27)    -55.9058         0.010752   
    534. D(O  42,C  32,C  18,H  66)    -17.5343         0.009576   
    535. D(O  42,C  32,C  18,C  19)     92.7526         0.009576   
    536. D(O  42,C  32,C  18,C  17)   -133.6773         0.009576   
    537. D(C  33,C  32,C  18,H  66)    166.0350         0.009576   
    538. D(C  33,C  32,C  18,C  19)    -83.6781         0.009576   
    539. D(C  33,C  32,C  18,C  17)     49.8919         0.009576   
    540. D(H  84,C  33,C  32,O  42)    139.0570         0.012345   
    541. D(H  84,C  33,C  32,C  18)    -44.6235         0.012345   
    542. D(H  83,C  33,C  32,O  42)   -110.8840         0.012345   
    543. D(H  83,C  33,C  32,C  18)     65.4355         0.012345   
    544. D(C  34,C  33,C  32,O  42)     12.6281         0.012345   
    545. D(C  34,C  33,C  32,C  18)   -171.0524         0.012345   
    546. D(H  86,C  34,C  33,H  84)    176.3369         0.011361   
    547. D(H  86,C  34,C  33,H  83)     60.6990         0.011361   
    548. D(H  86,C  34,C  33,C  32)    -59.2143         0.011361   
    549. D(H  85,C  34,C  33,H  84)    -68.8421         0.011361   
    550. D(H  85,C  34,C  33,H  83)    175.5199         0.011361   
    551. D(H  85,C  34,C  33,C  32)     55.6066         0.011361   
    552. D(C  35,C  34,C  33,H  84)     53.3134         0.011361   
    553. D(C  35,C  34,C  33,H  83)    -62.3245         0.011361   
    554. D(C  35,C  34,C  33,C  32)    177.7622         0.011361   
    555. D(H  88,C  35,C  34,H  86)     59.8020         0.010731   
    556. D(H  88,C  35,C  34,H  85)    -56.9488         0.010731   
    557. D(H  88,C  35,C  34,C  33)   -177.8163         0.010731   
    558. D(H  87,C  35,C  34,H  86)    174.8162         0.010731   
    559. D(H  87,C  35,C  34,H  85)     58.0653         0.010731   
    560. D(H  87,C  35,C  34,C  33)    -62.8022         0.010731   
    561. D(C  36,C  35,C  34,H  86)    -62.5801         0.010731   
    562. D(C  36,C  35,C  34,H  85)   -179.3309         0.010731   
    563. D(C  36,C  35,C  34,C  33)     59.8016         0.010731   
    564. D(H  90,C  36,C  35,H  87)     61.6065         0.010836   
    565. D(H  90,C  36,C  35,C  34)    -61.1323         0.010836   
    566. D(H  89,C  36,C  35,H  88)    -68.1997         0.010836   
    567. D(H  89,C  36,C  35,H  87)    176.7647         0.010836   
    568. D(H  89,C  36,C  35,C  34)     54.0259         0.010836   
    569. D(C  37,C  36,C  35,H  88)     54.7152         0.010836   
    570. D(C  37,C  36,C  35,H  87)    -60.3204         0.010836   
    571. D(H  90,C  36,C  35,H  88)    176.6421         0.010836   
    572. D(C  37,C  36,C  35,C  34)    176.9408         0.010836   
    573. D(H  92,C  37,C  36,H  90)    177.8724         0.010984   
    574. D(H  92,C  37,C  36,H  89)     63.3312         0.010984   
    575. D(H  92,C  37,C  36,C  35)    -59.5134         0.010984   
    576. D(H  91,C  37,C  36,H  90)    -66.9472         0.010984   
    577. D(H  91,C  37,C  36,H  89)    178.5116         0.010984   
    578. D(H  91,C  37,C  36,C  35)     55.6670         0.010984   
    579. D(C  38,C  37,C  36,H  90)     55.2591         0.010984   
    580. D(C  38,C  37,C  36,H  89)    -59.2822         0.010984   
    581. D(C  38,C  37,C  36,C  35)    177.8732         0.010984   
    582. D(H  94,C  38,C  37,H  92)   -179.7934         0.010928   
    583. D(H  94,C  38,C  37,H  91)     65.0235         0.010928   
    584. D(H  94,C  38,C  37,C  36)    -57.1646         0.010928   
    585. D(H  93,C  38,C  37,H  92)    -65.0856         0.010928   
    586. D(H  93,C  38,C  37,H  91)    179.7314         0.010928   
    587. D(H  93,C  38,C  37,C  36)     57.5433         0.010928   
    588. D(C  39,C  38,C  37,H  92)     57.7787         0.010928   
    589. D(C  39,C  38,C  37,H  91)    -57.4043         0.010928   
    590. D(C  39,C  38,C  37,C  36)   -179.5924         0.010928   
    591. D(H  95,C  39,C  38,H  94)    -65.6290         0.010965   
    592. D(H  95,C  39,C  38,H  93)    179.6020         0.010965   
    593. D(H  95,C  39,C  38,C  37)     56.7664         0.010965   
    594. D(C  40,C  39,C  38,H  94)     56.8324         0.010965   
    595. D(C  40,C  39,C  38,H  93)    -57.9365         0.010965   
    596. D(C  40,C  39,C  38,C  37)    179.2279         0.010965   
    597. D(H  96,C  39,C  38,H  94)    179.3835         0.010965   
    598. D(H  96,C  39,C  38,H  93)     64.6145         0.010965   
    599. D(H  96,C  39,C  38,C  37)    -58.2211         0.010965   
    600. D(H  98,C  40,C  39,H  95)     65.1007         0.010831   
    601. D(H  98,C  40,C  39,C  38)    -57.3522         0.010831   
    602. D(H  97,C  40,C  39,H  96)    -65.1545         0.010831   
    603. D(H  97,C  40,C  39,H  95)    179.8391         0.010831   
    604. D(H  97,C  40,C  39,C  38)     57.3862         0.010831   
    605. D(C  41,C  40,C  39,H  96)     57.4899         0.010831   
    606. D(C  41,C  40,C  39,H  95)    -57.5165         0.010831   
    607. D(H  98,C  40,C  39,H  96)   -179.8929         0.010831   
    608. D(C  41,C  40,C  39,C  38)   -179.9694         0.010831   
    609. D(H 101,C  41,C  40,H  98)    -62.5767         0.011020   
    610. D(H 101,C  41,C  40,H  97)   -177.9948         0.011020   
    611. D(H 101,C  41,C  40,C  39)     59.6958         0.011020   
    612. D(H 100,C  41,C  40,H  98)    177.9450         0.011020   
    613. D(H 100,C  41,C  40,H  97)     62.5269         0.011020   
    614. D(H 100,C  41,C  40,C  39)    -59.7824         0.011020   
    615. D(H  99,C  41,C  40,H  98)     57.6915         0.011020   
    616. D(H  99,C  41,C  40,H  97)    -57.7266         0.011020   
    617. D(H  99,C  41,C  40,C  39)    179.9640         0.011020   
    618. D(H 102,O  43,C  17,H  65)    -59.1363         0.016795   
    619. D(H 102,O  43,C  17,C  18)   -174.6457         0.016795   
    620. D(H 102,O  43,C  17,C  16)     60.1612         0.016795   
    621. D(H 104,C  45,C  13,H  61)   -178.9518         0.010591   
    622. D(H 104,C  45,C  13,C  14)    -65.8598         0.010591   
    623. D(H 104,C  45,C  13,N  12)     60.8615         0.010591   
    624. D(H 103,C  45,C  13,H  61)    -63.0911         0.010591   
    625. D(H 103,C  45,C  13,C  14)     50.0009         0.010591   
    626. D(H 103,C  45,C  13,N  12)    176.7222         0.010591   
    627. D(C  46,C  45,C  13,H  61)     57.7961         0.010591   
    628. D(C  46,C  45,C  13,C  14)    170.8880         0.010591   
    629. D(C  46,C  45,C  13,N  12)    -62.3907         0.010591   
    630. D(H 107,C  46,C  45,H 104)    -56.7754         0.011157   
    631. D(H 107,C  46,C  45,H 103)   -175.2335         0.011157   
    632. D(H 107,C  46,C  45,C  13)     66.3935         0.011157   
    633. D(H 106,C  46,C  45,H 104)   -177.6892         0.011157   
    634. D(H 106,C  46,C  45,H 103)     63.8527         0.011157   
    635. D(H 106,C  46,C  45,C  13)    -54.5203         0.011157   
    636. D(H 105,C  46,C  45,H 104)     62.2474         0.011157   
    637. D(H 105,C  46,C  45,H 103)    -56.2107         0.011157   
    638. D(H 105,C  46,C  45,C  13)   -174.5837         0.011157   
    639. D(H 108,C  48,C  10,H  59)     61.9669         0.009568   
    640. D(H 108,C  48,C  10,C  11)   -177.4489         0.009568   
    641. D(H 108,C  48,C  10,N   9)    -55.3272         0.009568   
    642. D(C  50,C  48,C  10,H  59)    179.7537         0.009568   
    643. D(C  50,C  48,C  10,C  11)    -59.6620         0.009568   
    644. D(C  50,C  48,C  10,N   9)     62.4596         0.009568   
    645. D(C  49,C  48,C  10,H  59)    -53.8746         0.009568   
    646. D(C  49,C  48,C  10,C  11)     66.7096         0.009568   
    647. D(C  49,C  48,C  10,N   9)   -171.1687         0.009568   
    648. D(H 111,C  49,C  48,C  50)     61.1660         0.010829   
    649. D(H 111,C  49,C  48,C  10)    -65.7876         0.010829   
    650. D(H 110,C  49,C  48,H 108)     60.6117         0.010829   
    651. D(H 110,C  49,C  48,C  50)    -58.4183         0.010829   
    652. D(H 110,C  49,C  48,C  10)    174.6281         0.010829   
    653. D(H 109,C  49,C  48,H 108)    -59.5268         0.010829   
    654. D(H 109,C  49,C  48,C  50)   -178.5569         0.010829   
    655. D(H 111,C  49,C  48,H 108)   -179.8040         0.010829   
    656. D(H 109,C  49,C  48,C  10)     54.4895         0.010829   
    657. D(H 114,C  50,C  48,H 108)    -57.9242         0.010778   
    658. D(H 114,C  50,C  48,C  49)     60.7461         0.010778   
    659. D(H 114,C  50,C  48,C  10)   -173.6348         0.010778   
    660. D(H 113,C  50,C  48,H 108)   -178.2958         0.010778   
    661. D(H 113,C  50,C  48,C  49)    -59.6255         0.010778   
    662. D(H 113,C  50,C  48,C  10)     65.9936         0.010778   
    663. D(H 112,C  50,C  48,H 108)     62.2885         0.010778   
    664. D(H 112,C  50,C  48,C  49)   -179.0412         0.010778   
    665. D(H 112,C  50,C  48,C  10)    -53.4221         0.010778   
    -----------------------------------------------------------------

Number of atoms                         .... 115
Number of degrees of freedom            .... 665

Time needed for optimization step       :     1.03 sec

         *************************************************************
         *                GEOMETRY OPTIMIZATION CYCLE   1            *
         *************************************************************
---------------------------------
CARTESIAN COORDINATES (ANGSTROEM)
---------------------------------
  O      2.191797   -0.026953   -2.752181
  C      2.283422    1.201315   -2.935967
  C      3.606116    1.954668   -2.640952
  C      4.795381    1.002689   -2.463304
  C      4.771943    0.673100   -0.961220
  C      4.351856    1.993032   -0.302189
  N      3.504250    2.632799   -1.327381
  C      2.804929    3.795384   -1.200699
  O      2.226812    4.325960   -2.166225
  N      1.285382    2.000872   -3.360041
  C     -0.088456    1.570047   -3.583562
  C     -0.096829    0.218227   -4.342950
  N     -1.040670   -0.648603   -3.858963
  C     -1.158745   -2.092273   -4.090698
  C     -0.565704   -2.847871   -2.875740
  N      0.690102   -2.443471   -2.489184
  C      1.159105   -2.750370   -1.155103
  C      1.272660   -1.495193   -0.255542
  C      0.115642   -0.506123   -0.480999
  C      0.197223    0.815448    0.293616
  N      0.770325    0.758603    1.521300
  C      0.780820    1.899910    2.437629
  C      1.943946    2.850899    2.050084
  N      1.672203    3.561446    0.914474
  C      2.670415    4.375844    0.223239
  C      2.284042    5.853758    0.181804
  O      3.003334    2.909948    2.678308
  C      0.874003    1.426762    3.886088
  C     -0.215315    0.419039    4.306792
  C     -1.633199    0.957113    4.063111
  C     -0.020727    0.011335    5.773997
  O     -0.289949    1.855849   -0.183769
  C     -1.328251   -1.031235   -0.342190
  C     -1.683186   -1.816594    0.892675
  C     -3.059261   -2.477799    0.852345
  C     -3.358163   -3.312183    2.106190
  C     -3.333182   -2.512663    3.415185
  C     -3.703357   -3.326710    4.659213
  C     -3.621046   -2.519584    5.959729
  C     -3.977871   -3.317367    7.218407
  C     -3.873856   -2.504540    8.515331
  C     -4.230816   -3.306828    9.770229
  O     -2.159275   -0.743075   -1.198579
  O      1.360998   -1.883873    1.130636
  O     -1.205967   -3.718732   -2.282974
  C     -0.615170   -2.615425   -5.430244
  C     -1.346465   -2.039983   -6.644503
  O      0.656361    0.009867   -5.294240
  C     -0.860258    2.678206   -4.349125
  C     -2.357829    2.350131   -4.406337
  C     -0.280764    2.959644   -5.742216
  H      3.766386    2.719187   -3.428782
  H      5.734244    1.527109   -2.734838
  H      4.691352    0.106462   -3.101848
  H      4.005310   -0.104576   -0.769238
  H      5.740628    0.302432   -0.573975
  H      3.813329    1.853947    0.653160
  H      5.236421    2.634606   -0.089315
  H      1.474518    3.016789   -3.278267
  H     -0.584736    1.450666   -2.593823
  H     -1.530243   -0.357951   -2.996773
  H     -2.239272   -2.340403   -4.037767
  H      1.139044   -1.637075   -2.953292
  H      2.148935   -3.260572   -1.179900
  H      0.425348   -3.460664   -0.721239
  H      2.189769   -0.934753   -0.545346
  H      0.214855   -0.201904   -1.535467
  H      1.163146   -0.151474    1.811337
  H     -0.168420    2.449915    2.263109
  H      0.804349    3.304057    0.408861
  H      3.610391    4.242284    0.797311
  H      2.136283    6.232320    1.211326
  H      3.077493    6.451140   -0.309197
  H      1.352714    5.992320   -0.399905
  H      0.823714    2.324658    4.538587
  H      1.886912    1.001389    4.052056
  H     -0.093256   -0.499762    3.686878
  H     -1.833701    1.144675    2.988157
  H     -2.397297    0.237569    4.418651
  H     -1.793793    1.912792    4.606925
  H      0.995401   -0.396612    5.952388
  H     -0.154937    0.883092    6.449343
  H     -0.756915   -0.761767    6.075453
  H     -1.592181   -1.094704    1.738287
  H     -0.870268   -2.546737    1.092273
  H     -3.106111   -3.116152   -0.054124
  H     -3.835577   -1.694992    0.716547
  H     -2.626431   -4.149196    2.175942
  H     -4.354040   -3.793080    1.990261
  H     -4.021054   -1.640516    3.325994
  H     -2.320093   -2.077980    3.568808
  H     -3.032468   -4.212939    4.732232
  H     -4.731136   -3.739304    4.542018
  H     -4.288465   -1.630690    5.884383
  H     -2.591338   -2.107038    6.068092
  H     -3.314642   -4.209903    7.288841
  H     -5.011048   -3.721893    7.118120
  H     -4.535560   -1.612404    8.439745
  H     -2.840348   -2.101125    8.609607
  H     -4.145551   -2.692836   10.689902
  H     -5.271420   -3.691358    9.720217
  H     -3.561893   -4.185034    9.891197
  H      2.156430   -2.439295    1.236373
  H     -0.735915   -3.719658   -5.396422
  H      0.467524   -2.399238   -5.504867
  H     -0.989687   -2.514720   -7.580801
  H     -2.442172   -2.206146   -6.576363
  H     -1.157571   -0.952284   -6.729258
  H     -0.736823    3.594524   -3.726014
  H     -2.776412    2.172972   -3.394252
  H     -2.922358    3.185377   -4.867265
  H     -2.545648    1.440421   -5.013175
  H      0.804201    3.179290   -5.698085
  H     -0.407185    2.085994   -6.411328
  H     -0.789805    3.831252   -6.201563

----------------------------
CARTESIAN COORDINATES (A.U.)
----------------------------
  NO LB      ZA    FRAG     MASS         X           Y           Z
   0 O     8.0000    0    15.999    4.141897   -0.050933   -5.200868
   1 C     6.0000    0    12.011    4.315043    2.270156   -5.548174
   2 C     6.0000    0    12.011    6.814572    3.693788   -4.990677
   3 C     6.0000    0    12.011    9.061956    1.894808   -4.654970
   4 C     6.0000    0    12.011    9.017665    1.271975   -1.816443
   5 C     6.0000    0    12.011    8.223816    3.766285   -0.571055
   6 N     7.0000    0    14.007    6.622072    4.975269   -2.508387
   7 C     6.0000    0    12.011    5.300548    7.172236   -2.268993
   8 O     8.0000    0    15.999    4.208065    8.174879   -4.093572
   9 N     7.0000    0    14.007    2.429020    3.781100   -6.349558
  10 C     6.0000    0    12.011   -0.167157    2.966959   -6.771951
  11 C     6.0000    0    12.011   -0.182981    0.412390   -8.206986
  12 N     7.0000    0    14.007   -1.966581   -1.225681   -7.292383
  13 C     6.0000    0    12.011   -2.189711   -3.953823   -7.730299
  14 C     6.0000    0    12.011   -1.069026   -5.381697   -5.434360
  15 N     7.0000    0    14.007    1.304104   -4.617491   -4.703875
  16 C     6.0000    0    12.011    2.190392   -5.197446   -2.182828
  17 C     6.0000    0    12.011    2.404980   -2.825505   -0.482905
  18 C     6.0000    0    12.011    0.218532   -0.956433   -0.908957
  19 C     6.0000    0    12.011    0.372698    1.540974    0.554853
  20 N     7.0000    0    14.007    1.455702    1.433553    2.874840
  21 C     6.0000    0    12.011    1.475535    3.590309    4.606451
  22 C     6.0000    0    12.011    3.673526    5.387418    3.874097
  23 N     7.0000    0    14.007    3.160007    6.730157    1.728105
  24 C     6.0000    0    12.011    5.046353    8.269146    0.421860
  25 C     6.0000    0    12.011    4.316214   11.061999    0.343560
  26 O     8.0000    0    15.999    5.675480    5.499004    5.061269
  27 C     6.0000    0    12.011    1.651626    2.696189    7.343642
  28 C     6.0000    0    12.011   -0.406886    0.791869    8.138657
  29 C     6.0000    0    12.011   -3.086298    1.808681    7.678168
  30 C     6.0000    0    12.011   -0.039168    0.021420   10.911273
  31 O     8.0000    0    15.999   -0.547925    3.507047   -0.347273
  32 C     6.0000    0    12.011   -2.510030   -1.948752   -0.646646
  33 C     6.0000    0    12.011   -3.180760   -3.432864    1.686912
  34 C     6.0000    0    12.011   -5.781166   -4.682361    1.610699
  35 C     6.0000    0    12.011   -6.346008   -6.259119    3.980121
  36 C     6.0000    0    12.011   -6.298802   -4.748244    6.453764
  37 C     6.0000    0    12.011   -6.998330   -6.286572    8.804636
  38 C     6.0000    0    12.011   -6.842785   -4.761325   11.262255
  39 C     6.0000    0    12.011   -7.517087   -6.268914   13.640813
  40 C     6.0000    0    12.011   -7.320527   -4.732895   16.091644
  41 C     6.0000    0    12.011   -7.995084   -6.248998   18.463057
  42 O     8.0000    0    15.999   -4.080437   -1.404208   -2.264985
  43 O     8.0000    0    15.999    2.571914   -3.560003    2.136592
  44 O     8.0000    0    15.999   -2.278947   -7.027384   -4.314196
  45 C     6.0000    0    12.011   -1.162502   -4.942436  -10.261675
  46 C     6.0000    0    12.011   -2.544449   -3.855010  -12.556292
  47 O     8.0000    0    15.999    1.240343    0.018646  -10.004665
  48 C     6.0000    0    12.011   -1.625651    5.061076   -8.218656
  49 C     6.0000    0    12.011   -4.455652    4.441105   -8.326771
  50 C     6.0000    0    12.011   -0.530567    5.592917  -10.851215
  51 H     1.0000    0     1.008    7.117438    5.138518   -6.479459
  52 H     1.0000    0     1.008   10.836151    2.885818   -5.168096
  53 H     1.0000    0     1.008    8.865371    0.201184   -5.861644
  54 H     1.0000    0     1.008    7.568938   -0.197619   -1.453650
  55 H     1.0000    0     1.008   10.848215    0.571513   -1.084656
  56 H     1.0000    0     1.008    7.206147    3.503453    1.234294
  57 H     1.0000    0     1.008    9.895402    4.978683   -0.168780
  58 H     1.0000    0     1.008    2.786436    5.700904   -6.195027
  59 H     1.0000    0     1.008   -1.104990    2.741362   -4.901615
  60 H     1.0000    0     1.008   -2.891740   -0.676430   -5.663080
  61 H     1.0000    0     1.008   -4.231610   -4.422721   -7.630273
  62 H     1.0000    0     1.008    2.152481   -3.093623   -5.580913
  63 H     1.0000    0     1.008    4.060899   -6.161588   -2.229688
  64 H     1.0000    0     1.008    0.803790   -6.539708   -1.362944
  65 H     1.0000    0     1.008    4.138064   -1.766427   -1.030554
  66 H     1.0000    0     1.008    0.406017   -0.381544   -2.901613
  67 H     1.0000    0     1.008    2.198028   -0.286244    3.422931
  68 H     1.0000    0     1.008   -0.318268    4.629668    4.276655
  69 H     1.0000    0     1.008    1.520000    6.243763    0.772636
  70 H     1.0000    0     1.008    6.822650    8.016754    1.506699
  71 H     1.0000    0     1.008    4.036991   11.777377    2.289074
  72 H     1.0000    0     1.008    5.815620   12.190889   -0.584298
  73 H     1.0000    0     1.008    2.556259   11.323844   -0.755711
  74 H     1.0000    0     1.008    1.556594    4.392967    8.576687
  75 H     1.0000    0     1.008    3.565748    1.892351    7.657275
  76 H     1.0000    0     1.008   -0.176227   -0.944414    6.967190
  77 H     1.0000    0     1.008   -3.465193    2.163123    5.646798
  78 H     1.0000    0     1.008   -4.530235    0.448941    8.350041
  79 H     1.0000    0     1.008   -3.389778    3.614652    8.705827
  80 H     1.0000    0     1.008    1.881035   -0.749488   11.248384
  81 H     1.0000    0     1.008   -0.292789    1.668803   12.187491
  82 H     1.0000    0     1.008   -1.430361   -1.439532   11.480943
  83 H     1.0000    0     1.008   -3.008786   -2.068692    3.284886
  84 H     1.0000    0     1.008   -1.644567   -4.812636    2.064097
  85 H     1.0000    0     1.008   -5.869700   -5.888674   -0.102280
  86 H     1.0000    0     1.008   -7.248190   -3.203071    1.354079
  87 H     1.0000    0     1.008   -4.963236   -7.840845    4.111934
  88 H     1.0000    0     1.008   -8.227943   -7.167882    3.761047
  89 H     1.0000    0     1.008   -7.598690   -3.100125    6.285217
  90 H     1.0000    0     1.008   -4.384341   -3.926813    6.744069
  91 H     1.0000    0     1.008   -5.730533   -7.961302    8.942622
  92 H     1.0000    0     1.008   -8.940551   -7.066261    8.583170
  93 H     1.0000    0     1.008   -8.104024   -3.081558   11.119872
  94 H     1.0000    0     1.008   -4.896918   -3.981725   11.467031
  95 H     1.0000    0     1.008   -6.263765   -7.955563   13.773914
  96 H     1.0000    0     1.008   -9.469509   -7.033359   13.451297
  97 H     1.0000    0     1.008   -8.570967   -3.047002   15.948806
  98 H     1.0000    0     1.008   -5.367480   -3.970551   16.269799
  99 H     1.0000    0     1.008   -7.833957   -5.088722   20.200988
 100 H     1.0000    0     1.008   -9.961541   -6.975656   18.368549
 101 H     1.0000    0     1.008   -6.731002   -7.908567   18.691654
 102 H     1.0000    0     1.008    4.075061   -4.609599    2.336406
 103 H     1.0000    0     1.008   -1.390678   -7.029135  -10.197759
 104 H     1.0000    0     1.008    0.883493   -4.533902  -10.402691
 105 H     1.0000    0     1.008   -1.870237   -4.752131  -14.325637
 106 H     1.0000    0     1.008   -4.615036   -4.169012  -12.427526
 107 H     1.0000    0     1.008   -2.187493   -1.799556  -12.716454
 108 H     1.0000    0     1.008   -1.392393    6.792665   -7.041146
 109 H     1.0000    0     1.008   -5.246659    4.106322   -6.414206
 110 H     1.0000    0     1.008   -5.522457    6.019491   -9.197797
 111 H     1.0000    0     1.008   -4.810577    2.722001   -9.473527
 112 H     1.0000    0     1.008    1.519720    6.007987  -10.767820
 113 H     1.0000    0     1.008   -0.769468    3.941957  -12.115654
 114 H     1.0000    0     1.008   -1.492514    7.240018  -11.719255

--------------------------------
INTERNAL COORDINATES (ANGSTROEM)
--------------------------------
 O      0   0   0     0.000000000000     0.00000000     0.00000000
 C      1   0   0     1.245316447683     0.00000000     0.00000000
 C      2   1   0     1.550513952522   120.92437231     0.00000000
 C      3   2   1     1.533679843918   112.45428083    14.21195236
 C      4   3   2     1.537996935987   103.55198443   271.32630662
 C      5   4   3     1.533953902803   103.84948340   322.89615085
 N      6   5   4     1.476061386141   103.40410586    29.99912857
 C      7   6   5     1.362608147797   126.86571441   175.25224873
 O      8   7   6     1.244174356025   122.01715032   172.52176634
 N      2   1   3     1.347299192651   125.25925812   181.76497284
 C     10   2   1     1.457052476070   124.83932805     4.46579895
 C     11  10   2     1.550534186701   109.75581359   315.64713945
 N     12  11  10     1.369844117499   112.48105961   138.70048646
 C     13  12  11     1.466910974167   128.49268573   195.22191139
 C     14  13  12     1.548790000126   108.98911836    99.29388142
 N     15  14  13     1.374778060457   115.26672198   309.70934062
 C     16  15  14     1.447039108419   119.53169626   160.21756587
 C     17  16  15     1.548410062786   112.79612331   249.73574763
 C     18  17  16     1.538759764447   112.38207073    38.98125264
 C     19  18  17     1.534025237468   116.08969535   184.25855647
 N     20  19  18     1.356054597659   116.32844627   326.65363620
 C     21  20  19     1.463676693588   122.48816486   187.19816972
 C     22  21  20     1.551590902817   109.08230637   277.97569257
 N     23  22  21     1.366869017971   112.15385600    74.12047057
 C     24  23  22     1.462011161552   123.13652580   189.37169667
 C     25  24  23     1.528146144671   112.26676619   241.61384423
 O     23  22  21     1.233067855928   123.10289532   256.56687719
 C     22  21  20     1.526625531047   110.65620464   153.81758579
 C     28  22  21     1.542436448289   114.71893337   305.30774316
 C     29  28  22     1.536000804670   112.32034907   304.35912928
 C     29  28  22     1.535180055854   110.16149665   179.80331171
 O     20  19  18     1.244053041914   120.38994785   149.24402670
 C     19  18  17     1.542672453147   118.15071215    54.62885671
 C     33  19  18     1.505875355050   118.15887691    49.89194276
 C     34  33  19     1.527220266803   114.61462441   188.94762241
 C     35  34  33     1.535469113070   112.89859944   177.76215908
 C     36  35  34     1.534055177337   114.23015557    59.80156222
 C     37  36  35     1.532092764902   114.33057763   176.94082472
 C     38  37  36     1.532830570499   113.33866332   177.87322500
 C     39  38  37     1.532335600940   114.22189845   180.40759182
 C     40  39  38     1.534118029903   113.75177608   179.22785362
 C     41  40  39     1.531617930492   113.53519883   180.03061424
 O     33  19  18     1.227614552031   119.40144331   226.32268287
 O     18  17  16     1.442346892361   110.14399456   163.44211194
 O     15  14  13     1.232762783699   121.53175499   127.52441692
 C     14  13  12     1.537382868258   116.36462112   330.86305286
 C     46  14  13     1.529820209524   113.23920451   297.60928922
 O     12  11  10     1.231122822956   121.51269691   316.80636010
 C     11  10   2     1.552347154804   109.47328334   192.06183710
 C     49  11  10     1.534153603824   110.55232202   188.83127715
 C     49  11  10     1.534835806756   113.00439506    62.45960464
 H      3   2   1     1.109437055028   108.84077867   140.79726834
 H      4   3   2     1.109149014534   109.54467684   153.21232711
 H      4   3   2     1.105343032295   111.30857859    32.89580534
 H      5   4   3     1.108766269378   109.26565524    80.08279107
 H      5   4   3     1.107115685436   113.57972254   200.77193704
 H      6   5   4     1.105463266294   113.35565636   151.52219954
 H      6   5   4     1.113277743342   111.12726163   272.22344322
 H     10   2   1     1.036603346474   114.93687156   168.29142723
 H     11  10   2     1.113610679450   108.39420869    75.61336770
 H     13  12  11     1.033214237598   116.31467119   352.35732083
 H     14  13  12     1.109913255817   106.90847888   210.07100731
 H     16  15  14     1.033063211331   120.01725182     4.73246569
 H     17  16  15     1.113859910260   111.38566945   127.30501316
 H     17  16  15     1.109574969425   106.37531945    10.27876586
 H     18  17  16     1.113178858094   108.49905597   283.40653085
 H     19  18  17     1.101950379573   104.47507479   298.02801504
 H     21  20  19     1.032797673046   116.86723929     4.03123424
 H     22  21  20     1.110864012611   106.35488555    33.44291900
 H     24  23  22     1.036852911412   116.26329292   353.16537518
 H     25  24  23     1.109482762712   105.47155455     1.59865928
 H     26  25  24     1.106822825575   109.83517954    57.40295146
 H     26  25  24     1.107931980064   110.63470359   177.61529637
 H     26  25  24     1.106777710533   110.37036791   296.58065563
 H     28  22  21     1.111081164901   107.69618479   182.96692626
 H     28  22  21     1.111068354078   108.42310463    69.56481188
 H     29  28  22     1.115072931066   108.02272281    62.80351086
 H     30  29  28     1.109463101617   112.31862154    62.78927391
 H     30  29  28     1.108150895154   110.98602179   182.80204628
 H     30  29  28     1.111236422586   110.91837201   302.31518088
 H     31  29  28     1.109396321665   111.55740228   304.09417694
 H     31  29  28     1.110884578958   110.93425198    63.97383151
 H     31  29  28     1.109295029879   111.14253406   183.58240696
 H     34  33  19     1.115555466845   105.36000299    65.43545661
 H     34  33  19     1.110758773402   108.52251275   315.37650752
 H     35  34  33     1.109674447018   107.97916336    55.60660982
 H     35  34  33     1.110807361939   109.13727040   300.78567840
 H     36  35  34     1.113951338315   109.36421735   297.19778126
 H     36  35  34     1.111967975565   108.91813833   182.18365924
 H     37  36  35     1.114344062182   109.24185874    54.02589439
 H     37  36  35     1.113058299861   109.64118124   298.86772490
 H     38  37  36     1.113923694294   109.29491921    55.66695058
 H     38  37  36     1.113686809182   109.53457601   300.48661314
 H     39  38  37     1.114117835660   109.30311519    57.54328011
 H     39  38  37     1.114556264988   109.08699101   302.83543835
 H     40  39  38     1.114205741147   109.29099327    56.76637208
 H     40  39  38     1.114071442944   109.33296097   301.77887525
 H     41  40  39     1.113315994821   109.07940845    57.38622598
 H     41  40  39     1.113449601197   109.05504398   302.64781296
 H     42  41  40     1.109078420119   111.80817066   179.96404238
 H     42  41  40     1.110505453006   111.27671181   300.21757021
 H     42  41  40     1.110557100765   111.29007332    59.69584144
 H     44  18  17     0.975902208826   107.90371323    60.16122702
 H     46  14  13     1.111330030549   105.85361338   176.72215848
 H     46  14  13     1.106585499337   109.76819287    60.86145413
 H     47  46  14     1.108746040656   110.81765007   185.41630656
 H     47  46  14     1.110327752737   111.51410378   305.47968063
 H     47  46  14     1.107227939967   110.40910569    66.39346260
 H     49  11  10     1.114962811676   104.83421227   304.67275844
 H     50  49  11     1.109466074889   111.61789823    54.48954724
 H     50  49  11     1.108504530893   110.57921708   174.62806945
 H     50  49  11     1.109549376443   111.15950911   294.21239782
 H     51  49  11     1.107854114816   111.71308203   306.57787785
 H     51  49  11     1.107681558397   111.13470647    65.99355676
 H     51  49  11     1.108973705830   110.28972038   186.36517121

---------------------------
INTERNAL COORDINATES (A.U.)
---------------------------
 O      0   0   0     0.000000000000     0.00000000     0.00000000
 C      1   0   0     2.353307036189     0.00000000     0.00000000
 C      2   1   0     2.930046737091   120.92437231     0.00000000
 C      3   2   1     2.898234882120   112.45428083    14.21195236
 C      4   3   2     2.906393003825   103.55198443   271.32630662
 C      5   4   3     2.898752778358   103.84948340   322.89615085
 N      6   5   4     2.789351776663   103.40410586    29.99912857
 C      7   6   5     2.574956227187   126.86571441   175.25224873
 O      8   7   6     2.351148795735   122.01715032   172.52176634
 N      2   1   3     2.546026494563   125.25925812   181.76497284
 C     10   2   1     2.753430142524   124.83932805     4.46579895
 C     11  10   2     2.930084974146   109.75581359   315.64713945
 N     12  11  10     2.588630228236   112.48105961   138.70048646
 C     13  12  11     2.772060004019   128.49268573   195.22191139
 C     14  13  12     2.926788939193   108.98911836    99.29388142
 N     15  14  13     2.597954029188   115.26672198   309.70934062
 C     16  15  14     2.734507619986   119.53169626   160.21756587
 C     17  16  15     2.926070961674   112.79612331   249.73574763
 C     18  17  16     2.907834540702   112.38207073    38.98125264
 C     19  18  17     2.898887581338   116.08969535   184.25855647
 N     20  19  18     2.562571812220   116.32844627   326.65363620
 C     21  20  19     2.765948099484   122.48816486   187.19816972
 C     22  21  20     2.932081878207   109.08230637   277.97569257
 N     23  22  21     2.583008104908   112.15385600    74.12047057
 C     24  23  22     2.762800700069   123.13652580   189.37169667
 C     25  24  23     2.887777706036   112.26676619   241.61384423
 O     23  22  21     2.330160552246   123.10289532   256.56687719
 C     22  21  20     2.884904162731   110.65620464   153.81758579
 C     28  22  21     2.914782466245   114.71893337   305.30774316
 C     29  28  22     2.902620862309   112.32034907   304.35912928
 C     29  28  22     2.901069871821   110.16149665   179.80331171
 O     20  19  18     2.350919545288   120.38994785   149.24402670
 C     19  18  17     2.915228450792   118.15071215    54.62885671
 C     33  19  18     2.845692012866   118.15887691    49.89194276
 C     34  33  19     2.886028050432   114.61462441   188.94762241
 C     35  34  33     2.901616110797   112.89859944   177.76215908
 C     36  35  34     2.898944159491   114.23015557    59.80156222
 C     37  36  35     2.895235737428   114.33057763   176.94082472
 C     38  37  36     2.896629987945   113.33866332   177.87322500
 C     39  38  37     2.895694631035   114.22189845   180.40759182
 C     40  39  38     2.899062933628   113.75177608   179.22785362
 C     41  40  39     2.894338430434   113.53519883   180.03061424
 O     33  19  18     2.319855301355   119.40144331   226.32268287
 O     18  17  16     2.725640616675   110.14399456   163.44211194
 O     15  14  13     2.329584049281   121.53175499   127.52441692
 C     14  13  12     2.905232583990   116.36462112   330.86305286
 C     46  14  13     2.890941230139   113.23920451   297.60928922
 O     12  11  10     2.326484972608   121.51269691   316.80636010
 C     11  10   2     2.933510987351   109.47328334   192.06183710
 C     49  11  10     2.899130158596   110.55232202   188.83127715
 C     49  11  10     2.900419335304   113.00439506    62.45960464
 H      3   2   1     2.096532196827   108.84077867   140.79726834
 H      4   3   2     2.095987879177   109.54467684   153.21232711
 H      4   3   2     2.088795615075   111.30857859    32.89580534
 H      5   4   3     2.095264595653   109.26565524    80.08279107
 H      5   4   3     2.092145444043   113.57972254   200.77193704
 H      6   5   4     2.089022824406   113.35565636   151.52219954
[...]
      equations for an ideal gas
  (5) All vibrations are strictly harmonic

freq.       5.57  E(vib)   ...       0.58 
freq.      15.13  E(vib)   ...       0.57 
freq.      21.73  E(vib)   ...       0.56 
freq.      22.61  E(vib)   ...       0.56 
freq.      27.28  E(vib)   ...       0.55 
freq.      30.39  E(vib)   ...       0.55 
freq.      32.01  E(vib)   ...       0.55 
freq.      36.86  E(vib)   ...       0.54 
freq.      46.86  E(vib)   ...       0.53 
freq.      48.48  E(vib)   ...       0.53 
freq.      51.49  E(vib)   ...       0.52 
freq.      54.99  E(vib)   ...       0.52 
freq.      56.43  E(vib)   ...       0.52 
freq.      58.70  E(vib)   ...       0.51 
freq.      61.21  E(vib)   ...       0.51 
freq.      68.92  E(vib)   ...       0.50 
freq.      75.48  E(vib)   ...       0.49 
freq.      78.13  E(vib)   ...       0.49 
freq.      85.81  E(vib)   ...       0.48 
freq.      86.93  E(vib)   ...       0.48 
freq.      89.10  E(vib)   ...       0.47 
freq.      93.42  E(vib)   ...       0.47 
freq.      97.54  E(vib)   ...       0.46 
freq.      99.06  E(vib)   ...       0.46 
freq.     105.48  E(vib)   ...       0.45 
freq.     107.86  E(vib)   ...       0.45 
freq.     116.37  E(vib)   ...       0.44 
freq.     121.40  E(vib)   ...       0.44 
freq.     123.57  E(vib)   ...       0.43 
freq.     133.95  E(vib)   ...       0.42 
freq.     139.28  E(vib)   ...       0.42 
freq.     143.99  E(vib)   ...       0.41 
freq.     145.39  E(vib)   ...       0.41 
freq.     148.32  E(vib)   ...       0.41 
freq.     155.96  E(vib)   ...       0.40 
freq.     159.89  E(vib)   ...       0.39 
freq.     169.08  E(vib)   ...       0.38 
freq.     175.56  E(vib)   ...       0.38 
freq.     183.17  E(vib)   ...       0.37 
freq.     189.82  E(vib)   ...       0.36 
freq.     193.96  E(vib)   ...       0.36 
freq.     199.14  E(vib)   ...       0.35 
freq.     203.86  E(vib)   ...       0.35 
freq.     208.40  E(vib)   ...       0.34 
freq.     212.61  E(vib)   ...       0.34 
freq.     217.38  E(vib)   ...       0.34 
freq.     222.08  E(vib)   ...       0.33 
freq.     225.73  E(vib)   ...       0.33 
freq.     230.38  E(vib)   ...       0.32 
freq.     233.75  E(vib)   ...       0.32 
freq.     237.30  E(vib)   ...       0.32 
freq.     240.54  E(vib)   ...       0.31 
freq.     244.79  E(vib)   ...       0.31 
freq.     245.11  E(vib)   ...       0.31 
freq.     250.52  E(vib)   ...       0.30 
freq.     259.38  E(vib)   ...       0.30 
freq.     268.75  E(vib)   ...       0.29 
freq.     272.58  E(vib)   ...       0.29 
freq.     281.79  E(vib)   ...       0.28 
freq.     292.98  E(vib)   ...       0.27 
freq.     296.34  E(vib)   ...       0.27 
freq.     303.17  E(vib)   ...       0.26 
freq.     309.45  E(vib)   ...       0.26 
freq.     313.82  E(vib)   ...       0.25 
freq.     319.80  E(vib)   ...       0.25 
freq.     322.08  E(vib)   ...       0.25 
freq.     324.62  E(vib)   ...       0.24 
freq.     337.29  E(vib)   ...       0.24 
freq.     341.75  E(vib)   ...       0.23 
freq.     350.00  E(vib)   ...       0.23 
freq.     360.96  E(vib)   ...       0.22 
freq.     372.67  E(vib)   ...       0.21 
freq.     382.37  E(vib)   ...       0.21 
freq.     388.68  E(vib)   ...       0.20 
freq.     396.67  E(vib)   ...       0.20 
freq.     404.41  E(vib)   ...       0.19 
freq.     414.72  E(vib)   ...       0.19 
freq.     441.07  E(vib)   ...       0.17 
freq.     448.58  E(vib)   ...       0.17 
freq.     452.83  E(vib)   ...       0.16 
freq.     458.64  E(vib)   ...       0.16 
freq.     466.46  E(vib)   ...       0.16 
freq.     486.44  E(vib)   ...       0.15 
freq.     492.27  E(vib)   ...       0.14 
freq.     500.01  E(vib)   ...       0.14 
freq.     514.03  E(vib)   ...       0.13 
freq.     524.43  E(vib)   ...       0.13 
freq.     537.27  E(vib)   ...       0.12 
freq.     572.92  E(vib)   ...       0.11 
freq.     602.97  E(vib)   ...       0.10 
freq.     631.68  E(vib)   ...       0.09 
freq.     644.64  E(vib)   ...       0.09 
freq.     651.61  E(vib)   ...       0.08 
freq.     663.44  E(vib)   ...       0.08 
freq.     668.59  E(vib)   ...       0.08 
freq.     677.09  E(vib)   ...       0.08 
freq.     688.99  E(vib)   ...       0.07 
freq.     695.82  E(vib)   ...       0.07 
freq.     702.02  E(vib)   ...       0.07 
freq.     709.13  E(vib)   ...       0.07 
freq.     712.57  E(vib)   ...       0.07 
freq.     716.12  E(vib)   ...       0.07 
freq.     725.66  E(vib)   ...       0.06 
freq.     727.87  E(vib)   ...       0.06 
freq.     730.27  E(vib)   ...       0.06 
freq.     733.83  E(vib)   ...       0.06 
freq.     739.82  E(vib)   ...       0.06 
freq.     748.12  E(vib)   ...       0.06 
freq.     763.98  E(vib)   ...       0.06 
freq.     769.94  E(vib)   ...       0.05 
freq.     773.75  E(vib)   ...       0.05 
freq.     785.15  E(vib)   ...       0.05 
freq.     794.04  E(vib)   ...       0.05 
freq.     800.03  E(vib)   ...       0.05 
freq.     810.08  E(vib)   ...       0.05 
freq.     816.65  E(vib)   ...       0.05 
freq.     821.41  E(vib)   ...       0.05 
freq.     833.24  E(vib)   ...       0.04 
freq.     838.06  E(vib)   ...       0.04 
freq.     841.15  E(vib)   ...       0.04 
freq.     848.49  E(vib)   ...       0.04 
freq.     865.81  E(vib)   ...       0.04 
freq.     872.04  E(vib)   ...       0.04 
freq.     875.90  E(vib)   ...       0.04 
freq.     881.87  E(vib)   ...       0.04 
freq.     886.84  E(vib)   ...       0.04 
freq.     890.57  E(vib)   ...       0.04 
freq.     900.64  E(vib)   ...       0.03 
freq.     903.19  E(vib)   ...       0.03 
freq.     906.07  E(vib)   ...       0.03 
freq.     911.64  E(vib)   ...       0.03 
freq.     916.24  E(vib)   ...       0.03 
freq.     926.04  E(vib)   ...       0.03 
freq.     930.67  E(vib)   ...       0.03 
freq.     935.09  E(vib)   ...       0.03 
freq.     944.00  E(vib)   ...       0.03 
freq.     945.68  E(vib)   ...       0.03 
freq.     946.78  E(vib)   ...       0.03 
freq.     954.78  E(vib)   ...       0.03 
freq.     959.98  E(vib)   ...       0.03 
freq.     965.75  E(vib)   ...       0.03 
freq.     977.35  E(vib)   ...       0.03 
freq.     978.53  E(vib)   ...       0.03 
freq.     984.90  E(vib)   ...       0.02 
freq.     990.36  E(vib)   ...       0.02 
freq.    1002.76  E(vib)   ...       0.02 
freq.    1004.57  E(vib)   ...       0.02 
freq.    1013.53  E(vib)   ...       0.02 
freq.    1030.28  E(vib)   ...       0.02 
freq.    1033.70  E(vib)   ...       0.02 
freq.    1037.04  E(vib)   ...       0.02 
freq.    1039.42  E(vib)   ...       0.02 
freq.    1041.17  E(vib)   ...       0.02 
freq.    1049.43  E(vib)   ...       0.02 
freq.    1053.55  E(vib)   ...       0.02 
freq.    1063.62  E(vib)   ...       0.02 
freq.    1066.89  E(vib)   ...       0.02 
freq.    1069.81  E(vib)   ...       0.02 
freq.    1077.92  E(vib)   ...       0.02 
freq.    1080.23  E(vib)   ...       0.02 
freq.    1081.87  E(vib)   ...       0.02 
freq.    1091.88  E(vib)   ...       0.02 
freq.    1092.83  E(vib)   ...       0.02 
freq.    1093.38  E(vib)   ...       0.02 
freq.    1105.68  E(vib)   ...       0.02 
freq.    1105.85  E(vib)   ...       0.02 
freq.    1117.58  E(vib)   ...       0.01 
freq.    1119.00  E(vib)   ...       0.01 
freq.    1119.88  E(vib)   ...       0.01 
freq.    1131.31  E(vib)   ...       0.01 
freq.    1134.51  E(vib)   ...       0.01 
freq.    1145.23  E(vib)   ...       0.01 
freq.    1151.14  E(vib)   ...       0.01 
freq.    1159.70  E(vib)   ...       0.01 
freq.    1164.08  E(vib)   ...       0.01 
freq.    1166.30  E(vib)   ...       0.01 
freq.    1170.94  E(vib)   ...       0.01 
freq.    1175.50  E(vib)   ...       0.01 
freq.    1184.81  E(vib)   ...       0.01 
freq.    1193.07  E(vib)   ...       0.01 
freq.    1193.72  E(vib)   ...       0.01 
freq.    1204.80  E(vib)   ...       0.01 
freq.    1207.57  E(vib)   ...       0.01 
freq.    1215.60  E(vib)   ...       0.01 
freq.    1224.77  E(vib)   ...       0.01 
freq.    1226.16  E(vib)   ...       0.01 
freq.    1230.95  E(vib)   ...       0.01 
freq.    1231.90  E(vib)   ...       0.01 
freq.    1236.96  E(vib)   ...       0.01 
freq.    1241.59  E(vib)   ...       0.01 
freq.    1249.57  E(vib)   ...       0.01 
freq.    1252.98  E(vib)   ...       0.01 
freq.    1257.51  E(vib)   ...       0.01 
freq.    1260.82  E(vib)   ...       0.01 
freq.    1261.90  E(vib)   ...       0.01 
freq.    1264.54  E(vib)   ...       0.01 
freq.    1267.99  E(vib)   ...       0.01 
freq.    1274.94  E(vib)   ...       0.01 
freq.    1276.01  E(vib)   ...       0.01 
freq.    1280.36  E(vib)   ...       0.01 
freq.    1284.11  E(vib)   ...       0.01 
freq.    1287.93  E(vib)   ...       0.01 
freq.    1293.15  E(vib)   ...       0.01 
freq.    1294.93  E(vib)   ...       0.01 
freq.    1296.46  E(vib)   ...       0.01 
freq.    1300.42  E(vib)   ...       0.01 
freq.    1302.97  E(vib)   ...       0.01 
freq.    1303.51  E(vib)   ...       0.01 
freq.    1306.30  E(vib)   ...       0.01 
freq.    1308.72  E(vib)   ...       0.01 
freq.    1310.60  E(vib)   ...       0.01 
freq.    1314.16  E(vib)   ...       0.01 
freq.    1321.06  E(vib)   ...       0.01 
freq.    1324.03  E(vib)   ...       0.01 
freq.    1325.67  E(vib)   ...       0.01 
freq.    1327.08  E(vib)   ...       0.01 
freq.    1328.42  E(vib)   ...       0.01 
freq.    1329.71  E(vib)   ...       0.01 
freq.    1332.89  E(vib)   ...       0.01 
freq.    1339.24  E(vib)   ...       0.01 
freq.    1341.80  E(vib)   ...       0.01 
freq.    1342.57  E(vib)   ...       0.01 
freq.    1348.18  E(vib)   ...       0.01 
freq.    1352.09  E(vib)   ...       0.01 
freq.    1352.54  E(vib)   ...       0.01 
freq.    1355.49  E(vib)   ...       0.01 
freq.    1356.57  E(vib)   ...       0.01 
freq.    1358.69  E(vib)   ...       0.01 
freq.    1360.18  E(vib)   ...       0.01 
freq.    1360.59  E(vib)   ...       0.01 
freq.    1364.16  E(vib)   ...       0.01 
freq.    1373.05  E(vib)   ...       0.01 
freq.    1377.25  E(vib)   ...       0.01 
freq.    1379.51  E(vib)   ...       0.01 
freq.    1380.56  E(vib)   ...       0.01 
freq.    1392.98  E(vib)   ...       0.00 
freq.    1424.95  E(vib)   ...       0.00 
freq.    1428.79  E(vib)   ...       0.00 
freq.    1429.59  E(vib)   ...       0.00 
freq.    1431.50  E(vib)   ...       0.00 
freq.    1432.91  E(vib)   ...       0.00 
freq.    1435.87  E(vib)   ...       0.00 
freq.    1436.81  E(vib)   ...       0.00 
freq.    1437.61  E(vib)   ...       0.00 
freq.    1439.59  E(vib)   ...       0.00 
freq.    1439.82  E(vib)   ...       0.00 
freq.    1441.13  E(vib)   ...       0.00 
freq.    1443.35  E(vib)   ...       0.00 
freq.    1443.78  E(vib)   ...       0.00 
freq.    1443.82  E(vib)   ...       0.00 
freq.    1444.35  E(vib)   ...       0.00 
freq.    1445.68  E(vib)   ...       0.00 
freq.    1449.12  E(vib)   ...       0.00 
freq.    1451.11  E(vib)   ...       0.00 
freq.    1452.00  E(vib)   ...       0.00 
freq.    1454.58  E(vib)   ...       0.00 
freq.    1456.12  E(vib)   ...       0.00 
freq.    1457.72  E(vib)   ...       0.00 
freq.    1459.04  E(vib)   ...       0.00 
freq.    1461.67  E(vib)   ...       0.00 
freq.    1462.60  E(vib)   ...       0.00 
freq.    1463.61  E(vib)   ...       0.00 
freq.    1464.54  E(vib)   ...       0.00 
freq.    1505.31  E(vib)   ...       0.00 
freq.    1509.51  E(vib)   ...       0.00 
freq.    1516.43  E(vib)   ...       0.00 
freq.    1532.23  E(vib)   ...       0.00 
freq.    1533.47  E(vib)   ...       0.00 
freq.    1624.33  E(vib)   ...       0.00 
freq.    1629.24  E(vib)   ...       0.00 
freq.    1659.81  E(vib)   ...       0.00 
freq.    1677.31  E(vib)   ...       0.00 
freq.    1686.61  E(vib)   ...       0.00 
freq.    1693.03  E(vib)   ...       0.00 
freq.    1698.54  E(vib)   ...       0.00 
freq.    2920.26  E(vib)   ...       0.00 
freq.    2923.96  E(vib)   ...       0.00 
freq.    2925.92  E(vib)   ...       0.00 
freq.    2926.50  E(vib)   ...       0.00 
freq.    2929.13  E(vib)   ...       0.00 
freq.    2934.28  E(vib)   ...       0.00 
freq.    2935.29  E(vib)   ...       0.00 
freq.    2938.29  E(vib)   ...       0.00 
freq.    2941.45  E(vib)   ...       0.00 
freq.    2942.54  E(vib)   ...       0.00 
freq.    2944.90  E(vib)   ...       0.00 
freq.    2947.56  E(vib)   ...       0.00 
freq.    2951.66  E(vib)   ...       0.00 
freq.    2952.20  E(vib)   ...       0.00 
freq.    2954.45  E(vib)   ...       0.00 
freq.    2954.85  E(vib)   ...       0.00 
freq.    2957.35  E(vib)   ...       0.00 
freq.    2957.43  E(vib)   ...       0.00 
freq.    2958.95  E(vib)   ...       0.00 
freq.    2963.85  E(vib)   ...       0.00 
freq.    2963.98  E(vib)   ...       0.00 
freq.    2964.68  E(vib)   ...       0.00 
freq.    2967.17  E(vib)   ...       0.00 
freq.    2971.70  E(vib)   ...       0.00 
freq.    2972.79  E(vib)   ...       0.00 
freq.    2973.01  E(vib)   ...       0.00 
freq.    2977.57  E(vib)   ...       0.00 
freq.    2978.68  E(vib)   ...       0.00 
freq.    2979.72  E(vib)   ...       0.00 
freq.    2982.71  E(vib)   ...       0.00 
freq.    2983.88  E(vib)   ...       0.00 
freq.    2988.01  E(vib)   ...       0.00 
freq.    2991.56  E(vib)   ...       0.00 
freq.    2997.95  E(vib)   ...       0.00 
freq.    2999.93  E(vib)   ...       0.00 
freq.    3005.31  E(vib)   ...       0.00 
freq.    3006.17  E(vib)   ...       0.00 
freq.    3014.70  E(vib)   ...       0.00 
freq.    3016.04  E(vib)   ...       0.00 
freq.    3019.14  E(vib)   ...       0.00 
freq.    3020.76  E(vib)   ...       0.00 
freq.    3022.74  E(vib)   ...       0.00 
freq.    3023.93  E(vib)   ...       0.00 
freq.    3028.30  E(vib)   ...       0.00 
freq.    3031.73  E(vib)   ...       0.00 
freq.    3032.16  E(vib)   ...       0.00 
freq.    3036.41  E(vib)   ...       0.00 
freq.    3036.55  E(vib)   ...       0.00 
freq.    3039.47  E(vib)   ...       0.00 
freq.    3043.17  E(vib)   ...       0.00 
freq.    3044.61  E(vib)   ...       0.00 
freq.    3048.60  E(vib)   ...       0.00 
freq.    3052.46  E(vib)   ...       0.00 
freq.    3053.88  E(vib)   ...       0.00 
freq.    3055.38  E(vib)   ...       0.00 
freq.    3061.43  E(vib)   ...       0.00 
freq.    3063.73  E(vib)   ...       0.00 
freq.    3067.42  E(vib)   ...       0.00 
freq.    3297.18  E(vib)   ...       0.00 
freq.    3325.75  E(vib)   ...       0.00 
freq.    3344.30  E(vib)   ...       0.00 
freq.    3356.60  E(vib)   ...       0.00 
freq.    3364.11  E(vib)   ...       0.00 
freq.    3679.36  E(vib)   ...       0.00 

------------
INNER ENERGY
------------

The inner energy is: U= E(el) + E(ZPE) + E(vib) + E(rot) + E(trans)
    E(el)   - is the total energy from the electronic structure calculation
              = E(kin-el) + E(nuc-el) + E(el-el) + E(nuc-nuc)
    E(ZPE)  - the the zero temperature vibrational energy from the frequency calculation
    E(vib)  - the the finite temperature correction to E(ZPE) due to population
              of excited vibrational states
    E(rot)  - is the rotational thermal energy
    E(trans)- is the translational thermal energy

Summary of contributions to the inner energy U:
Electronic energy                ...  -2380.08709814 Eh
Zero point energy                ...      0.97836975 Eh     613.93 kcal/mol
Thermal vibrational correction   ...      0.05545760 Eh      34.80 kcal/mol
Thermal rotational correction    ...      0.00141627 Eh       0.89 kcal/mol
Thermal translational correction ...      0.00141627 Eh       0.89 kcal/mol
-----------------------------------------------------------------------
Total thermal energy                  -2379.05043824 Eh


Summary of corrections to the electronic energy:
(perhaps to be used in another calculation)
Total thermal correction                  0.05829014 Eh      36.58 kcal/mol
Non-thermal (ZPE) correction              0.97836975 Eh     613.93 kcal/mol
-----------------------------------------------------------------------
Total correction                          1.03665990 Eh     650.51 kcal/mol


--------
ENTHALPY
--------

The enthalpy is H = U + kB*T
                kB is Boltzmann's constant
Total free energy                 ...  -2379.05043824 Eh 
Thermal Enthalpy correction       ...      0.00094421 Eh       0.59 kcal/mol
-----------------------------------------------------------------------
Total Enthalpy                    ...  -2379.04949403 Eh


Note: Only C1 symmetry has been detected, increase convergence thresholds 
      if your molecule has a higher symmetry. Symmetry factor of 1.0 is   
      used for the rotational entropy correction. 
 

Note: Rotational entropy computed according to Herzberg 
Infrared and Raman Spectra, Chapter V,1, Van Nostrand Reinhold, 1945 
Point Group:  C1, Symmetry Number:   1  
Rotational constants in cm-1:     0.002452     0.001255     0.000971 

Vibrational entropy computed according to the QRRHO of S. Grimme
Chem.Eur.J. 2012 18 9955


-------
ENTROPY
-------

The entropy contributions are T*S = T*(S(el)+S(vib)+S(rot)+S(trans))
     S(el)   - electronic entropy
     S(vib)  - vibrational entropy
     S(rot)  - rotational entropy
     S(trans)- translational entropy
The entropies will be listed as mutliplied by the temperature to get
units of energy

Electronic entropy                ...      0.00000000 Eh      0.00 kcal/mol
Vibrational entropy               ...      0.10169621 Eh     63.82 kcal/mol
Rotational entropy                ...      0.01877748 Eh     11.78 kcal/mol
Translational entropy             ...      0.02166895 Eh     13.60 kcal/mol
-----------------------------------------------------------------------
Final entropy term                ...      0.14214264 Eh     89.20 kcal/mol

In case the symmetry of your molecule has not been determined correctly
or in case you have a reason to use a different symmetry number we print 
out the resulting rotational entropy values for sn=1,12 :
 --------------------------------------------------------
|  sn= 1 | S(rot)=       0.01877748 Eh     11.78 kcal/mol|
|  sn= 2 | S(rot)=       0.01812303 Eh     11.37 kcal/mol|
|  sn= 3 | S(rot)=       0.01774020 Eh     11.13 kcal/mol|
|  sn= 4 | S(rot)=       0.01746857 Eh     10.96 kcal/mol|
|  sn= 5 | S(rot)=       0.01725788 Eh     10.83 kcal/mol|
|  sn= 6 | S(rot)=       0.01708574 Eh     10.72 kcal/mol|
|  sn= 7 | S(rot)=       0.01694019 Eh     10.63 kcal/mol|
|  sn= 8 | S(rot)=       0.01681412 Eh     10.55 kcal/mol|
|  sn= 9 | S(rot)=       0.01670291 Eh     10.48 kcal/mol|
|  sn=10 | S(rot)=       0.01660343 Eh     10.42 kcal/mol|
|  sn=11 | S(rot)=       0.01651344 Eh     10.36 kcal/mol|
|  sn=12 | S(rot)=       0.01643128 Eh     10.31 kcal/mol|
 --------------------------------------------------------


-------------------
GIBBS FREE ENERGY
-------------------

The Gibbs free energy is G = H - T*S

Total enthalpy                    ...  -2379.04949403 Eh 
Total entropy correction          ...     -0.14214264 Eh    -89.20 kcal/mol
-----------------------------------------------------------------------
Final Gibbs free energy         ...  -2379.19163668 Eh

For completeness - the Gibbs free energy minus the electronic energy
G-E(el)                           ...      0.89546146 Eh    561.91 kcal/mol


Timings for individual modules:

Sum of individual times         ...    30093.963 sec (= 501.566 min)
GTO integral calculation        ...      141.249 sec (=   2.354 min)   0.5 %
SCF iterations                  ...     3086.397 sec (=  51.440 min)  10.3 %
SCF Gradient evaluation         ...     1116.074 sec (=  18.601 min)   3.7 %
Geometry relaxation             ...       34.308 sec (=   0.572 min)   0.1 %
Analytical frequency calculation...    25715.934 sec (= 428.599 min)  85.5 %
                             ****ORCA TERMINATED NORMALLY****
TOTAL RUN TIME: 0 days 8 hours 22 minutes 29 seconds 439 msec
