
                                 *****************
                                 * O   R   C   A *
                                 *****************

           --- An Ab Initio, DFT and Semiempirical electronic structure package ---

                  #######################################################
                  #                        -***-                        #
                  #          Department of theory and spectroscopy      #
                  #               Directorship: Frank Neese             #
                  #        Max Planck Institute fuer Kohlenforschung    #
                  #                Kaiser Wilhelm Platz 1               #
                  #                 D-45470 Muelheim/Ruhr               #
                  #                      Germany                        #
                  #                                                     #
                  #                  All rights reserved                #
                  #                        -***-                        #
                  #######################################################


                         Program Version 4.2.0 -  RELEASE  -


 With contributions from (in alphabetic order):
   Daniel Aravena         : Magnetic Suceptibility
   Michael Atanasov       : Ab Initio Ligand Field Theory (pilot matlab implementation)
   Alexander A. Auer      : GIAO ZORA, VPT2
   Ute Becker             : Parallelization
   Giovanni Bistoni       : ED, misc. LED, open-shell LED, HFLED
   Martin Brehm           : Molecular dynamics
   Dmytro Bykov           : SCF Hessian
   Vijay G. Chilkuri      : MRCI spin determinant printing, contributions to CSF-ICE
   Dipayan Datta          : RHF DLPNO-CCSD density
   Achintya Kumar Dutta   : EOM-CC, STEOM-CC
   Dmitry Ganyushin       : Spin-Orbit,Spin-Spin,Magnetic field MRCI
   Miquel Garcia          : C-PCM Hessian, Gaussian charge scheme
   Yang Guo               : DLPNO-NEVPT2, CIM, IAO-localization
   Andreas Hansen         : Spin unrestricted coupled pair/coupled cluster methods
   Benjamin Helmich-Paris : CASSCF linear response (MC-RPA)
   Lee Huntington         : MR-EOM, pCC
   Robert Izsak           : Overlap fitted RIJCOSX, COSX-SCS-MP3, EOM
   Christian Kollmar      : KDIIS, OOCD, Brueckner-CCSD(T), CCSD density
   Simone Kossmann        : Meta GGA functionals, TD-DFT gradient, OOMP2, MP2 Hessian
   Martin Krupicka        : AUTO-CI
   Lucas Lang             : DCDCAS
   Dagmar Lenk            : GEPOL surface, SMD
   Dimitrios Liakos       : Extrapolation schemes; Compound Job, initial MDCI parallelization
   Dimitrios Manganas     : Further ROCIS development; embedding schemes
   Dimitrios Pantazis     : SARC Basis sets
   Taras Petrenko         : DFT Hessian,TD-DFT gradient, ASA, ECA, R-Raman, ABS, FL, XAS/XES, NRVS
   Peter Pinski           : DLPNO-MP2, DLPNO-MP2 Gradient
   Christoph Reimann      : Effective Core Potentials
   Marius Retegan         : Local ZFS, SOC
   Christoph Riplinger    : Optimizer, TS searches, QM/MM, DLPNO-CCSD(T), (RO)-DLPNO pert. Triples
   Tobias Risthaus        : Range-separated hybrids, TD-DFT gradient, RPA, STAB
   Michael Roemelt        : Original ROCIS implementation
   Masaaki Saitow         : Open-shell DLPNO-CCSD energy and density
   Barbara Sandhoefer     : DKH picture change effects
   Avijit Sen             : IP-ROCIS
   Kantharuban Sivalingam : CASSCF convergence, NEVPT2, FIC-MRCI
   Bernardo de Souza      : ESD, SOC TD-DFT
   Georgi Stoychev        : AutoAux, RI-MP2 NMR
   Willem Van den Heuvel  : Paramagnetic NMR
   Boris Wezisla          : Elementary symmetry handling
   Frank Wennmohs         : Technical directorship


 We gratefully acknowledge several colleagues who have allowed us to
 interface, adapt or use parts of their codes:
   Stefan Grimme, W. Hujo, H. Kruse,             : VdW corrections, initial TS optimization,
                  C. Bannwarth                     DFT functionals, gCP, sTDA/sTD-DF
   Ed Valeev, F. Pavosevic, A. Kumar             : LibInt (2-el integral package), F12 methods
   Garnet Chan, S. Sharma, J. Yang, R. Olivares  : DMRG
   Ulf Ekstrom                                   : XCFun DFT Library
   Mihaly Kallay                                 : mrcc  (arbitrary order and MRCC methods)
   Andreas Klamt, Michael Diedenhofen            : otool_cosmo (COSMO solvation model)
   Jiri Pittner, Ondrej Demel                    : Mk-CCSD
   Frank Weinhold                                : gennbo (NPA and NBO analysis)
   Christopher J. Cramer and Donald G. Truhlar   : smd solvation model
   Lars Goerigk                                  : TD-DFT with DH, B97 family of functionals
   V. Asgeirsson, H. Jonsson                     : NEB implementation
   FAccTs GmbH                                   : IRC, NEB, NEB-TS, Multilevel, MM, QM/MM, CI optimization
   S Lehtola, MJT Oliveira, MAL Marques          : LibXC Library


 Your calculation uses the libint2 library for the computation of 2-el integrals
 For citations please refer to: http://libint.valeyev.net

 Your ORCA version has been built with support for libXC version: 4.2.3
 For citations please refer to: https://tddft.org/programs/libxc/

 This ORCA versions uses:
   CBLAS   interface :  Fast vector & matrix operations
   LAPACKE interface :  Fast linear algebra routines
   SCALAPACK package :  Parallel linear algebra routines




***************************************
The coordinates will be read from file: 9.xyz
***************************************


Your calculation utilizes the atom-pairwise dispersion correction
with the Becke-Johnson damping scheme (D3BJ)
Cite in your paper:
S.Grimme, S.Ehrlich, L.Goerigk, J Comput Chem, (2011), 32, 1456–1465 
S.Grimme, J.Antony, S.Ehrlich and H.Krieg, J.Chem.Phys., 132, (2010), 154104 
   

----- Orbital basis set information -----
Your calculation utilizes the basis: def2-TZVP
   F. Weigend and R. Ahlrichs, Phys. Chem. Chem. Phys. 7, 3297 (2005).

----- AuxJ basis set information -----
Your calculation utilizes the auxiliary basis: def2/J
   F. Weigend, Phys. Chem. Chem. Phys. 8, 1057 (2006).

================================================================================
                                        WARNINGS
                       Please study these warnings very carefully!
================================================================================


WARNING: Geometry Optimization
  ===> : Switching off AutoStart
         For restart on a previous wavefunction, please use MOREAD

INFO   : the flag for use of LIBINT has been found!

================================================================================
                                       INPUT FILE
================================================================================
NAME = 9.inp
|  1> !RI BP86 def2-tzvp def2/J D3BJ VeryTightSCF VeryTightOpt Grid5 FinalGrid6 freq
|  2> %maxcore 4000
|  3> %pal nprocs 24
|  4> end
|  5> * xyzfile 0 1 9.xyz 
|  6> 
|  7>                          ****END OF INPUT****
================================================================================

                       *****************************
                       * Geometry Optimization Run *
                       *****************************

Geometry optimization settings:
Update method            Update   .... BFGS
Choice of coordinates    CoordSys .... Z-matrix Internals
Initial Hessian          InHess   .... Almoef's Model

Convergence Tolerances:
Energy Change            TolE     ....  2.0000e-07 Eh
Max. Gradient            TolMAXG  ....  3.0000e-05 Eh/bohr
RMS Gradient             TolRMSG  ....  8.0000e-06 Eh/bohr
Max. Displacement        TolMAXD  ....  2.0000e-04 bohr
RMS Displacement         TolRMSD  ....  1.0000e-04 bohr
Strict Convergence                ....  False
------------------------------------------------------------------------------
                        ORCA OPTIMIZATION COORDINATE SETUP
------------------------------------------------------------------------------

The optimization will be done in new redundant internal coordinates
Making redundant internal coordinates   ...  (new redundants) done
Evaluating the initial hessian          ...  (Almloef) done
Evaluating the coordinates              ...  done
Calculating the B-matrix                .... done
Calculating the G-matrix                .... done
Diagonalizing the G-matrix              .... done
Small eigenvalue found = 3.697e-04
Small eigenvalue found = 1.395e-03
Small eigenvalue found = 2.618e-03
Small eigenvalue found = 3.941e-03
Small eigenvalue found = 5.068e-03
Small eigenvalue found = 5.332e-03
Small eigenvalue found = 6.246e-03
Small eigenvalue found = 7.601e-03
Small eigenvalue found = 8.664e-03
Small eigenvalue found = 1.041e-02
Small eigenvalue found = 1.248e-02
Small eigenvalue found = 1.297e-02
Small eigenvalue found = 1.439e-02
Small eigenvalue found = 1.704e-02
Small eigenvalue found = 2.031e-02
Small eigenvalue found = 2.241e-02
Small eigenvalue found = 2.467e-02
Small eigenvalue found = 2.766e-02
Small eigenvalue found = 2.807e-02
The first mode is                       ....  326
The number of degrees of freedom        ....  339

    -----------------------------------------------------------------
                    Redundant Internal Coordinates


    -----------------------------------------------------------------
         Definition                    Initial Value    Approx d2E/dq
    -----------------------------------------------------------------
      1. B(C   1,O   0)                  1.2322         0.999213   
      2. B(C   2,C   1)                  1.5558         0.339795   
      3. B(C   3,C   2)                  1.5265         0.378382   
      4. B(C   4,C   3)                  1.5356         0.365970   
      5. B(C   5,C   4)                  1.5339         0.368287   
      6. B(N   6,C   2)                  1.4823         0.398617   
      7. B(N   6,C   5)                  1.4772         0.406164   
      8. B(C   7,N   6)                  1.3490         0.650621   
      9. B(O   8,C   7)                  1.2473         0.945135   
     10. B(N   9,C   1)                  1.3557         0.634859   
     11. B(C  10,N   9)                  1.4438         0.459278   
     12. B(C  11,C  10)                  1.5336         0.368669   
     13. B(N  12,C  11)                  1.3672         0.608529   
     14. B(C  13,N  12)                  1.4627         0.428369   
     15. B(C  14,C  13)                  1.5378         0.362977   
     16. B(N  15,C  14)                  1.3617         0.621019   
     17. B(C  16,N  15)                  1.4529         0.444150   
     18. B(C  17,C  16)                  1.5430         0.356188   
     19. B(C  18,C  17)                  1.5542         0.341845   
     20. B(C  19,C  18)                  1.5446         0.354121   
     21. B(N  20,C  19)                  1.3715         0.598868   
     22. B(C  21,N  20)                  1.4609         0.431354   
     23. B(C  22,C  21)                  1.5425         0.356846   
     24. B(N  23,C  22)                  1.3584         0.628519   
     25. B(C  24,N  23)                  1.4508         0.447503   
     26. B(C  24,C   7)                  1.5290         0.374900   
     27. B(C  25,C  24)                  1.5374         0.363560   
     28. B(O  26,C  22)                  1.2321         0.999379   
     29. B(C  27,C  21)                  1.5335         0.368821   
     30. B(C  28,C  27)                  1.5348         0.367105   
     31. B(C  29,C  28)                  1.5331         0.369390   
     32. B(C  30,C  28)                  1.5327         0.369894   
     33. B(O  31,C  19)                  1.2265         1.020299   
     34. B(C  32,C  18)                  1.5345         0.367428   
     35. B(C  33,C  32)                  1.5049         0.409697   
     36. B(C  34,C  33)                  1.5495         0.347690   
     37. B(C  35,C  34)                  1.5293         0.374488   
     38. B(C  36,C  35)                  1.5317         0.371302   
     39. B(C  37,C  36)                  1.5318         0.371067   
     40. B(C  38,C  37)                  1.5302         0.373251   
     41. B(C  39,C  38)                  1.5288         0.375179   
     42. B(C  40,C  39)                  1.5293         0.374557   
     43. B(C  41,C  40)                  1.5292         0.374635   
     44. B(O  42,C  32)                  1.2293         1.009849   
     45. B(O  43,C  17)                  1.4172         0.506376   
     46. B(O  44,C  14)                  1.2296         1.008577   
     47. B(C  45,C  13)                  1.5384         0.362213   
     48. B(C  46,C  45)                  1.5278         0.376607   
     49. B(O  47,C  11)                  1.2304         1.005876   
     50. B(C  48,C  10)                  1.5614         0.332911   
     51. B(C  49,C  48)                  1.5318         0.371145   
     52. B(C  50,C  48)                  1.5301         0.373461   
     53. B(H  51,C   2)                  1.0998         0.347322   
     54. B(H  52,C   3)                  1.0991         0.348229   
     55. B(H  53,C   3)                  1.0952         0.353255   
     56. B(H  54,C   4)                  1.0990         0.348379   
     57. B(H  55,C   4)                  1.0968         0.351245   
     58. B(H  56,C   5)                  1.0984         0.349187   
     59. B(H  57,C   5)                  1.1013         0.345466   
     60. B(H  58,N   9)                  1.0326         0.398249   
     61. B(H  59,C  10)                  1.1021         0.344432   
     62. B(H  60,N  12)                  1.0169         0.421841   
     63. B(H  61,C  13)                  1.1012         0.345601   
     64. B(H  62,N  15)                  1.0160         0.423311   
     65. B(H  63,C  16)                  1.0995         0.347812   
     66. B(H  64,C  16)                  1.0974         0.350490   
     67. B(H  65,C  17)                  1.1050         0.340804   
     68. B(H  66,C  18)                  1.1028         0.343499   
     69. B(H  67,N  20)                  1.0171         0.421545   
     70. B(H  68,C  21)                  1.1017         0.344982   
     71. B(H  69,N  23)                  1.0203         0.416659   
     72. B(H  70,C  24)                  1.1004         0.346655   
     73. B(H  71,C  25)                  1.0970         0.350933   
     74. B(H  72,C  25)                  1.0992         0.348069   
     75. B(H  73,C  25)                  1.0973         0.350603   
     76. B(H  74,C  27)                  1.1005         0.346504   
     77. B(H  75,C  27)                  1.1051         0.340642   
     78. B(H  76,C  28)                  1.1032         0.343013   
     79. B(H  77,C  29)                  1.1008         0.346107   
     80. B(H  78,C  29)                  1.1020         0.344542   
     81. B(H  79,C  29)                  1.0994         0.347923   
     82. B(H  80,C  30)                  1.0986         0.348925   
     83. B(H  81,C  30)                  1.0995         0.347721   
     84. B(H  82,C  30)                  1.1023         0.344170   
     85. B(H  83,C  33)                  1.0977         0.350035   
     86. B(H  84,C  33)                  1.1006         0.346290   
     87. B(H  85,C  34)                  1.1006         0.346393   
     88. B(H  86,C  34)                  1.1020         0.344541   
     89. B(H  87,O  47)                  3.4487         0.000056   
     90. B(H  87,C  35)                  1.1016         0.345022   
     91. B(H  88,C  35)                  1.1017         0.344996   
     92. B(H  89,C  36)                  1.1027         0.343648   
     93. B(H  90,C  36)                  1.1050         0.340821   
     94. B(H  91,H  73)                  2.2464         0.000985   
     95. B(H  91,C  37)                  1.1027         0.343638   
     96. B(H  92,C  37)                  1.1038         0.342297   
     97. B(H  93,C  38)                  1.1050         0.340822   
     98. B(H  94,C  38)                  1.1006         0.346343   
     99. B(H  95,C  39)                  1.1030         0.343252   
    100. B(H  96,C  39)                  1.1046         0.341257   
    101. B(H  97,C  40)                  1.1031         0.343225   
    102. B(H  98,H  51)                  2.1889         0.001217   
    103. B(H  98,C  40)                  1.1040         0.342025   
    104. B(H  99,C  41)                  1.0996         0.347681   
    105. B(H 100,C  41)                  1.1005         0.346532   
    106. B(H 101,C  41)                  1.1017         0.345008   
    107. B(H 102,O  43)                  0.9911         0.463887   
    108. B(H 103,C  45)                  1.1032         0.343015   
    109. B(H 104,C  45)                  1.1037         0.342463   
    110. B(H 105,C  46)                  1.0984         0.349174   
    111. B(H 106,H  84)                  4.9930         0.000000   
    112. B(H 106,C  46)                  1.0970         0.350967   
    113. B(H 107,C  46)                  1.0989         0.348472   
    114. B(H 108,C  48)                  1.1046         0.341286   
    115. B(H 109,H  67)                  2.1074         0.001642   
    116. B(H 109,C  49)                  1.1001         0.347015   
    117. B(H 110,C  49)                  1.0988         0.348614   
    118. B(H 111,C  49)                  1.1007         0.346206   
    119. B(H 112,C  50)                  1.0975         0.350359   
    120. B(H 113,C  50)                  1.0993         0.347998   
    121. B(H 114,C  50)                  1.0993         0.348055   
    122. A(O   0,C   1,N   9)          124.4871         0.469159   
    123. A(C   2,C   1,N   9)          113.2766         0.389281   
    124. A(O   0,C   1,C   2)          122.2340         0.421746   
    125. A(C   1,C   2,H  51)          108.3695         0.317449   
    126. A(N   6,C   2,H  51)          108.4601         0.323906   
    127. A(C   1,C   2,N   6)          111.4230         0.359259   
    128. A(C   1,C   2,C   3)          111.6719         0.358307   
    129. A(C   3,C   2,H  51)          113.7128         0.323079   
    130. A(C   3,C   2,N   6)          103.1259         0.365919   
    131. A(C   4,C   3,H  53)          112.7099         0.322211   
    132. A(C   4,C   3,H  52)          111.0559         0.321456   
    133. A(C   2,C   3,C   4)          103.0011         0.362869   
    134. A(C   2,C   3,H  53)          110.9211         0.323978   
    135. A(C   2,C   3,H  52)          109.7184         0.323217   
    136. A(H  52,C   3,H  53)          109.2935         0.288446   
    137. A(H  54,C   4,H  55)          108.1629         0.288208   
    138. A(C   3,C   4,H  55)          113.3903         0.321910   
    139. A(C   3,C   4,C   5)          103.7568         0.361198   
    140. A(C   3,C   4,H  54)          109.3422         0.321478   
    141. A(C   5,C   4,H  55)          111.8946         0.322243   
    142. A(C   5,C   4,H  54)          110.2373         0.321810   
    143. A(H  56,C   5,H  57)          108.1460         0.287565   
    144. A(C   4,C   5,N   6)          103.5290         0.365401   
    145. A(C   4,C   5,H  56)          112.8628         0.321933   
    146. A(N   6,C   5,H  57)          109.9312         0.324620   
    147. A(N   6,C   5,H  56)          110.9412         0.325192   
    148. A(C   4,C   5,H  57)          111.3945         0.321368   
    149. A(C   5,N   6,C   7)          126.5715         0.400809   
    150. A(C   2,N   6,C   7)          121.5386         0.399488   
    151. A(C   2,N   6,C   5)          111.7893         0.368081   
    152. A(O   8,C   7,C  24)          119.3162         0.424975   
    153. A(N   6,C   7,O   8)          122.0125         0.466491   
    154. A(N   6,C   7,C  24)          118.6643         0.397747   
    155. A(C   1,N   9,C  10)          123.2098         0.407829   
    156. A(C  10,N   9,H  58)          118.1583         0.336274   
    157. A(C   1,N   9,H  58)          118.3391         0.355073   
    158. A(C  48,C  10,H  59)          108.1164         0.315963   
    159. A(C  11,C  10,H  59)          110.7942         0.321265   
    160. A(N   9,C  10,C  11)          107.5072         0.373264   
    161. A(N   9,C  10,C  48)          112.5322         0.366775   
    162. A(N   9,C  10,H  59)          107.8808         0.331101   
    163. A(C  11,C  10,C  48)          110.0092         0.355489   
    164. A(N  12,C  11,O  47)          121.9786         0.466099   
    165. A(C  10,C  11,O  47)          122.4294         0.428455   
    166. A(C  10,C  11,N  12)          115.4703         0.391957   
    167. A(C  13,N  12,H  60)          117.8097         0.335596   
    168. A(C  11,N  12,C  13)          120.6812         0.399847   
    169. A(C  11,N  12,H  60)          118.4733         0.355990   
    170. A(C  14,C  13,C  45)          110.9654         0.359671   
    171. A(N  12,C  13,H  61)          109.3625         0.327497   
    172. A(C  14,C  13,H  61)          104.7284         0.320627   
    173. A(N  12,C  13,C  14)          112.7602         0.367833   
    174. A(C  45,C  13,H  61)          109.9753         0.320516   
    175. A(N  12,C  13,C  45)          108.9664         0.367700   
    176. A(C  13,C  14,N  15)          115.8391         0.392284   
    177. A(N  15,C  14,O  44)          123.6993         0.468067   
    178. A(C  13,C  14,O  44)          120.3434         0.427467   
    179. A(C  14,N  15,H  62)          117.5558         0.357432   
    180. A(C  16,N  15,H  62)          119.8860         0.337820   
    181. A(C  14,N  15,C  16)          122.3662         0.403847   
    182. A(H  63,C  16,H  64)          108.2696         0.288037   
    183. A(C  17,C  16,H  64)          109.9052         0.320373   
    184. A(N  15,C  16,H  63)          109.7940         0.329805   
    185. A(C  17,C  16,H  63)          107.2922         0.319972   
    186. A(N  15,C  16,C  17)          114.2421         0.368926   
    187. A(N  15,C  16,H  64)          107.2095         0.330223   
    188. A(O  43,C  17,H  65)          106.2404         0.335918   
    189. A(C  18,C  17,H  65)          108.1178         0.316781   
    190. A(C  16,C  17,H  65)          107.6597         0.318910   
    191. A(C  16,C  17,C  18)          113.4448         0.355010   
    192. A(C  18,C  17,O  43)          111.7216         0.374688   
    193. A(C  16,C  17,O  43)          109.3151         0.377358   
    194. A(C  19,C  18,H  66)          108.7294         0.319017   
    195. A(C  17,C  18,H  66)          109.4852         0.317188   
    196. A(C  17,C  18,C  32)          110.8494         0.356887   
    197. A(C  17,C  18,C  19)          109.2558         0.354660   
    198. A(C  19,C  18,C  32)          108.7026         0.359035   
    199. A(C  32,C  18,H  66)          109.7813         0.320946   
    200. A(C  18,C  19,N  20)          113.6797         0.388124   
    201. A(N  20,C  19,O  31)          123.0854         0.465948   
    202. A(C  18,C  19,O  31)          123.2346         0.426462   
    203. A(C  19,N  20,H  67)          117.1784         0.354982   
    204. A(C  19,N  20,C  21)          122.9368         0.399210   
    205. A(C  21,N  20,H  67)          116.2450         0.335945   
    206. A(C  27,C  21,H  68)          110.0694         0.321371   
    207. A(C  22,C  21,H  68)          107.2550         0.319641   
    208. A(N  20,C  21,H  68)          105.3928         0.327775   
    209. A(N  20,C  21,C  22)          111.4771         0.367197   
    210. A(C  22,C  21,C  27)          110.4749         0.359735   
    211. A(N  20,C  21,C  27)          111.9439         0.369283   
    212. A(C  21,C  22,N  23)          114.7049         0.391939   
    213. A(C  21,C  22,O  26)          122.3778         0.425466   
    214. A(N  23,C  22,O  26)          122.9161         0.468311   
    215. A(C  22,N  23,C  24)          122.2164         0.405241   
    216. A(C  24,N  23,H  69)          116.1646         0.337352   
    217. A(C  22,N  23,H  69)          120.4652         0.357199   
    218. A(C  25,C  24,H  70)          108.6882         0.320870   
    219. A(N  23,C  24,H  70)          107.1527         0.330033   
    220. A(C   7,C  24,H  70)          111.0933         0.322488   
    221. A(N  23,C  24,C  25)          112.6606         0.370707   
    222. A(C   7,C  24,N  23)          105.6258         0.372672   
    223. A(C   7,C  24,C  25)          111.5365         0.361888   
    224. A(H  71,C  25,H  73)          109.0894         0.288455   
    225. A(C  24,C  25,H  73)          110.3681         0.321465   
    226. A(H  71,C  25,H  72)          108.5472         0.288128   
    227. A(C  24,C  25,H  72)          111.3191         0.321084   
    228. A(C  24,C  25,H  71)          108.9006         0.321515   
    229. A(H  72,C  25,H  73)          108.5710         0.288085   
    230. A(C  28,C  27,H  75)          109.6260         0.320462   
    231. A(C  21,C  27,C  28)          114.8971         0.361478   
    232. A(H  74,C  27,H  75)          105.8459         0.286589   
    233. A(C  21,C  27,H  75)          108.1318         0.320706   
    234. A(C  28,C  27,H  74)          110.4372         0.321357   
    235. A(C  21,C  27,H  74)          107.4839         0.321603   
    236. A(C  29,C  28,C  30)          110.8763         0.362040   
    237. A(C  27,C  28,C  30)          111.9974         0.361657   
    238. A(C  27,C  28,C  29)          109.5257         0.361573   
    239. A(C  30,C  28,H  76)          107.7165         0.321223   
    240. A(C  29,C  28,H  76)          107.6277         0.321151   
    241. A(C  27,C  28,H  76)          108.9661         0.320825   
    242. A(C  28,C  29,H  79)          110.9452         0.321899   
    243. A(H  78,C  29,H  79)          107.8314         0.287282   
    244. A(H  77,C  29,H  79)          107.8052         0.287485   
    245. A(H  77,C  29,H  78)          107.6992         0.287047   
    246. A(C  28,C  29,H  78)          110.9855         0.321385   
    247. A(C  28,C  29,H  77)          111.4141         0.321623   
    248. A(H  81,C  30,H  82)          107.8063         0.287207   
    249. A(H  80,C  30,H  82)          108.5947         0.287363   
    250. A(C  28,C  30,H  82)          110.8816         0.321400   
    251. A(H  80,C  30,H  81)          107.0995         0.287824   
    252. A(C  28,C  30,H  81)          110.4579         0.321940   
    253. A(C  28,C  30,H  80)          111.8380         0.322123   
    254. A(C  33,C  32,O  42)          121.2516         0.436970   
    255. A(C  18,C  32,O  42)          119.2855         0.428499   
    256. A(C  18,C  32,C  33)          119.4624         0.368093   
    257. A(C  32,C  33,C  34)          113.8146         0.364627   
    258. A(C  34,C  33,H  84)          109.9675         0.318485   
    259. A(H  83,C  33,H  84)          108.1657         0.287781   
    260. A(C  32,C  33,H  84)          108.9339         0.327169   
    261. A(C  34,C  33,H  83)          109.7652         0.319044   
    262. A(C  32,C  33,H  83)          105.9879         0.327750   
    263. A(C  33,C  34,C  35)          115.5339         0.359078   
    264. A(H  85,C  34,H  86)          106.5524         0.287084   
    265. A(C  35,C  34,H  86)          108.1062         0.322107   
    266. A(C  33,C  34,H  86)          106.8553         0.318222   
    267. A(C  35,C  34,H  85)          109.8850         0.322390   
    268. A(C  33,C  34,H  85)          109.4859         0.318500   
    269. A(C  34,C  35,C  36)          111.3316         0.363124   
    270. A(H  87,C  35,H  88)          105.8247         0.286966   
    271. A(C  36,C  35,H  88)          108.8555         0.321726   
    272. A(C  34,C  35,H  88)          110.9455         0.322176   
    273. A(C  36,C  35,H  87)          110.5150         0.321730   
    274. A(C  34,C  35,H  87)          109.2294         0.322180   
    275. A(C  35,C  36,C  37)          114.6419         0.362555   
    276. A(H  89,C  36,H  90)          106.0904         0.286243   
    277. A(C  37,C  36,H  90)          109.1899         0.321052   
    278. A(C  35,C  36,H  90)          108.9337         0.321086   
    279. A(C  37,C  36,H  89)          109.1289         0.321487   
    280. A(C  35,C  36,H  89)          108.5107         0.321520   
    281. A(C  36,C  37,C  38)          114.4390         0.362880   
    282. A(H  91,C  37,H  92)          106.3553         0.286434   
    283. A(C  38,C  37,H  92)          109.2081         0.321588   
    284. A(C  36,C  37,H  92)          108.9571         0.321279   
    285. A(C  38,C  37,H  91)          108.5835         0.321794   
    286. A(C  36,C  37,H  91)          108.9902         0.321485   
    287. A(C  37,C  38,C  39)          112.9620         0.363564   
    288. A(H  93,C  38,H  94)          106.7684         0.286592   
    289. A(C  39,C  38,H  94)          108.5069         0.322480   
    290. A(C  37,C  38,H  94)          109.4015         0.322208   
    291. A(C  39,C  38,H  93)          109.5240         0.321632   
    292. A(C  37,C  38,H  93)          109.4846         0.321361   
    293. A(C  38,C  39,C  40)          113.6142         0.363781   
    294. A(H  95,C  39,H  96)          106.0307         0.286248   
    295. A(C  40,C  39,H  96)          109.5019         0.321612   
    296. A(C  38,C  39,H  96)          109.8950         0.321699   
    297. A(C  40,C  39,H  95)          108.7045         0.321919   
    298. A(C  38,C  39,H  95)          108.8061         0.322006   
    299. A(C  39,C  40,C  41)          112.9886         0.363691   
    300. A(H  97,C  40,H  98)          105.6413         0.286345   
    301. A(C  41,C  40,H  98)          109.8886         0.321741   
    302. A(C  39,C  40,H  98)          108.7014         0.321730   
    303. A(C  41,C  40,H  97)          109.7644         0.321926   
    304. A(C  39,C  40,H  97)          109.5891         0.321915   
    305. A(H 100,C  41,H 101)          107.1132         0.287163   
    306. A(H  99,C  41,H 101)          107.7908         0.287311   
    307. A(C  40,C  41,H 101)          110.8131         0.322199   
    308. A(H  99,C  41,H 100)          107.7519         0.287509   
    309. A(C  40,C  41,H 100)          111.1642         0.322432   
    310. A(C  40,C  41,H  99)          111.9987         0.322607   
    311. A(C  17,O  43,H 102)          104.0743         0.350680   
    312. A(C  13,C  45,C  46)          113.9081         0.361939   
    313. A(C  46,C  45,H 104)          109.5091         0.322085   
    314. A(C  13,C  45,H 104)          107.4966         0.320038   
    315. A(C  46,C  45,H 103)          110.1403         0.322170   
    316. A(C  13,C  45,H 103)          108.6513         0.320123   
    317. A(H 103,C  45,H 104)          106.8688         0.286375   
    318. A(H 106,C  46,H 107)          107.3410         0.288184   
    319. A(H 105,C  46,H 107)          108.1318         0.287953   
    320. A(C  45,C  46,H 107)          111.0148         0.323005   
    321. A(H 105,C  46,H 106)          108.4621         0.288275   
    322. A(C  45,C  46,H 106)          111.5435         0.323383   
    323. A(C  45,C  46,H 105)          110.2213         0.323111   
    324. A(C  50,C  48,H 108)          108.4052         0.321462   
    325. A(C  49,C  48,H 108)          108.5567         0.321135   
    326. A(C  10,C  48,H 108)          106.1862         0.315492   
    327. A(C  49,C  48,C  50)          110.9674         0.362928   
    328. A(C  10,C  48,C  50)          111.0431         0.356269   
    329. A(C  10,C  48,C  49)          111.4882         0.355893   
    330. A(H 110,C  49,H 111)          108.0137         0.287587   
    331. A(H 109,C  49,H 111)          107.8762         0.287381   
    332. A(C  48,C  49,H 111)          110.3915         0.321888   
    333. A(H 109,C  49,H 110)          108.5004         0.287692   
    334. A(C  48,C  49,H 110)          110.6891         0.322254   
    335. A(C  48,C  49,H 109)          111.2586         0.322011   
    336. A(H 113,C  50,H 114)          107.7780         0.287748   
    337. A(H 112,C  50,H 114)          108.8529         0.288052   
    338. A(C  48,C  50,H 114)          110.2540         0.322498   
    339. A(H 112,C  50,H 113)          107.5384         0.288045   
    340. A(C  48,C  50,H 113)          110.4735         0.322489   
    341. A(C  48,C  50,H 112)          111.8155         0.322847   
    342. D(H  51,C   2,C   1,N   9)    -63.2577         0.008774   
    343. D(C   3,C   2,C   1,N   9)    170.7320         0.008774   
    344. D(N   6,C   2,C   1,N   9)     55.9973         0.008774   
    345. D(N   6,C   2,C   1,O   0)   -123.4773         0.008774   
    346. D(C   3,C   2,C   1,O   0)     -8.7426         0.008774   
    347. D(H  51,C   2,C   1,O   0)    117.2677         0.008774   
    348. D(C   4,C   3,C   2,N   6)     33.4239         0.011416   
    349. D(H  53,C   3,C   2,H  51)    -88.5200         0.011416   
    350. D(H  53,C   3,C   2,C   1)     34.4997         0.011416   
    351. D(C   4,C   3,C   2,H  51)    150.6527         0.011416   
    352. D(H  53,C   3,C   2,N   6)    154.2512         0.011416   
    353. D(H  52,C   3,C   2,H  51)     32.3289         0.011416   
    354. D(C   4,C   3,C   2,C   1)    -86.3276         0.011416   
    355. D(H  52,C   3,C   2,C   1)    155.3487         0.011416   
    356. D(H  52,C   3,C   2,N   6)    -84.8998         0.011416   
    357. D(H  55,C   4,C   3,H  53)     80.1407         0.010721   
    358. D(H  55,C   4,C   3,H  52)    -42.8786         0.010721   
    359. D(H  54,C   4,C   3,H  52)   -163.6609         0.010721   
    360. D(H  55,C   4,C   3,C   2)   -160.2617         0.010721   
    361. D(H  54,C   4,C   3,H  53)    -40.6415         0.010721   
    362. D(C   5,C   4,C   3,C   2)    -38.6485         0.010721   
    363. D(H  54,C   4,C   3,C   2)     78.9561         0.010721   
    364. D(C   5,C   4,C   3,H  53)   -158.2461         0.010721   
    365. D(C   5,C   4,C   3,H  52)     78.7346         0.010721   
    366. D(N   6,C   5,C   4,C   3)     28.3513         0.010849   
    367. D(H  57,C   5,C   4,C   3)    -89.7374         0.010849   
    368. D(H  56,C   5,C   4,H  55)    -89.0142         0.010849   
    369. D(H  56,C   5,C   4,C   3)    148.3784         0.010849   
    370. D(H  57,C   5,C   4,H  54)    153.2823         0.010849   
    371. D(H  56,C   5,C   4,H  54)     31.3980         0.010849   
    372. D(H  57,C   5,C   4,H  55)     32.8700         0.010849   
    373. D(N   6,C   5,C   4,H  54)    -88.6290         0.010849   
    374. D(N   6,C   5,C   4,H  55)    150.9587         0.010849   
    375. D(C   5,N   6,C   2,C   3)    -16.4104         0.013568   
    376. D(C   7,N   6,C   5,H  57)    -64.7991         0.014077   
    377. D(C   7,N   6,C   5,H  56)     54.7704         0.014077   
    378. D(C   7,N   6,C   5,C   4)    176.0997         0.014077   
    379. D(C   2,N   6,C   5,H  57)    111.5712         0.014077   
    380. D(C   2,N   6,C   5,H  56)   -128.8593         0.014077   
    381. D(C   7,N   6,C   2,H  51)     39.2934         0.013568   
    382. D(C   2,N   6,C   5,C   4)     -7.5300         0.014077   
    383. D(C   7,N   6,C   2,C   3)    160.1696         0.013568   
    384. D(C   5,N   6,C   2,C   1)    103.5124         0.013568   
    385. D(C   7,N   6,C   2,C   1)    -79.9076         0.013568   
    386. D(C   5,N   6,C   2,H  51)   -137.2866         0.013568   
    387. D(C  24,C   7,N   6,C   5)     -1.6300         0.034552   
    388. D(C  24,C   7,N   6,C   2)   -177.6751         0.034552   
    389. D(O   8,C   7,N   6,C   5)    179.3332         0.034552   
    390. D(O   8,C   7,N   6,C   2)      3.2882         0.034552   
    391. D(H  58,N   9,C   1,O   0)   -171.9433         0.032761   
    392. D(C  10,N   9,C   1,C   2)   -177.7402         0.032761   
    393. D(H  58,N   9,C   1,C   2)      8.5959         0.032761   
    394. D(C  10,N   9,C   1,O   0)      1.7206         0.032761   
    395. D(H  59,C  10,N   9,C   1)    -24.1616         0.018005   
    396. D(C  48,C  10,N   9,H  58)    -91.3053         0.018005   
    397. D(C  48,C  10,N   9,C   1)     95.0200         0.018005   
    398. D(C  11,C  10,N   9,C   1)   -143.6940         0.018005   
    399. D(H  59,C  10,N   9,H  58)    149.5131         0.018005   
    400. D(C  11,C  10,N   9,H  58)     29.9807         0.018005   
    401. D(O  47,C  11,C  10,N   9)    -22.9495         0.010183   
    402. D(N  12,C  11,C  10,H  59)     43.3334         0.010183   
    403. D(N  12,C  11,C  10,C  48)    -76.1564         0.010183   
    404. D(N  12,C  11,C  10,N   9)    160.9900         0.010183   
    405. D(O  47,C  11,C  10,H  59)   -140.6061         0.010183   
    406. D(O  47,C  11,C  10,C  48)     99.9042         0.010183   
    407. D(H  60,N  12,C  11,O  47)    169.0221         0.029900   
    408. D(H  60,N  12,C  11,C  10)    -14.8979         0.029900   
    409. D(C  13,N  12,C  11,O  47)      9.1536         0.029900   
    410. D(C  13,N  12,C  11,C  10)   -174.7663         0.029900   
    411. D(H  61,C  13,N  12,C  11)     50.0579         0.015645   
    412. D(H  61,C  13,N  12,H  60)   -109.9402         0.015645   
    413. D(C  45,C  13,N  12,H  60)     10.3020         0.015645   
    414. D(C  45,C  13,N  12,C  11)    170.3001         0.015645   
    415. D(C  14,C  13,N  12,C  11)    -66.0250         0.015645   
    416. D(C  14,C  13,N  12,H  60)    133.9769         0.015645   
    417. D(O  44,C  14,C  13,C  45)    -86.8157         0.009894   
    418. D(O  44,C  14,C  13,N  12)    150.6228         0.009894   
    419. D(N  15,C  14,C  13,H  61)   -152.0031         0.009894   
    420. D(N  15,C  14,C  13,C  45)     89.3774         0.009894   
    421. D(O  44,C  14,C  13,H  61)     31.8038         0.009894   
    422. D(N  15,C  14,C  13,N  12)    -33.1841         0.009894   
    423. D(H  62,N  15,C  14,O  44)   -176.5755         0.031237   
    424. D(H  62,N  15,C  14,C  13)      7.3737         0.031237   
    425. D(C  16,N  15,C  14,O  44)     -1.6220         0.031237   
    426. D(C  16,N  15,C  14,C  13)   -177.6728         0.031237   
    427. D(H  64,C  16,N  15,H  62)   -167.1959         0.016824   
    428. D(H  64,C  16,N  15,C  14)     17.9646         0.016824   
    429. D(H  63,C  16,N  15,H  62)    -49.7918         0.016824   
    430. D(H  63,C  16,N  15,C  14)    135.3688         0.016824   
    431. D(C  17,C  16,N  15,C  14)   -104.0654         0.016824   
    432. D(C  17,C  16,N  15,H  62)     70.7740         0.016824   
    433. D(H  65,C  17,C  16,H  64)   -179.4021         0.010194   
    434. D(H  65,C  17,C  16,H  63)     63.0870         0.010194   
    435. D(H  65,C  17,C  16,N  15)    -58.8614         0.010194   
    436. D(O  43,C  17,C  16,H  64)     65.5998         0.010194   
    437. D(O  43,C  17,C  16,H  63)    -51.9111         0.010194   
    438. D(O  43,C  17,C  16,N  15)   -173.8596         0.010194   
    439. D(C  18,C  17,C  16,H  64)    -59.8125         0.010194   
    440. D(C  18,C  17,C  16,H  63)   -177.3234         0.010194   
    441. D(C  18,C  17,C  16,N  15)     60.7281         0.010194   
    442. D(H  66,C  18,C  17,H  65)     59.5739         0.009453   
    443. D(H  66,C  18,C  17,O  43)    176.1315         0.009453   
    444. D(H  66,C  18,C  17,C  16)    -59.7539         0.009453   
    445. D(C  32,C  18,C  17,O  43)    -62.6099         0.009453   
    446. D(C  32,C  18,C  17,C  16)     61.5047         0.009453   
    447. D(C  32,C  18,C  17,H  65)   -179.1676         0.009453   
    448. D(C  19,C  18,C  17,H  65)    -59.3988         0.009453   
    449. D(C  19,C  18,C  17,O  43)     57.1589         0.009453   
    450. D(C  19,C  18,C  17,C  16)   -178.7265         0.009453   
    451. D(O  31,C  19,C  18,H  66)    127.8838         0.009456   
    452. D(O  31,C  19,C  18,C  32)      8.4080         0.009456   
    453. D(O  31,C  19,C  18,C  17)   -112.6752         0.009456   
    454. D(N  20,C  19,C  18,H  66)    -51.9344         0.009456   
    455. D(N  20,C  19,C  18,C  17)     67.5066         0.009456   
    456. D(N  20,C  19,C  18,C  32)   -171.4102         0.009456   
    457. D(H  67,N  20,C  19,O  31)    173.1887         0.028891   
    458. D(H  67,N  20,C  19,C  18)     -6.9928         0.028891   
    459. D(C  21,N  20,C  19,O  31)     15.5308         0.028891   
    460. D(C  21,N  20,C  19,C  18)   -164.6507         0.028891   
    461. D(H  68,C  21,N  20,H  67)   -177.0300         0.015864   
    462. D(H  68,C  21,N  20,C  19)    -19.1799         0.015864   
    463. D(C  27,C  21,N  20,H  67)    -57.3835         0.015864   
    464. D(C  27,C  21,N  20,C  19)    100.4665         0.015864   
    465. D(C  22,C  21,N  20,H  67)     66.9338         0.015864   
    466. D(C  22,C  21,N  20,C  19)   -135.2161         0.015864   
    467. D(N  23,C  22,C  21,C  27)    151.6599         0.009589   
    468. D(N  23,C  22,C  21,N  20)     26.5201         0.009589   
    469. D(O  26,C  22,C  21,H  68)     91.2373         0.009589   
    470. D(O  26,C  22,C  21,C  27)    -28.7321         0.009589   
    471. D(O  26,C  22,C  21,N  20)   -153.8718         0.009589   
    472. D(N  23,C  22,C  21,H  68)    -88.3707         0.009589   
    473. D(H  69,N  23,C  22,O  26)    175.7498         0.032057   
    474. D(H  69,N  23,C  22,C  21)     -4.6445         0.032057   
    475. D(C  24,N  23,C  22,O  26)      8.5005         0.032057   
    476. D(C  24,N  23,C  22,C  21)   -171.8938         0.032057   
    477. D(H  70,C  24,N  23,H  69)   -140.6717         0.017081   
    478. D(H  70,C  24,N  23,C  22)     27.0913         0.017081   
    479. D(C  25,C  24,N  23,H  69)     99.8401         0.017081   
    480. D(C  25,C  24,N  23,C  22)    -92.3970         0.017081   
    481. D(C   7,C  24,N  23,H  69)    -22.1546         0.017081   
    482. D(C   7,C  24,N  23,C  22)    145.6083         0.017081   
    483. D(H  70,C  24,C   7,O   8)    145.1915         0.010506   
    484. D(H  70,C  24,C   7,N   6)    -33.8717         0.010506   
    485. D(C  25,C  24,C   7,O   8)    -93.3800         0.010506   
    486. D(C  25,C  24,C   7,N   6)     87.5567         0.010506   
    487. D(N  23,C  24,C   7,O   8)     29.3351         0.010506   
    488. D(N  23,C  24,C   7,N   6)   -149.7282         0.010506   
    489. D(H  73,C  25,C  24,H  70)   -177.9527         0.010590   
    490. D(H  73,C  25,C  24,N  23)    -59.3587         0.010590   
    491. D(H  73,C  25,C  24,C   7)     59.2327         0.010590   
    492. D(H  72,C  25,C  24,H  70)     61.4124         0.010590   
    493. D(H  72,C  25,C  24,N  23)   -179.9937         0.010590   
    494. D(H  72,C  25,C  24,C   7)    -61.4023         0.010590   
    495. D(H  71,C  25,C  24,H  70)    -58.2267         0.010590   
    496. D(H  71,C  25,C  24,N  23)     60.3673         0.010590   
    497. D(H  71,C  25,C  24,C   7)    178.9587         0.010590   
    498. D(H  75,C  27,C  21,H  68)    175.3453         0.010878   
    499. D(H  75,C  27,C  21,C  22)    -66.3922         0.010878   
    500. D(H  75,C  27,C  21,N  20)     58.4822         0.010878   
    501. D(H  74,C  27,C  21,H  68)    -70.8021         0.010878   
    502. D(H  74,C  27,C  21,C  22)     47.4603         0.010878   
    503. D(H  74,C  27,C  21,N  20)    172.3347         0.010878   
    504. D(C  28,C  27,C  21,H  68)     52.5510         0.010878   
    505. D(C  28,C  27,C  21,C  22)    170.8134         0.010878   
    506. D(C  28,C  27,C  21,N  20)    -64.3122         0.010878   
    507. D(H  76,C  28,C  27,H  75)    -66.5772         0.010784   
    508. D(H  76,C  28,C  27,H  74)    177.1755         0.010784   
    509. D(H  76,C  28,C  27,C  21)     55.4117         0.010784   
    510. D(C  30,C  28,C  27,H  75)    174.3532         0.010784   
    511. D(C  30,C  28,C  27,H  74)     58.1059         0.010784   
    512. D(C  30,C  28,C  27,C  21)    -63.6579         0.010784   
    513. D(C  29,C  28,C  27,H  75)     50.9148         0.010784   
    514. D(C  29,C  28,C  27,H  74)    -65.3325         0.010784   
    515. D(C  29,C  28,C  27,C  21)    172.9037         0.010784   
    516. D(H  79,C  29,C  28,C  30)     58.3094         0.010910   
    517. D(H  79,C  29,C  28,C  27)   -177.5938         0.010910   
    518. D(H  78,C  29,C  28,H  76)   -179.1338         0.010910   
    519. D(H  78,C  29,C  28,C  30)    -61.5581         0.010910   
    520. D(H  78,C  29,C  28,C  27)     62.5387         0.010910   
    521. D(H  77,C  29,C  28,H  76)     60.8534         0.010910   
    522. D(H  77,C  29,C  28,C  30)    178.4292         0.010910   
    523. D(H  79,C  29,C  28,H  76)    -59.2663         0.010910   
    524. D(H  77,C  29,C  28,C  27)    -57.4741         0.010910   
    525. D(H  82,C  30,C  28,H  76)   -177.5629         0.010938   
    526. D(H  82,C  30,C  28,C  29)     64.9156         0.010938   
    527. D(H  82,C  30,C  28,C  27)    -57.7592         0.010938   
    528. D(H  81,C  30,C  28,H  76)     62.9882         0.010938   
    529. D(H  81,C  30,C  28,C  29)    -54.5333         0.010938   
    530. D(H  81,C  30,C  28,C  27)   -177.2081         0.010938   
    531. D(H  80,C  30,C  28,H  76)    -56.1936         0.010938   
    532. D(H  80,C  30,C  28,C  29)   -173.7151         0.010938   
    533. D(H  80,C  30,C  28,C  27)     63.6101         0.010938   
    534. D(O  42,C  32,C  18,H  66)    156.4302         0.010120   
    535. D(O  42,C  32,C  18,C  19)    -84.7530         0.010120   
    536. D(O  42,C  32,C  18,C  17)     35.3463         0.010120   
    537. D(C  33,C  32,C  18,H  66)    -23.8297         0.010120   
    538. D(C  33,C  32,C  18,C  19)     94.9871         0.010120   
    539. D(C  33,C  32,C  18,C  17)   -144.9136         0.010120   
    540. D(H  84,C  33,C  32,O  42)   -132.6352         0.012432   
    541. D(H  84,C  33,C  32,C  18)     47.6299         0.012432   
    542. D(H  83,C  33,C  32,O  42)    -16.4581         0.012432   
    543. D(H  83,C  33,C  32,C  18)    163.8070         0.012432   
    544. D(C  34,C  33,C  32,O  42)    104.2703         0.012432   
    545. D(C  34,C  33,C  32,C  18)    -75.4646         0.012432   
    546. D(H  86,C  34,C  33,H  84)     84.0571         0.009750   
    547. D(H  86,C  34,C  33,H  83)    -34.8263         0.009750   
    548. D(H  86,C  34,C  33,C  32)   -153.4145         0.009750   
    549. D(H  85,C  34,C  33,H  84)   -160.9206         0.009750   
    550. D(H  85,C  34,C  33,H  83)     80.1960         0.009750   
    551. D(H  85,C  34,C  33,C  32)    -38.3923         0.009750   
    552. D(C  35,C  34,C  33,H  84)    -36.2482         0.009750   
    553. D(C  35,C  34,C  33,H  83)   -155.1316         0.009750   
    554. D(C  35,C  34,C  33,C  32)     86.2801         0.009750   
    555. D(H  88,C  35,C  34,H  86)    178.0005         0.011195   
    556. D(H  88,C  35,C  34,H  85)     62.0877         0.011195   
    557. D(H  88,C  35,C  34,C  33)    -62.3775         0.011195   
    558. D(H  87,C  35,C  34,H  86)    -65.7195         0.011195   
    559. D(H  87,C  35,C  34,H  85)    178.3677         0.011195   
    560. D(H  87,C  35,C  34,C  33)     53.9025         0.011195   
    561. D(C  36,C  35,C  34,H  86)     56.6024         0.011195   
    562. D(C  36,C  35,C  34,H  85)    -59.3104         0.011195   
    563. D(C  36,C  35,C  34,C  33)    176.2244         0.011195   
    564. D(H  90,C  36,C  35,H  87)     63.8454         0.011016   
    565. D(H  90,C  36,C  35,C  34)    -57.7315         0.011016   
    566. D(H  89,C  36,C  35,H  88)    -65.2629         0.011016   
    567. D(H  89,C  36,C  35,H  87)    178.9227         0.011016   
    568. D(H  89,C  36,C  35,C  34)     57.3459         0.011016   
    569. D(C  37,C  36,C  35,H  88)     56.9981         0.011016   
    570. D(C  37,C  36,C  35,H  87)    -58.8163         0.011016   
    571. D(H  90,C  36,C  35,H  88)    179.6597         0.011016   
    572. D(C  37,C  36,C  35,C  34)    179.6069         0.011016   
    573. D(H  92,C  37,C  36,H  90)     63.0701         0.011003   
    574. D(H  92,C  37,C  36,H  89)    -52.4817         0.011003   
    575. D(H  92,C  37,C  36,C  35)   -174.4068         0.011003   
    576. D(H  91,C  37,C  36,H  90)    178.7337         0.011003   
    577. D(H  91,C  37,C  36,H  89)     63.1819         0.011003   
    578. D(H  91,C  37,C  36,C  35)    -58.7432         0.011003   
    579. D(C  38,C  37,C  36,H  90)    -59.4911         0.011003   
    580. D(C  38,C  37,C  36,H  89)   -175.0429         0.011003   
    581. D(C  38,C  37,C  36,C  35)     63.0320         0.011003   
    582. D(H  94,C  38,C  37,H  92)    174.3580         0.011125   
    583. D(H  94,C  38,C  37,H  91)     58.7805         0.011125   
    584. D(H  94,C  38,C  37,C  36)    -63.2171         0.011125   
    585. D(H  93,C  38,C  37,H  92)    -68.9584         0.011125   
    586. D(H  93,C  38,C  37,H  91)    175.4641         0.011125   
    587. D(H  93,C  38,C  37,C  36)     53.4665         0.011125   
    588. D(C  39,C  38,C  37,H  92)     53.3801         0.011125   
    589. D(C  39,C  38,C  37,H  91)    -62.1974         0.011125   
    590. D(C  39,C  38,C  37,C  36)    175.8050         0.011125   
    591. D(H  95,C  39,C  38,H  94)    -68.0074         0.011234   
    592. D(H  95,C  39,C  38,H  93)    175.7936         0.011234   
    593. D(H  95,C  39,C  38,C  37)     53.4772         0.011234   
    594. D(C  40,C  39,C  38,H  94)     53.2319         0.011234   
    595. D(C  40,C  39,C  38,H  93)    -62.9670         0.011234   
    596. D(C  40,C  39,C  38,C  37)    174.7165         0.011234   
    597. D(H  96,C  39,C  38,H  94)    176.3036         0.011234   
    598. D(H  96,C  39,C  38,H  93)     60.1047         0.011234   
    599. D(H  96,C  39,C  38,C  37)    -62.2118         0.011234   
    600. D(H  98,C  40,C  39,H  95)     67.0284         0.011199   
    601. D(H  98,C  40,C  39,C  38)    -54.2678         0.011199   
    602. D(H  97,C  40,C  39,H  96)    -62.5563         0.011199   
    603. D(H  97,C  40,C  39,H  95)   -177.9732         0.011199   
    604. D(H  97,C  40,C  39,C  38)     60.7307         0.011199   
    605. D(C  41,C  40,C  39,H  96)     60.1863         0.011199   
    606. D(C  41,C  40,C  39,H  95)    -55.2306         0.011199   
    607. D(H  98,C  40,C  39,H  96)   -177.5547         0.011199   
    608. D(C  41,C  40,C  39,C  38)   -176.5268         0.011199   
    609. D(H 101,C  41,C  40,H  98)    -64.3534         0.011203   
    610. D(H 101,C  41,C  40,H  97)    179.8834         0.011203   
    611. D(H 101,C  41,C  40,C  39)     57.2385         0.011203   
    612. D(H 100,C  41,C  40,H  98)    176.6511         0.011203   
    613. D(H 100,C  41,C  40,H  97)     60.8879         0.011203   
    614. D(H 100,C  41,C  40,C  39)    -61.7570         0.011203   
    615. D(H  99,C  41,C  40,H  98)     56.0517         0.011203   
    616. D(H  99,C  41,C  40,H  97)    -59.7115         0.011203   
    617. D(H  99,C  41,C  40,C  39)    177.6436         0.011203   
    618. D(H 102,O  43,C  17,H  65)    162.6457         0.020289   
    619. D(H 102,O  43,C  17,C  18)     44.9550         0.020289   
    620. D(H 102,O  43,C  17,C  16)    -81.4472         0.020289   
    621. D(H 104,C  45,C  13,H  61)     66.6427         0.010517   
    622. D(H 104,C  45,C  13,C  14)   -177.9553         0.010517   
    623. D(H 104,C  45,C  13,N  12)    -53.2209         0.010517   
    624. D(H 103,C  45,C  13,H  61)   -178.0468         0.010517   
    625. D(H 103,C  45,C  13,C  14)    -62.6448         0.010517   
    626. D(H 103,C  45,C  13,N  12)     62.0896         0.010517   
    627. D(C  46,C  45,C  13,H  61)    -54.8753         0.010517   
    628. D(C  46,C  45,C  13,C  14)     60.5267         0.010517   
    629. D(C  46,C  45,C  13,N  12)   -174.7389         0.010517   
    630. D(H 107,C  46,C  45,H 104)    -61.1171         0.011315   
    631. D(H 107,C  46,C  45,H 103)   -178.3651         0.011315   
    632. D(H 107,C  46,C  45,C  13)     59.2781         0.011315   
    633. D(H 106,C  46,C  45,H 104)    179.2172         0.011315   
    634. D(H 106,C  46,C  45,H 103)     61.9692         0.011315   
    635. D(H 106,C  46,C  45,C  13)    -60.3877         0.011315   
    636. D(H 105,C  46,C  45,H 104)     58.6702         0.011315   
    637. D(H 105,C  46,C  45,H 103)    -58.5778         0.011315   
    638. D(H 105,C  46,C  45,C  13)    179.0653         0.011315   
    639. D(H 108,C  48,C  10,H  59)    -59.8837         0.009009   
    640. D(H 108,C  48,C  10,C  11)     61.2250         0.009009   
    641. D(H 108,C  48,C  10,N   9)   -178.9279         0.009009   
    642. D(C  50,C  48,C  10,H  59)     57.7575         0.009009   
    643. D(C  50,C  48,C  10,C  11)    178.8662         0.009009   
    644. D(C  50,C  48,C  10,N   9)    -61.2867         0.009009   
    645. D(C  49,C  48,C  10,H  59)   -177.9441         0.009009   
    646. D(C  49,C  48,C  10,C  11)    -56.8354         0.009009   
    647. D(C  49,C  48,C  10,N   9)     63.0117         0.009009   
    648. D(H 111,C  49,C  48,C  50)     63.1474         0.011008   
    649. D(H 111,C  49,C  48,C  10)    -61.1936         0.011008   
    650. D(H 110,C  49,C  48,H 108)     62.6393         0.011008   
    651. D(H 110,C  49,C  48,C  50)    -56.3936         0.011008   
    652. D(H 110,C  49,C  48,C  10)    179.2654         0.011008   
    653. D(H 109,C  49,C  48,H 108)    -58.0829         0.011008   
    654. D(H 109,C  49,C  48,C  50)   -177.1158         0.011008   
    655. D(H 111,C  49,C  48,H 108)   -177.8198         0.011008   
    656. D(H 109,C  49,C  48,C  10)     58.5432         0.011008   
    657. D(H 114,C  50,C  48,H 108)    -59.2311         0.011137   
    658. D(H 114,C  50,C  48,C  49)     59.8928         0.011137   
    659. D(H 114,C  50,C  48,C  10)   -175.5139         0.011137   
    660. D(H 113,C  50,C  48,H 108)   -178.2544         0.011137   
    661. D(H 113,C  50,C  48,C  49)    -59.1305         0.011137   
    662. D(H 113,C  50,C  48,C  10)     65.4628         0.011137   
    663. D(H 112,C  50,C  48,H 108)     62.0148         0.011137   
    664. D(H 112,C  50,C  48,C  49)   -178.8613         0.011137   
    665. D(H 112,C  50,C  48,C  10)    -54.2680         0.011137   
    -----------------------------------------------------------------

Number of atoms                         .... 115
Number of degrees of freedom            .... 665

         *************************************************************
         *                GEOMETRY OPTIMIZATION CYCLE   1            *
         *************************************************************
---------------------------------
CARTESIAN COORDINATES (ANGSTROEM)
---------------------------------
  O     -0.308207    4.199507   -2.771151
  C     -0.412547    3.518912   -1.749297
  C     -0.803904    4.137648   -0.376520
  C     -0.819436    5.663164   -0.429639
  C      0.641627    6.033934   -0.136578
  C      1.066293    5.023224    0.936229
  N      0.216389    3.847240    0.658851
  C      0.262958    2.655334    1.288870
  O     -0.507173    1.720072    0.992189
  N     -0.193900    2.182253   -1.691643
  C      0.226407    1.399904   -2.829961
  C     -0.465165    0.034593   -2.732101
  N     -0.518562   -0.682137   -3.895128
  C     -1.250656   -1.946855   -3.959516
  C     -0.619985   -3.044482   -3.086361
  N      0.736498   -3.007093   -2.973892
  C      1.482633   -4.003877   -2.225153
  C      1.985546   -3.517767   -0.849819
  C      0.841116   -3.094771    0.112871
  C      1.451137   -2.597283    1.441794
  N      2.152420   -1.424778    1.321172
  C      3.074011   -0.941401    2.346408
  C      2.876717    0.563971    2.618706
  N      1.628976    1.030316    2.352493
  C      1.308917    2.445066    2.384183
  C      0.789340    2.904216    3.756338
  O      3.781220    1.280420    3.050846
  C      4.535738   -1.234478    1.987186
  C      4.896365   -2.724366    1.911968
  C      6.324258   -2.879509    1.375921
  C      4.743496   -3.421235    3.268493
  O      1.318826   -3.191814    2.506375
  C     -0.087774   -4.279312    0.410806
  C     -1.561420   -4.036242    0.595016
  C     -1.925218   -3.404411    1.962326
  C     -1.854028   -1.877937    2.022959
  C     -2.320180   -1.352045    3.383886
  C     -2.270552    0.171919    3.530809
  C     -3.191661    0.930629    2.572926
  C     -3.192494    2.439949    2.816407
  C     -4.006985    3.225913    1.788022
  C     -3.929303    4.739098    1.994844
  O      0.388164   -5.409294    0.499185
  O      2.813523   -4.513804   -0.274639
  O     -1.321126   -3.927778   -2.596237
  C     -1.343244   -2.396804   -5.427736
  C     -2.197805   -3.645341   -5.639994
  O     -0.877934   -0.421068   -1.666352
  C      1.775287    1.211344   -2.887344
  C      2.290700    0.429884   -1.674904
  C      2.488526    2.559123   -3.013581
  H     -1.759437    3.696444   -0.057253
  H     -1.489860    6.054518    0.348467
  H     -1.157045    6.016944   -1.409627
  H      1.241666    5.896604   -1.047023
  H      0.768386    7.068907    0.203547
  H      2.131191    4.760607    0.877433
  H      0.862204    5.403314    1.949504
  H     -0.429723    1.684221   -0.818377
  H     -0.087907    1.933248   -3.741770
  H     -0.323376   -0.201865   -4.769985
  H     -2.260987   -1.805375   -3.544995
  H      1.219050   -2.205611   -3.370095
  H      2.363443   -4.320511   -2.801962
  H      0.824974   -4.872890   -2.096670
  H      2.632946   -2.638830   -1.021137
  H      0.263389   -2.272464   -0.341350
  H      2.295920   -1.063871    0.381132
  H      2.795755   -1.479184    3.266761
  H      0.926556    0.419383    1.934932
  H      2.235888    2.992663    2.156918
  H      1.563951    2.717337    4.510331
  H      0.553859    3.977947    3.755654
  H     -0.116814    2.347894    4.027269
  H      5.167456   -0.723193    2.729189
  H      4.755645   -0.749984    1.018579
  H      4.216336   -3.222390    1.200171
  H      6.436574   -2.405886    0.388600
  H      7.054283   -2.412383    2.056590
  H      6.591920   -3.940725    1.272098
  H      3.701189   -3.415811    3.615547
  H      5.055088   -4.473281    3.197368
  H      5.371079   -2.934749    4.033066
  H     -2.043991   -5.017549    0.499392
  H     -1.922654   -3.395003   -0.223362
  H     -1.290476   -3.840289    2.748681
  H     -2.959839   -3.708315    2.189606
  H     -2.469374   -1.453588    1.213702
  H     -0.827515   -1.523865    1.837039
  H     -1.696622   -1.811261    4.168939
  H     -3.352023   -1.701368    3.568957
  H     -1.235134    0.514589    3.367972
  H     -2.526992    0.440490    4.570274
  H     -4.221489    0.541015    2.665821
  H     -2.874003    0.744246    1.535775
  H     -2.151447    2.803976    2.796128
  H     -3.571784    2.656838    3.830955
  H     -5.059777    2.898414    1.821584
  H     -3.646470    2.965974    0.777419
  H     -4.486194    5.289449    1.222830
  H     -4.339422    5.027794    2.974364
  H     -2.883706    5.084883    1.966518
  H      2.174383   -5.157448    0.124637
  H     -0.322254   -2.565799   -5.810020
  H     -1.766869   -1.557545   -6.005900
  H     -2.236065   -3.902292   -6.707217
  H     -1.797577   -4.505764   -5.089645
  H     -3.226838   -3.482707   -5.290279
  H      1.980139    0.621644   -3.798632
  H      1.817935   -0.561222   -1.608814
  H      3.379372    0.293569   -1.735104
  H      2.066687    0.973803   -0.744562
  H      2.115398    3.139659   -3.866918
  H      2.332379    3.163056   -2.108399
  H      3.570656    2.407279   -3.133216

----------------------------
CARTESIAN COORDINATES (A.U.)
----------------------------
  NO LB      ZA    FRAG     MASS         X           Y           Z
   0 O     8.0000    0    15.999   -0.582426    7.935918   -5.236716
   1 C     6.0000    0    12.011   -0.779601    6.649781   -3.305692
   2 C     6.0000    0    12.011   -1.519158    7.819022   -0.711520
   3 C     6.0000    0    12.011   -1.548510   10.701829   -0.811901
   4 C     6.0000    0    12.011    1.212499   11.402484   -0.258094
   5 C     6.0000    0    12.011    2.015003    9.492519    1.769216
   6 N     7.0000    0    14.007    0.408916    7.270230    1.245047
   7 C     6.0000    0    12.011    0.496919    5.017854    2.435612
   8 O     8.0000    0    15.999   -0.958418    3.250466    1.874966
   9 N     7.0000    0    14.007   -0.366418    4.123860   -3.196741
  10 C     6.0000    0    12.011    0.427847    2.645435   -5.347851
  11 C     6.0000    0    12.011   -0.879034    0.065371   -5.162923
  12 N     7.0000    0    14.007   -0.979939   -1.289053   -7.360725
  13 C     6.0000    0    12.011   -2.363397   -3.679022   -7.482401
  14 C     6.0000    0    12.011   -1.171602   -5.753238   -5.832377
  15 N     7.0000    0    14.007    1.391779   -5.682583   -5.619842
  16 C     6.0000    0    12.011    2.801770   -7.566232   -4.204929
  17 C     6.0000    0    12.011    3.752138   -6.647617   -1.605926
  18 C     6.0000    0    12.011    1.589479   -5.848269    0.213295
  19 C     6.0000    0    12.011    2.742251   -4.908154    2.724596
  20 N     7.0000    0    14.007    4.067485   -2.692441    2.496654
  21 C     6.0000    0    12.011    5.809039   -1.778990    4.434068
  22 C     6.0000    0    12.011    5.436207    1.065751    4.948637
  23 N     7.0000    0    14.007    3.078318    1.947014    4.445568
  24 C     6.0000    0    12.011    2.473494    4.620505    4.505452
  25 C     6.0000    0    12.011    1.491637    5.488172    7.098450
  26 O     8.0000    0    15.999    7.145471    2.419643    5.765263
  27 C     6.0000    0    12.011    8.571302   -2.332826    3.755237
  28 C     6.0000    0    12.011    9.252789   -5.148306    3.613097
  29 C     6.0000    0    12.011   11.951115   -5.441483    2.600114
  30 C     6.0000    0    12.011    8.963909   -6.465198    6.176557
  31 O     8.0000    0    15.999    2.492219   -6.031654    4.736362
  32 C     6.0000    0    12.011   -0.165870   -8.086728    0.776311
  33 C     6.0000    0    12.011   -2.950657   -7.627392    1.124418
  34 C     6.0000    0    12.011   -3.638135   -6.433405    3.708258
  35 C     6.0000    0    12.011   -3.503606   -3.548787    3.822838
  36 C     6.0000    0    12.011   -4.384506   -2.554994    6.394618
  37 C     6.0000    0    12.011   -4.290721    0.324879    6.672262
  38 C     6.0000    0    12.011   -6.031365    1.758634    4.862126
  39 C     6.0000    0    12.011   -6.032939    4.610836    5.322238
  40 C     6.0000    0    12.011   -7.572105    6.096093    3.378871
  41 C     6.0000    0    12.011   -7.425307    8.955598    3.769709
  42 O     8.0000    0    15.999    0.733523  -10.222084    0.943323
  43 O     8.0000    0    15.999    5.316789   -8.529854   -0.518993
  44 O     8.0000    0    15.999   -2.496566   -7.422424   -4.906177
  45 C     6.0000    0    12.011   -2.538363   -4.529303  -10.256935
  46 C     6.0000    0    12.011   -4.153249   -6.888696  -10.658043
  47 O     8.0000    0    15.999   -1.659055   -0.795703   -3.148949
  48 C     6.0000    0    12.011    3.354806    2.289109   -5.456289
  49 C     6.0000    0    12.011    4.328796    0.812364   -3.165110
  50 C     6.0000    0    12.011    4.702633    4.836042   -5.694843
  51 H     1.0000    0     1.008   -3.324854    6.985267   -0.108192
  52 H     1.0000    0     1.008   -2.815427   11.441382    0.658506
  53 H     1.0000    0     1.008   -2.186499   11.370376   -2.663809
  54 H     1.0000    0     1.008    2.346409   11.142967   -1.978587
  55 H     1.0000    0     1.008    1.452039   13.358299    0.384648
  56 H     1.0000    0     1.008    4.027367    8.996243    1.658108
  57 H     1.0000    0     1.008    1.629330   10.210784    3.684030
  58 H     1.0000    0     1.008   -0.812060    3.182716   -1.546508
  59 H     1.0000    0     1.008   -0.166121    3.653308   -7.070921
  60 H     1.0000    0     1.008   -0.611092   -0.381469   -9.013966
  61 H     1.0000    0     1.008   -4.272646   -3.411665   -6.699070
  62 H     1.0000    0     1.008    2.303671   -4.168000   -6.368557
  63 H     1.0000    0     1.008    4.466260   -8.164583   -5.294941
  64 H     1.0000    0     1.008    1.558974   -9.208428   -3.962132
  65 H     1.0000    0     1.008    4.975547   -4.986666   -1.929670
  66 H     1.0000    0     1.008    0.497732   -4.294335   -0.645057
  67 H     1.0000    0     1.008    4.338660   -2.010424    0.720236
  68 H     1.0000    0     1.008    5.283211   -2.795253    6.173284
  69 H     1.0000    0     1.008    1.750938    0.792520    3.656491
  70 H     1.0000    0     1.008    4.225217    5.655313    4.075985
  71 H     1.0000    0     1.008    2.955439    5.135023    8.523291
  72 H     1.0000    0     1.008    1.046643    7.517230    7.097157
  73 H     1.0000    0     1.008   -0.220747    4.436876    7.610436
  74 H     1.0000    0     1.008    9.765076   -1.366637    5.157419
  75 H     1.0000    0     1.008    8.986866   -1.417264    1.924835
  76 H     1.0000    0     1.008    7.967720   -6.089434    2.267994
  77 H     1.0000    0     1.008   12.163362   -4.546466    0.734348
  78 H     1.0000    0     1.008   13.330662   -4.558744    3.886392
  79 H     1.0000    0     1.008   12.456923   -7.446891    2.403918
  80 H     1.0000    0     1.008    6.994233   -6.454947    6.832393
  81 H     1.0000    0     1.008    9.552732   -8.453276    6.042149
  82 H     1.0000    0     1.008   10.149868   -5.545872    7.621391
  83 H     1.0000    0     1.008   -3.862584   -9.481794    0.943714
  84 H     1.0000    0     1.008   -3.633289   -6.415627   -0.422092
  85 H     1.0000    0     1.008   -2.438647   -7.257095    5.194254
  86 H     1.0000    0     1.008   -5.593286   -7.007700    4.137756
  87 H     1.0000    0     1.008   -4.666440   -2.746883    2.293565
  88 H     1.0000    0     1.008   -1.563776   -2.879687    3.471500
  89 H     1.0000    0     1.008   -3.206151   -3.422787    7.878153
  90 H     1.0000    0     1.008   -6.334406   -3.215119    6.744351
  91 H     1.0000    0     1.008   -2.334064    0.972433    6.364545
  92 H     1.0000    0     1.008   -4.775323    0.832406    8.636565
  93 H     1.0000    0     1.008   -7.977459    1.022370    5.037672
  94 H     1.0000    0     1.008   -5.431079    1.406422    2.902195
  95 H     1.0000    0     1.008   -4.065646    5.298746    5.283916
  96 H     1.0000    0     1.008   -6.749694    5.020696    7.239455
  97 H     1.0000    0     1.008   -9.561593    5.477208    3.442296
  98 H     1.0000    0     1.008   -6.890829    5.604879    1.469109
  99 H     1.0000    0     1.008   -8.477677    9.995611    2.310815
 100 H     1.0000    0     1.008   -8.200320    9.501153    5.620733
 101 H     1.0000    0     1.008   -5.449415    9.609037    3.716180
 102 H     1.0000    0     1.008    4.108988   -9.746165    0.235530
 103 H     1.0000    0     1.008   -0.608972   -4.848658  -10.979347
 104 H     1.0000    0     1.008   -3.338899   -2.943333  -11.349506
 105 H     1.0000    0     1.008   -4.225551   -7.374264  -12.674804
 106 H     1.0000    0     1.008   -3.396928   -8.514660   -9.618035
 107 H     1.0000    0     1.008   -6.097840   -6.581363   -9.997179
 108 H     1.0000    0     1.008    3.741921    1.174737   -7.178374
 109 H     1.0000    0     1.008    3.435399   -1.060555   -3.040218
 110 H     1.0000    0     1.008    6.386088    0.554764   -3.278872
 111 H     1.0000    0     1.008    3.905473    1.840220   -1.407019
 112 H     1.0000    0     1.008    3.997523    5.933095   -7.307415
 113 H     1.0000    0     1.008    4.407557    5.977309   -3.984296
 114 H     1.0000    0     1.008    6.747562    4.549097   -5.920919

--------------------------------
INTERNAL COORDINATES (ANGSTROEM)
--------------------------------
 O      0   0   0     0.000000000000     0.00000000     0.00000000
 C      1   0   0     1.232185598213     0.00000000     0.00000000
 C      2   1   0     1.555798839677   122.23399711     0.00000000
 C      3   2   1     1.526519347135   111.67186236   351.25741648
 C      4   3   2     1.535598145281   103.00107462   273.67238075
 C      5   4   3     1.533880700499   103.75677640   321.35151752
 N      6   5   4     1.477232369272   103.52904313    28.35134132
 C      7   6   5     1.348974891579   126.57146519   176.09971507
 O      8   7   6     1.247331558988   122.01254027   179.33318092
 N      2   1   3     1.355650758514   124.48712878   180.58557143
 C     10   2   1     1.443778358034   123.20983768     1.72058612
 C     11  10   2     1.533598013534   107.50724061   216.30599670
 N     12  11  10     1.367181215653   115.47028120   160.98995167
 C     13  12  11     1.462743182361   120.68118295   185.23368964
 C     14  13  12     1.537833495811   112.76017994   293.97498162
 N     15  14  13     1.361650938027   115.83913074   326.81591408
 C     16  15  14     1.452895788743   122.36620981   182.32717564
 C     17  16  15     1.542973052267   114.24214961   255.93457136
 C     18  17  16     1.554161710416   113.44481367    60.72810979
 C     19  18  17     1.544557323650   109.25584967   181.27346063
 N     20  19  18     1.371537602590   113.67970944    67.50658957
 C     21  20  19     1.460852971746   122.93680509   195.34934697
 C     22  21  20     1.542470695168   111.47711788   224.78387296
 N     23  22  21     1.358383056510   114.70487473    26.52011118
 C     24  23  22     1.450848195104   122.21644780   188.10622880
 C     25  24  23     1.537396824575   112.66060800   267.60300036
 O     23  22  21     1.232140615367   122.37783149   206.12819015
 C     22  21  20     1.533486052446   111.94392844   100.46654237
 C     28  22  21     1.534755845743   114.89711152   295.68782777
 C     29  28  22     1.533066797138   109.52567916   172.90368905
 C     29  28  22     1.532695167492   111.99741801   296.34206468
 O     20  19  18     1.226501198137   123.23461349   247.32478682
 C     19  18  17     1.534516469491   110.84943587    61.50466031
 C     33  19  18     1.504874843442   119.46239819   215.08635052
 C     34  33  19     1.549546475341   113.81460416   284.53543991
 C     35  34  33     1.529335581597   115.53385291    86.28011189
 C     36  35  34     1.531660803577   111.33162614   176.22443137
 C     37  36  35     1.531833647753   114.64188580   179.60691767
 C     38  37  36     1.530236321822   114.43901109    63.03202409
 C     39  38  37     1.528833625628   112.96198611   175.80501805
 C     40  39  38     1.529285039761   113.61423822   174.71652395
 C     41  40  39     1.529228236147   112.98855045   183.47322383
 O     33  19  18     1.229303475322   119.28545766    35.34626159
 O     18  17  16     1.417204314318   109.31508909   186.14041257
 O     15  14  13     1.229646616926   120.34342918   150.62278796
 C     14  13  12     1.538407575331   108.96642537   170.30011257
 C     46  14  13     1.527799652894   113.90813404   185.26105103
 O     12  11  10     1.230376549884   122.42944162   337.05048606
 C     11  10   2     1.561370362749   112.53221926    95.02002874
 C     49  11  10     1.531776517732   111.48818857    63.01172782
 C     49  11  10     1.530083046708   111.04313197   298.71333347
 H      3   2   1     1.099834562514   108.36945706   117.26774599
 H      4   3   2     1.099124731115   109.71842525   155.34866052
 H      4   3   2     1.095224009823   110.92106313    34.49969694
 H      5   4   3     1.099007833847   109.34218767    78.95605518
 H      5   4   3     1.096777653831   113.39025052   199.73830658
 H      6   5   4     1.098376951857   112.86277682   148.37836038
 H      6   5   4     1.101293578576   111.39451205   270.26260998
 H     10   2   1     1.032589858172   118.33911004   188.05669749
 H     11  10   2     1.102109427496   107.88083054   335.83840306
 H     13  12  11     1.016923675530   118.47334658   345.10212618
 H     14  13  12     1.101186816017   109.36253752    50.05790286
 H     16  15  14     1.015976549774   117.55578860     7.37370784
 H     17  16  15     1.099451154946   109.79399426   135.36880231
 H     17  16  15     1.097363366103   107.20948033    17.96464119
 H     18  17  16     1.104991877514   107.65974746   301.13857313
 H     19  18  17     1.102847878106   109.48516197   300.24612095
 H     21  20  19     1.017114399275   117.17844983   353.00723234
 H     22  21  20     1.101675309698   105.39283684   340.82005378
 H     24  23  22     1.020288332191   120.46516711   355.35552208
 H     25  24  23     1.100358072461   107.15274381    27.09127839
 H     26  25  24     1.097018969799   108.90060946    60.36727800
 H     26  25  24     1.099249722318   111.31914982   180.00633660
 H     26  25  24     1.097275331201   110.36806710   300.64132390
 H     28  22  21     1.100476602631   107.48392899   172.33471555
 H     28  22  21     1.105121334220   108.13182227    58.48216619
 H     29  28  22     1.103233019571   108.96605609    55.41167209
 H     30  29  28     1.100788393461   111.41410891   302.52590798
 H     30  29  28     1.102022391582   110.98552980    62.53868804
 H     30  29  28     1.099364417940   110.94515255   182.40616939
 H     31  29  28     1.098581208572   111.83803404    63.61012173
 H     31  29  28     1.099522085015   110.45793668   182.79192100
 H     31  29  28     1.102316098225   110.88161458   302.24079941
 H     34  33  19     1.097716786247   105.98792883   163.80704743
 H     34  33  19     1.100644979146   108.93390831    47.62992011
 H     35  34  33     1.100564038205   109.48594937   321.60771087
 H     35  34  33     1.102022990724   106.85534354   206.58546080
 H     36  35  34     1.101643221764   109.22937149    53.90251579
 H     36  35  34     1.101664213967   110.94550141   297.62252999
 H     37  36  35     1.102729287900   108.51068452    57.34591933
 H     37  36  35     1.104978521151   108.93372046   302.26854464
 H     38  37  36     1.102737255996   108.99018061   301.25682180
 H     38  37  36     1.103801805369   108.95712319   185.59324848
 H     39  38  37     1.104977244198   109.48461594    53.46653120
 H     39  38  37     1.100602830372   109.40151611   296.78292007
 H     40  39  38     1.103043124859   108.80605546    53.47715226
 H     40  39  38     1.104630345109   109.89500887   297.78822806
 H     41  40  39     1.103065119554   109.58910850    60.73068074
 H     41  40  39     1.104018547222   108.70142189   305.73222725
 H     42  41  40     1.099553906816   111.99865247   177.64356499
 H     42  41  40     1.100455033058   111.16417429   298.24299428
 H     42  41  40     1.101654603091   110.81310627    57.23851488
 H     44  18  17     0.991059919597   104.07432067   278.55275227
 H     46  14  13     1.103231791311   108.65133651    62.08958381
 H     46  14  13     1.103670188842   107.49657422   306.77907001
 H     47  46  14     1.098387234442   110.22128394   179.06533238
 H     47  46  14     1.096993085161   111.54352510   299.61233116
 H     47  46  14     1.098935311469   111.01480859    59.27805715
 H     49  11  10     1.104607254038   106.18619832   181.07212772
 H     50  49  11     1.100075582670   111.25864781    58.54321038
 H     50  49  11     1.098823732270   110.68909721   179.26540528
 H     50  49  11     1.100711043990   110.39151262   298.80638465
 H     51  49  11     1.097464791295   111.81548914   305.73199689
 H     51  49  11     1.099305145498   110.47345581    65.46280324
 H     51  49  11     1.099260625699   110.25403249   184.48608910

---------------------------
INTERNAL COORDINATES (A.U.)
---------------------------
 O      0   0   0     0.000000000000     0.00000000     0.00000000
 C      1   0   0     2.328493326784     0.00000000     0.00000000
 C      2   1   0     2.940033726461   122.23399711     0.00000000
 C      3   2   1     2.884703504217   111.67186236   351.25741648
 C      4   3   2     2.901859946338   103.00107462   273.67238075
 C      5   4   3     2.898614446051   103.75677640   321.35151752
 N      6   5   4     2.791564614088   103.52904313    28.35134132
 C      7   6   5     2.549193106621   126.57146519   176.09971507
 O      8   7   6     2.357115044684   122.01254027   179.33318092
 N      2   1   3     2.561808666835   124.48712878   180.58557143
 C     10   2   1     2.728345694767   123.20983768     1.72058612
 C     11  10   2     2.898080245105   107.50724061   216.30599670
 N     12  11  10     2.583598073025   115.47028120   160.98995167
 C     13  12  11     2.764184018922   120.68118295   185.23368964
 C     14  13  12     2.906084146653   112.76017994   293.97498162
 N     15  14  13     2.573147362868   115.83913074   326.81591408
 C     16  15  14     2.745575141851   122.36620981   182.32717564
 C     17  16  15     2.915796500805   114.24214961   255.93457136
 C     18  17  16     2.936940000513   113.44481367    60.72810979
 C     19  18  17     2.918790339841   109.25584967   181.27346063
 N     20  19  18     2.591830451271   113.67970944    67.50658957
 C     21  20  19     2.760612038525   122.93680509   195.34934697
 C     22  21  20     2.914847183467   111.47711788   224.78387296
 N     23  22  21     2.566971961763   114.70487473    26.52011118
 C     24  23  22     2.741705750640   122.21644780   188.10622880
 C     25  24  23     2.905258957607   112.66060800   267.60300036
 O     23  22  21     2.328408321524   122.37783149   206.12819015
 C     22  21  20     2.897868669311   111.94392844   100.46654237
 C     28  22  21     2.900268230890   114.89711152   295.68782777
 C     29  28  22     2.897076391599   109.52567916   172.90368905
 C     29  28  22     2.896374113344   111.99741801   296.34206468
 O     20  19  18     2.317751367406   123.23461349   247.32478682
 C     19  18  17     2.899815875329   110.84943587    61.50466031
 C     33  19  18     2.843801319932   119.46239819   215.08635052
 C     34  33  19     2.928218470177   113.81460416   284.53543991
 C     35  34  33     2.890025416079   115.53385291    86.28011189
 C     36  35  34     2.894419448822   111.33162614   176.22443137
 C     37  36  35     2.894746076978   114.64188580   179.60691767
 C     38  37  36     2.891727568423   114.43901109    63.03202409
 C     39  38  37     2.889076856767   112.96198611   175.80501805
 C     40  39  38     2.889929905852   113.61423822   174.71652395
 C     41  40  39     2.889822562577   112.98855045   183.47322383
 O     33  19  18     2.323046903836   119.28545766    35.34626159
 O     18  17  16     2.678128029873   109.31508909   186.14041257
 O     15  14  13     2.323695347494   120.34342918   150.62278796
 C     14  13  12     2.907168999725   108.96642537   170.30011257
 C     46  14  13     2.887122931469   113.90813404   185.26105103
 O     12  11  10     2.325074720879   122.42944162   337.05048606
 C     11  10   2     2.950562379217   112.53221926    95.02002874
 C     49  11  10     2.894638116885   111.48818857    63.01172782
 C     49  11  10     2.891437920435   111.04313197   298.71333347
 H      3   2   1     2.078386115773   108.36945706   117.26774599
 H      4   3   2     2.077044728828   109.71842525   155.34866052
 H      4   3   2     2.069673433860   110.92106313    34.49969694
 H      5   4   3     2.076823825005   109.34218767    78.95605518
 H      5   4   3     2.072609395546   113.39025052   199.73830658
 H      6   5   4     2.075631630821   112.86277682   148.37836038
 H      6   5   4     2.081143256555   111.39451205   270.26260998
[...]
freq.      88.48  E(vib)   ...       0.47 
freq.      97.03  E(vib)   ...       0.46 
freq.      97.66  E(vib)   ...       0.46 
freq.     103.58  E(vib)   ...       0.46 
freq.     104.96  E(vib)   ...       0.46 
freq.     108.74  E(vib)   ...       0.45 
freq.     115.48  E(vib)   ...       0.44 
freq.     116.63  E(vib)   ...       0.44 
freq.     119.62  E(vib)   ...       0.44 
freq.     129.90  E(vib)   ...       0.43 
freq.     132.51  E(vib)   ...       0.42 
freq.     135.83  E(vib)   ...       0.42 
freq.     136.26  E(vib)   ...       0.42 
freq.     149.09  E(vib)   ...       0.40 
freq.     156.58  E(vib)   ...       0.40 
freq.     157.95  E(vib)   ...       0.40 
freq.     170.71  E(vib)   ...       0.38 
freq.     173.57  E(vib)   ...       0.38 
freq.     186.44  E(vib)   ...       0.37 
freq.     192.67  E(vib)   ...       0.36 
freq.     195.69  E(vib)   ...       0.36 
freq.     200.89  E(vib)   ...       0.35 
freq.     202.99  E(vib)   ...       0.35 
freq.     208.97  E(vib)   ...       0.34 
freq.     219.06  E(vib)   ...       0.33 
freq.     221.54  E(vib)   ...       0.33 
freq.     225.76  E(vib)   ...       0.33 
freq.     227.82  E(vib)   ...       0.33 
freq.     232.02  E(vib)   ...       0.32 
freq.     234.79  E(vib)   ...       0.32 
freq.     238.46  E(vib)   ...       0.32 
freq.     240.63  E(vib)   ...       0.31 
freq.     242.92  E(vib)   ...       0.31 
freq.     243.46  E(vib)   ...       0.31 
freq.     251.18  E(vib)   ...       0.30 
freq.     252.02  E(vib)   ...       0.30 
freq.     254.47  E(vib)   ...       0.30 
freq.     264.73  E(vib)   ...       0.29 
freq.     286.41  E(vib)   ...       0.27 
freq.     290.46  E(vib)   ...       0.27 
freq.     301.21  E(vib)   ...       0.26 
freq.     317.94  E(vib)   ...       0.25 
freq.     322.47  E(vib)   ...       0.25 
freq.     327.81  E(vib)   ...       0.24 
freq.     332.30  E(vib)   ...       0.24 
freq.     338.63  E(vib)   ...       0.23 
freq.     341.00  E(vib)   ...       0.23 
freq.     348.77  E(vib)   ...       0.23 
freq.     351.28  E(vib)   ...       0.23 
freq.     366.44  E(vib)   ...       0.22 
freq.     387.79  E(vib)   ...       0.20 
freq.     389.58  E(vib)   ...       0.20 
freq.     394.00  E(vib)   ...       0.20 
freq.     395.02  E(vib)   ...       0.20 
freq.     403.23  E(vib)   ...       0.19 
freq.     408.67  E(vib)   ...       0.19 
freq.     421.26  E(vib)   ...       0.18 
freq.     429.76  E(vib)   ...       0.18 
freq.     441.61  E(vib)   ...       0.17 
freq.     460.96  E(vib)   ...       0.16 
freq.     468.48  E(vib)   ...       0.16 
freq.     480.24  E(vib)   ...       0.15 
freq.     489.06  E(vib)   ...       0.15 
freq.     498.59  E(vib)   ...       0.14 
freq.     507.73  E(vib)   ...       0.14 
freq.     514.11  E(vib)   ...       0.13 
freq.     529.93  E(vib)   ...       0.13 
freq.     538.52  E(vib)   ...       0.12 
freq.     554.53  E(vib)   ...       0.12 
freq.     569.04  E(vib)   ...       0.11 
freq.     584.35  E(vib)   ...       0.11 
freq.     614.33  E(vib)   ...       0.10 
freq.     617.44  E(vib)   ...       0.09 
freq.     625.47  E(vib)   ...       0.09 
freq.     630.59  E(vib)   ...       0.09 
freq.     646.76  E(vib)   ...       0.09 
freq.     663.38  E(vib)   ...       0.08 
freq.     679.27  E(vib)   ...       0.08 
freq.     684.83  E(vib)   ...       0.07 
freq.     688.10  E(vib)   ...       0.07 
freq.     694.49  E(vib)   ...       0.07 
freq.     704.31  E(vib)   ...       0.07 
freq.     711.38  E(vib)   ...       0.07 
freq.     713.40  E(vib)   ...       0.07 
freq.     716.23  E(vib)   ...       0.07 
freq.     725.87  E(vib)   ...       0.06 
freq.     732.16  E(vib)   ...       0.06 
freq.     744.55  E(vib)   ...       0.06 
freq.     754.66  E(vib)   ...       0.06 
freq.     771.30  E(vib)   ...       0.05 
freq.     780.88  E(vib)   ...       0.05 
freq.     788.26  E(vib)   ...       0.05 
freq.     795.18  E(vib)   ...       0.05 
freq.     814.60  E(vib)   ...       0.05 
freq.     817.89  E(vib)   ...       0.05 
freq.     819.76  E(vib)   ...       0.05 
freq.     832.49  E(vib)   ...       0.04 
freq.     840.92  E(vib)   ...       0.04 
freq.     843.43  E(vib)   ...       0.04 
freq.     848.59  E(vib)   ...       0.04 
freq.     852.02  E(vib)   ...       0.04 
freq.     859.43  E(vib)   ...       0.04 
freq.     871.57  E(vib)   ...       0.04 
freq.     875.86  E(vib)   ...       0.04 
freq.     882.40  E(vib)   ...       0.04 
freq.     888.55  E(vib)   ...       0.04 
freq.     896.65  E(vib)   ...       0.03 
freq.     908.73  E(vib)   ...       0.03 
freq.     909.59  E(vib)   ...       0.03 
freq.     912.41  E(vib)   ...       0.03 
freq.     913.79  E(vib)   ...       0.03 
freq.     918.56  E(vib)   ...       0.03 
freq.     921.13  E(vib)   ...       0.03 
freq.     925.31  E(vib)   ...       0.03 
freq.     931.43  E(vib)   ...       0.03 
freq.     942.30  E(vib)   ...       0.03 
freq.     943.68  E(vib)   ...       0.03 
freq.     946.69  E(vib)   ...       0.03 
freq.     949.13  E(vib)   ...       0.03 
freq.     969.03  E(vib)   ...       0.03 
freq.     972.68  E(vib)   ...       0.03 
freq.     975.02  E(vib)   ...       0.03 
freq.     978.12  E(vib)   ...       0.03 
freq.     988.31  E(vib)   ...       0.02 
freq.     992.42  E(vib)   ...       0.02 
freq.    1006.61  E(vib)   ...       0.02 
freq.    1010.64  E(vib)   ...       0.02 
freq.    1018.00  E(vib)   ...       0.02 
freq.    1021.48  E(vib)   ...       0.02 
freq.    1031.14  E(vib)   ...       0.02 
freq.    1038.28  E(vib)   ...       0.02 
freq.    1039.64  E(vib)   ...       0.02 
freq.    1042.99  E(vib)   ...       0.02 
freq.    1044.29  E(vib)   ...       0.02 
freq.    1051.11  E(vib)   ...       0.02 
freq.    1059.47  E(vib)   ...       0.02 
freq.    1063.87  E(vib)   ...       0.02 
freq.    1066.14  E(vib)   ...       0.02 
freq.    1069.06  E(vib)   ...       0.02 
freq.    1073.28  E(vib)   ...       0.02 
freq.    1075.05  E(vib)   ...       0.02 
freq.    1082.24  E(vib)   ...       0.02 
freq.    1084.91  E(vib)   ...       0.02 
freq.    1092.50  E(vib)   ...       0.02 
freq.    1097.17  E(vib)   ...       0.02 
freq.    1099.00  E(vib)   ...       0.02 
freq.    1109.97  E(vib)   ...       0.02 
freq.    1119.53  E(vib)   ...       0.01 
freq.    1120.16  E(vib)   ...       0.01 
freq.    1128.72  E(vib)   ...       0.01 
freq.    1133.60  E(vib)   ...       0.01 
freq.    1141.19  E(vib)   ...       0.01 
freq.    1145.18  E(vib)   ...       0.01 
freq.    1160.24  E(vib)   ...       0.01 
freq.    1160.77  E(vib)   ...       0.01 
freq.    1162.51  E(vib)   ...       0.01 
freq.    1165.97  E(vib)   ...       0.01 
freq.    1170.60  E(vib)   ...       0.01 
freq.    1174.03  E(vib)   ...       0.01 
freq.    1176.07  E(vib)   ...       0.01 
freq.    1180.33  E(vib)   ...       0.01 
freq.    1189.56  E(vib)   ...       0.01 
freq.    1193.73  E(vib)   ...       0.01 
freq.    1204.14  E(vib)   ...       0.01 
freq.    1210.61  E(vib)   ...       0.01 
freq.    1215.91  E(vib)   ...       0.01 
freq.    1222.63  E(vib)   ...       0.01 
freq.    1224.52  E(vib)   ...       0.01 
freq.    1229.38  E(vib)   ...       0.01 
freq.    1230.54  E(vib)   ...       0.01 
freq.    1236.21  E(vib)   ...       0.01 
freq.    1236.65  E(vib)   ...       0.01 
freq.    1247.53  E(vib)   ...       0.01 
freq.    1249.81  E(vib)   ...       0.01 
freq.    1250.96  E(vib)   ...       0.01 
freq.    1254.44  E(vib)   ...       0.01 
freq.    1256.44  E(vib)   ...       0.01 
freq.    1273.40  E(vib)   ...       0.01 
freq.    1275.37  E(vib)   ...       0.01 
freq.    1277.43  E(vib)   ...       0.01 
freq.    1285.03  E(vib)   ...       0.01 
freq.    1286.20  E(vib)   ...       0.01 
freq.    1288.09  E(vib)   ...       0.01 
freq.    1289.10  E(vib)   ...       0.01 
freq.    1293.14  E(vib)   ...       0.01 
freq.    1294.54  E(vib)   ...       0.01 
freq.    1298.01  E(vib)   ...       0.01 
freq.    1301.16  E(vib)   ...       0.01 
freq.    1301.74  E(vib)   ...       0.01 
freq.    1306.40  E(vib)   ...       0.01 
freq.    1306.95  E(vib)   ...       0.01 
freq.    1307.65  E(vib)   ...       0.01 
freq.    1309.24  E(vib)   ...       0.01 
freq.    1314.11  E(vib)   ...       0.01 
freq.    1318.40  E(vib)   ...       0.01 
freq.    1322.41  E(vib)   ...       0.01 
freq.    1327.22  E(vib)   ...       0.01 
freq.    1331.75  E(vib)   ...       0.01 
freq.    1333.51  E(vib)   ...       0.01 
freq.    1337.71  E(vib)   ...       0.01 
freq.    1340.21  E(vib)   ...       0.01 
freq.    1340.67  E(vib)   ...       0.01 
freq.    1342.84  E(vib)   ...       0.01 
freq.    1346.33  E(vib)   ...       0.01 
freq.    1348.67  E(vib)   ...       0.01 
freq.    1350.46  E(vib)   ...       0.01 
freq.    1351.11  E(vib)   ...       0.01 
freq.    1354.19  E(vib)   ...       0.01 
freq.    1355.61  E(vib)   ...       0.01 
freq.    1361.37  E(vib)   ...       0.01 
freq.    1371.11  E(vib)   ...       0.01 
freq.    1375.26  E(vib)   ...       0.01 
freq.    1376.27  E(vib)   ...       0.01 
freq.    1419.33  E(vib)   ...       0.00 
freq.    1424.78  E(vib)   ...       0.00 
freq.    1425.84  E(vib)   ...       0.00 
freq.    1426.70  E(vib)   ...       0.00 
freq.    1426.94  E(vib)   ...       0.00 
freq.    1428.31  E(vib)   ...       0.00 
freq.    1428.86  E(vib)   ...       0.00 
freq.    1429.43  E(vib)   ...       0.00 
freq.    1430.88  E(vib)   ...       0.00 
freq.    1431.55  E(vib)   ...       0.00 
freq.    1434.42  E(vib)   ...       0.00 
freq.    1436.82  E(vib)   ...       0.00 
freq.    1438.80  E(vib)   ...       0.00 
freq.    1441.52  E(vib)   ...       0.00 
freq.    1441.96  E(vib)   ...       0.00 
freq.    1445.03  E(vib)   ...       0.00 
freq.    1445.73  E(vib)   ...       0.00 
freq.    1447.42  E(vib)   ...       0.00 
freq.    1448.07  E(vib)   ...       0.00 
freq.    1448.38  E(vib)   ...       0.00 
freq.    1449.54  E(vib)   ...       0.00 
freq.    1450.38  E(vib)   ...       0.00 
freq.    1451.02  E(vib)   ...       0.00 
freq.    1451.52  E(vib)   ...       0.00 
freq.    1455.27  E(vib)   ...       0.00 
freq.    1456.64  E(vib)   ...       0.00 
freq.    1460.30  E(vib)   ...       0.00 
freq.    1460.65  E(vib)   ...       0.00 
freq.    1461.97  E(vib)   ...       0.00 
freq.    1464.65  E(vib)   ...       0.00 
freq.    1467.41  E(vib)   ...       0.00 
freq.    1469.79  E(vib)   ...       0.00 
freq.    1477.26  E(vib)   ...       0.00 
freq.    1491.63  E(vib)   ...       0.00 
freq.    1505.70  E(vib)   ...       0.00 
freq.    1613.74  E(vib)   ...       0.00 
freq.    1668.40  E(vib)   ...       0.00 
freq.    1672.84  E(vib)   ...       0.00 
freq.    1674.10  E(vib)   ...       0.00 
freq.    1684.31  E(vib)   ...       0.00 
freq.    1691.03  E(vib)   ...       0.00 
freq.    1695.09  E(vib)   ...       0.00 
freq.    2925.24  E(vib)   ...       0.00 
freq.    2927.88  E(vib)   ...       0.00 
freq.    2929.80  E(vib)   ...       0.00 
freq.    2930.64  E(vib)   ...       0.00 
freq.    2931.39  E(vib)   ...       0.00 
freq.    2933.54  E(vib)   ...       0.00 
freq.    2938.30  E(vib)   ...       0.00 
freq.    2938.38  E(vib)   ...       0.00 
freq.    2941.72  E(vib)   ...       0.00 
freq.    2947.07  E(vib)   ...       0.00 
freq.    2948.28  E(vib)   ...       0.00 
freq.    2952.52  E(vib)   ...       0.00 
freq.    2953.60  E(vib)   ...       0.00 
freq.    2956.98  E(vib)   ...       0.00 
freq.    2958.09  E(vib)   ...       0.00 
freq.    2960.84  E(vib)   ...       0.00 
freq.    2961.38  E(vib)   ...       0.00 
freq.    2962.98  E(vib)   ...       0.00 
freq.    2968.48  E(vib)   ...       0.00 
freq.    2968.97  E(vib)   ...       0.00 
freq.    2971.03  E(vib)   ...       0.00 
freq.    2971.73  E(vib)   ...       0.00 
freq.    2973.39  E(vib)   ...       0.00 
freq.    2976.29  E(vib)   ...       0.00 
freq.    2976.50  E(vib)   ...       0.00 
freq.    2978.60  E(vib)   ...       0.00 
freq.    2979.77  E(vib)   ...       0.00 
freq.    2980.16  E(vib)   ...       0.00 
freq.    2988.12  E(vib)   ...       0.00 
freq.    2988.75  E(vib)   ...       0.00 
freq.    2988.81  E(vib)   ...       0.00 
freq.    2989.41  E(vib)   ...       0.00 
freq.    2990.88  E(vib)   ...       0.00 
freq.    2993.35  E(vib)   ...       0.00 
freq.    2996.92  E(vib)   ...       0.00 
freq.    3003.23  E(vib)   ...       0.00 
freq.    3004.76  E(vib)   ...       0.00 
freq.    3005.97  E(vib)   ...       0.00 
freq.    3011.89  E(vib)   ...       0.00 
freq.    3013.64  E(vib)   ...       0.00 
freq.    3014.65  E(vib)   ...       0.00 
freq.    3015.48  E(vib)   ...       0.00 
freq.    3019.98  E(vib)   ...       0.00 
freq.    3025.31  E(vib)   ...       0.00 
freq.    3026.47  E(vib)   ...       0.00 
freq.    3027.74  E(vib)   ...       0.00 
freq.    3034.31  E(vib)   ...       0.00 
freq.    3036.96  E(vib)   ...       0.00 
freq.    3037.89  E(vib)   ...       0.00 
freq.    3040.19  E(vib)   ...       0.00 
freq.    3043.88  E(vib)   ...       0.00 
freq.    3049.71  E(vib)   ...       0.00 
freq.    3050.09  E(vib)   ...       0.00 
freq.    3052.99  E(vib)   ...       0.00 
freq.    3053.18  E(vib)   ...       0.00 
freq.    3059.79  E(vib)   ...       0.00 
freq.    3068.04  E(vib)   ...       0.00 
freq.    3069.49  E(vib)   ...       0.00 
freq.    3222.76  E(vib)   ...       0.00 
freq.    3364.60  E(vib)   ...       0.00 
freq.    3446.47  E(vib)   ...       0.00 
freq.    3486.18  E(vib)   ...       0.00 
freq.    3490.35  E(vib)   ...       0.00 
freq.    3502.24  E(vib)   ...       0.00 

------------
INNER ENERGY
------------

The inner energy is: U= E(el) + E(ZPE) + E(vib) + E(rot) + E(trans)
    E(el)   - is the total energy from the electronic structure calculation
              = E(kin-el) + E(nuc-el) + E(el-el) + E(nuc-nuc)
    E(ZPE)  - the the zero temperature vibrational energy from the frequency calculation
    E(vib)  - the the finite temperature correction to E(ZPE) due to population
              of excited vibrational states
    E(rot)  - is the rotational thermal energy
    E(trans)- is the translational thermal energy

Summary of contributions to the inner energy U:
Electronic energy                ...  -2380.08786818 Eh
Zero point energy                ...      0.97738226 Eh     613.32 kcal/mol
Thermal vibrational correction   ...      0.05543214 Eh      34.78 kcal/mol
Thermal rotational correction    ...      0.00141627 Eh       0.89 kcal/mol
Thermal translational correction ...      0.00141627 Eh       0.89 kcal/mol
-----------------------------------------------------------------------
Total thermal energy                  -2379.05222124 Eh


Summary of corrections to the electronic energy:
(perhaps to be used in another calculation)
Total thermal correction                  0.05826469 Eh      36.56 kcal/mol
Non-thermal (ZPE) correction              0.97738226 Eh     613.32 kcal/mol
-----------------------------------------------------------------------
Total correction                          1.03564695 Eh     649.88 kcal/mol


--------
ENTHALPY
--------

The enthalpy is H = U + kB*T
                kB is Boltzmann's constant
Total free energy                 ...  -2379.05222124 Eh 
Thermal Enthalpy correction       ...      0.00094421 Eh       0.59 kcal/mol
-----------------------------------------------------------------------
Total Enthalpy                    ...  -2379.05127703 Eh


Note: Only C1 symmetry has been detected, increase convergence thresholds 
      if your molecule has a higher symmetry. Symmetry factor of 1.0 is   
      used for the rotational entropy correction. 
 

Note: Rotational entropy computed according to Herzberg 
Infrared and Raman Spectra, Chapter V,1, Van Nostrand Reinhold, 1945 
Point Group:  C1, Symmetry Number:   1  
Rotational constants in cm-1:     0.002133     0.001620     0.001378 

Vibrational entropy computed according to the QRRHO of S. Grimme
Chem.Eur.J. 2012 18 9955


-------
ENTROPY
-------

The entropy contributions are T*S = T*(S(el)+S(vib)+S(rot)+S(trans))
     S(el)   - electronic entropy
     S(vib)  - vibrational entropy
     S(rot)  - rotational entropy
     S(trans)- translational entropy
The entropies will be listed as mutliplied by the temperature to get
units of energy

Electronic entropy                ...      0.00000000 Eh      0.00 kcal/mol
Vibrational entropy               ...      0.10134193 Eh     63.59 kcal/mol
Rotational entropy                ...      0.01855732 Eh     11.64 kcal/mol
Translational entropy             ...      0.02166895 Eh     13.60 kcal/mol
-----------------------------------------------------------------------
Final entropy term                ...      0.14156820 Eh     88.84 kcal/mol

In case the symmetry of your molecule has not been determined correctly
or in case you have a reason to use a different symmetry number we print 
out the resulting rotational entropy values for sn=1,12 :
 --------------------------------------------------------
|  sn= 1 | S(rot)=       0.01855732 Eh     11.64 kcal/mol|
|  sn= 2 | S(rot)=       0.01790287 Eh     11.23 kcal/mol|
|  sn= 3 | S(rot)=       0.01752003 Eh     10.99 kcal/mol|
|  sn= 4 | S(rot)=       0.01724841 Eh     10.82 kcal/mol|
|  sn= 5 | S(rot)=       0.01703772 Eh     10.69 kcal/mol|
|  sn= 6 | S(rot)=       0.01686558 Eh     10.58 kcal/mol|
|  sn= 7 | S(rot)=       0.01672003 Eh     10.49 kcal/mol|
|  sn= 8 | S(rot)=       0.01659395 Eh     10.41 kcal/mol|
|  sn= 9 | S(rot)=       0.01648274 Eh     10.34 kcal/mol|
|  sn=10 | S(rot)=       0.01638327 Eh     10.28 kcal/mol|
|  sn=11 | S(rot)=       0.01629328 Eh     10.22 kcal/mol|
|  sn=12 | S(rot)=       0.01621112 Eh     10.17 kcal/mol|
 --------------------------------------------------------


-------------------
GIBBS FREE ENERGY
-------------------

The Gibbs free energy is G = H - T*S

Total enthalpy                    ...  -2379.05127703 Eh 
Total entropy correction          ...     -0.14156820 Eh    -88.84 kcal/mol
-----------------------------------------------------------------------
Final Gibbs free energy         ...  -2379.19284523 Eh

For completeness - the Gibbs free energy minus the electronic energy
G-E(el)                           ...      0.89502295 Eh    561.63 kcal/mol

--------------------------------------------------------------------------
WARNING: No preset parameters were found for the device that Open MPI
detected:

  Local host:            eu-g1-048-1
  Device name:           mlx5_0
  Device vendor ID:      0x02c9
  Device vendor part ID: 4123

Default device parameters will be used, which may result in lower
performance.  You can edit any of the files specified by the
btl_openib_device_param_files MCA parameter to set values for your
device.

NOTE: You can turn off this warning by setting the MCA parameter
      btl_openib_warn_no_device_params_found to 0.
--------------------------------------------------------------------------
--------------------------------------------------------------------------
WARNING: There was an error initializing an OpenFabrics device.

  Local host:   eu-g1-048-1
  Local device: mlx5_0
--------------------------------------------------------------------------

Timings for individual modules:

Sum of individual times         ...    38047.322 sec (= 634.122 min)
GTO integral calculation        ...       12.882 sec (=   0.215 min)   0.0 %
SCF iterations                  ...      456.729 sec (=   7.612 min)   1.2 %
SCF Gradient evaluation         ...       80.507 sec (=   1.342 min)   0.2 %
Geometry relaxation             ...        4.015 sec (=   0.067 min)   0.0 %
Analytical frequency calculation...    37493.189 sec (= 624.886 min)  98.5 %
                             ****ORCA TERMINATED NORMALLY****
TOTAL RUN TIME: 0 days 10 hours 34 minutes 25 seconds 137 msec
